 Q-Chem 5.0, Q-Chem, Inc., Pleasanton, CA (2017)
 Q-Chem 5.0.1 for Intel X86 EM64T Linux

User input:
--------------------------------------------------------------
$molecule
0  1
O -4.3141521384 -2.5669058154 -1.2865151856
C -3.7439346413 -1.6424900187 -0.6695992214
C -4.412516392 -0.6548790993 0.3570105884
C -3.9199594876 0.8554970782 0.3239174499
C -2.5507985311 1.192969357 -0.4005170683
O -1.4672430677 1.4477624932 0.5402331637
C -0.7979094771 0.2071053163 0.9800391468
C 0.6044237188 0.0419932037 0.2622208456
O 1.7153427348 0.3687834421 1.1908017647
C 2.5361847516 1.4142533931 0.6392480141
C 4.0727184506 1.0970841282 0.4632130117
C 4.8034097527 -0.1832500607 1.0367756087
C 4.1158528568 -1.5989761081 1.0671885842
O 4.6770012541 -2.6259178607 1.5171713619
O -2.3482505091 -1.3598519875 -0.7956360282
O 2.9441210841 -1.6480941047 0.2500637608
O 2.0620109191 2.5016590993 0.2368256569
C 2.4725469048 -3.0480774949 0.1220626661
C 4.5712614339 1.1029130042 -1.0617173186
C 5.9300797535 1.9005174985 -1.0703866065
C 6.829978013 0.9153070016 -0.2341585645
C 5.8938434223 -0.3549448675 -0.1239852092
O 5.0233296979 -0.2808119312 -1.3239297346
H 4.5656220637 1.9575208914 0.9554282774
H 5.2549317094 0.0113951665 2.0256888538
H 3.8139893248 1.4218466928 -1.8039712303
H 6.3039035004 2.0078116924 -2.1016519289
H 5.8424390464 2.899635276 -0.6149998702
H 7.7631434216 0.6633709436 -0.7619539134
H 7.0862113776 1.3177133895 0.7590188553
H 6.4264571073 -1.3253059916 -0.0890975625
O -2.437048128 1.47899745 -1.6101552967
C -1.7153047627 -2.2541134506 -1.790696243
C -5.9228133069 -0.4740657035 -0.0917146489
C -6.730388632 0.2948787392 1.0258126463
C -6.2603212163 1.7777270425 0.7827951895
C -5.1805584402 1.5625338203 -0.3478281704
O -5.7906842578 0.5107052413 -1.1918123851
H -4.3132964676 -1.0825118521 1.3723815922
H -3.7988966252 1.2079711495 1.3641122355
H -2.2189304961 -2.1806253652 -2.7753756222
H -6.3823570918 -1.4109948108 -0.4629605201
H -7.8143981497 0.1803224393 0.8682699681
H -6.4807648163 -0.0686180874 2.0357127109
H -7.0857916416 2.4036801351 0.4074429921
H -5.8389517962 2.2491858369 1.6851038613
H -4.9360484232 2.4540625222 -0.9572666773
H -1.7379838333 -3.3115927197 -1.4561783119
H -0.6673377875 -1.9141559201 -1.881581264
H 1.5303302988 -3.1799689606 0.6909443901
H 3.2465876013 -3.7334104271 0.522551636
H 2.2870224155 -3.2496844758 -0.9503030763
H 0.7488288663 -1.0120294939 -0.0503215519
H 0.6148570926 0.6912979307 -0.6379297251
H -1.4192543939 -0.6834437051 0.7474893725
H -0.6266996565 0.2803353994 2.0761312797
$end

$rem
JOBTYPE                   OPT
METHOD                    B3LYP
DFT_D                     d3_op
BASIS                     STO-3G
GEOM_OPT_MAX_CYCLES       100
GEOM_OPT_TOL_GRADIENT     300
GEOM_OPT_TOL_DISPLACEMENT 1200
GEOM_OPT_TOL_ENERGY       100
SYMMETRY                  False
THRESH                    12
SCF_CONVERGENCE           8
MAX_SUB_FILE_NUM          128
MEM_STATIC                400
MEM_TOTAL                 4000
$end
--------------------------------------------------------------

   16   -1510.2247815902      5.89E-09 Convergence criterion met
 Total energy in the final basis set = -1510.22478159
   14   -1510.2306961627      7.94E-09 Convergence criterion met
 Total energy in the final basis set = -1510.23069616
   14   -1510.2365501699      7.24E-09 Convergence criterion met
 Total energy in the final basis set = -1510.23655017
   14   -1510.2416694709      9.73E-09 Convergence criterion met
 Total energy in the final basis set = -1510.24166947
   14   -1510.2469187336      7.95E-09 Convergence criterion met
 Total energy in the final basis set = -1510.24691873
   14   -1510.2516663102      5.00E-09 Convergence criterion met
 Total energy in the final basis set = -1510.25166631
   14   -1510.2560185583      5.51E-09 Convergence criterion met
 Total energy in the final basis set = -1510.25601856
   14   -1510.2594763522      5.08E-09 Convergence criterion met
   12   -1510.2811228947      8.51E-09 Convergence criterion met
 Total energy in the final basis set = -1510.28112289
   11   -1510.2811302654      7.88E-09 Convergence criterion met
 Total energy in the final basis set = -1510.28113027
   11   -1510.2811332989      6.32E-09 Convergence criterion met
 Total energy in the final basis set = -1510.28113330
   11   -1510.2811348902      5.38E-09 Convergence criterion met
 Total energy in the final basis set = -1510.28113489
    9   -1510.2811375047      7.63E-09 Convergence criterion met
 Total energy in the final basis set = -1510.28113750
    9   -1510.2811386405      5.78E-09 Convergence criterion met
 Total energy in the final basis set = -1510.28113864

             Standard Nuclear Orientation (Angstroms)
    I     Atom           X                Y                Z
 ----------------------------------------------------------------
    1      O       3.5934404554     0.3301976997     2.8504716469
    2      C       3.1575895089    -0.1063460923     1.7666569864
    3      C       3.9637945121    -0.4334055131     0.4606777724
    4      C       3.4819531449     0.3684443948    -0.8179726768
    5      C       2.4177148860     1.4830562743    -0.4665314459
    6      O       1.3128609156     1.7210333459    -1.3651758239
    7      C       0.7214810572     0.4974031574    -1.9454830505
    8      C       0.0255298656    -0.3837920053    -0.8498297588
    9      O      -1.2411498021     0.3216022366    -0.5263662680
   10      C      -1.9072819834    -0.2667398400     0.5881003830
   11      C      -3.2488350534     0.5185772904     0.8082734812
   12      C      -4.1480829056     0.6320883674    -0.4929549049
   13      C      -3.5614813764    -0.1171748691    -1.7363058299
   14      O      -3.4066692808     0.3308868679    -2.8923669499
   15      O       1.7872495511    -0.4771080139     1.5421408890
   16      O      -3.2591687522    -1.4664808763    -1.3490385568
   17      O      -1.4532536331    -1.2013287254     1.2860582366
   18      C      -2.7535648693    -2.2297615114    -2.5112662070
   19      C      -4.2218748905    -0.2498192897     1.7941147688
   20      C      -5.3089106788     0.7716970140     2.3087320538
   21      C      -6.2050946024     0.9295544371     1.0240319945
   22      C      -5.4858785041    -0.0601102547     0.0233622827
   23      O      -4.9901143259    -1.1456184179     0.8973914063
   24      H      -2.9947305374     1.5243872554     1.1914825646
   25      H      -4.3154822782     1.6840842433    -0.7821105640
   26      H      -3.6977118691    -0.8386845907     2.5719388749
   27      H      -5.8781108406     0.3385652612     3.1465298080
   28      H      -4.8638215542     1.7244019800     2.6374990027
   29      H      -7.2408073911     0.6035947024     1.2097222283
   30      H      -6.2228313799     1.9628808926     0.6419665843
   31      H      -6.1302010993    -0.4696610843    -0.7787016476
   32      O       2.5641928044     2.2718280229     0.4935657636
   33      C       0.9616447052    -0.2201782453     2.7441885873
   34      C       5.4756949027     0.0296599381     0.5692007166
   35      C       6.3066377669    -0.7431861994    -0.5271255966
   36      C       5.8170463762    -0.0200755242    -1.8372809325
   37      C       4.8453591273     1.0749095101    -1.2403348548
   38      O       5.4550111891     1.4216108834     0.0612436491
   39      H       3.8864295542    -1.5217779653     0.2815156538
   40      H       3.1238601737    -0.3138358204    -1.6027891631
   41      H       0.8918409273     0.8669485175     2.9523974413
   42      H       5.8800572973     0.0003215268     1.5996916243
   43      H       7.3862772385    -0.5945028171    -0.3657612806
   44      H       6.0950526881    -1.8242758625    -0.5298861665
   45      H       6.6523325156     0.4577531805    -2.3734403418
   46      H       5.2975325756    -0.7011509145    -2.5305064006
   47      H       4.7176151141     1.9812386429    -1.8640156450
   48      H       1.3793566445    -0.7296820066     3.6347597464
   49      H      -0.0385783799    -0.6302675777     2.4895455498
   50      H      -2.3631553073    -3.1820401377    -2.1073614457
   51      H      -1.9463737977    -1.6857765396    -3.0422235680
   52      H      -3.5652099826    -2.4441231541    -3.2368093006
   53      H      -0.1942541146    -1.3962227522    -1.2533744929
   54      H       0.6858833452    -0.4853927328     0.0522959919
   55      H       1.4539600368    -0.1132389088    -2.5157168065
   56      H      -0.0462338709     0.8639649364    -2.6589469723
 ----------------------------------------------------------------

    9   -1510.2811400677      7.24E-09 Convergence criterion met
 Total energy in the final basis set = -1510.28114007
 Final energy is   -1510.28114006767
 **  OPTIMIZATION CONVERGED  **

                    Orbital Energies (a.u.)
 --------------------------------------------------------------

 Alpha MOs
 -- Occupied --
-18.938 -18.937 -18.934 -18.927 -18.891 -18.888 -18.883 -18.882
-18.879 -18.874 -10.106 -10.104 -10.102 -10.100 -10.080 -10.067
-10.065 -10.064 -10.062 -10.061 -10.059 -10.053 -10.042 -10.041
-10.039 -10.038 -10.025 -10.023 -10.021 -10.020  -1.019  -1.014
 -1.008  -1.004  -0.973  -0.971  -0.944  -0.940  -0.936  -0.935
 -0.767  -0.765  -0.728  -0.726  -0.712  -0.708  -0.703  -0.663
 -0.659  -0.615  -0.604  -0.588  -0.551  -0.548  -0.541  -0.538
 -0.516  -0.513  -0.489  -0.473  -0.471  -0.467  -0.460  -0.446
 -0.438  -0.432  -0.429  -0.421  -0.414  -0.411  -0.408  -0.405
 -0.397  -0.384  -0.380  -0.370  -0.367  -0.360  -0.359  -0.352
 -0.347  -0.341  -0.338  -0.333  -0.332  -0.325  -0.320  -0.312
 -0.311  -0.309  -0.307  -0.302  -0.295  -0.294  -0.290  -0.280
 -0.273  -0.263  -0.253  -0.245  -0.239  -0.237  -0.235  -0.185
 -0.178  -0.177  -0.172  -0.160  -0.158  -0.152  -0.151  -0.145
 -0.144

          Ground-State Mulliken Net Atomic Charges

     Atom                 Charge (a.u.)
  ----------------------------------------
      1 O                    -0.200953
      2 C                     0.218317
      3 C                    -0.079647
      4 C                    -0.083966
      5 C                     0.208103
      6 O                    -0.173218
      7 C                    -0.046698
      8 C                    -0.066612
      9 O                    -0.173604
     10 C                     0.221887
     11 C                    -0.078332
     12 C                    -0.078611
     13 C                     0.212307
     14 O                    -0.215256
     15 O                    -0.179592
     16 O                    -0.169049
     17 O                    -0.218078
     18 C                    -0.128697
     19 C                     0.024375
     20 C                    -0.143810
     21 C                    -0.143908
     22 C                     0.025952
     23 O                    -0.186166
     24 H                     0.086778
     25 H                     0.086526
     26 H                     0.089567
     27 H                     0.078365
     28 H                     0.073859
     29 H                     0.078179
     30 H                     0.074343
     31 H                     0.082316
     32 O                    -0.191710
     33 C                    -0.138608
     34 C                     0.025319
     35 C                    -0.143722
     36 C                    -0.144324
     37 C                     0.025804
     38 O                    -0.183472
     39 H                     0.083456
     40 H                     0.075908
     41 H                     0.088213
     42 H                     0.092036
     43 H                     0.079545
     44 H                     0.072976
     45 H                     0.079447
     46 H                     0.071553
     47 H                     0.084518
     48 H                     0.087760
     49 H                     0.106927
     50 H                     0.090945
     51 H                     0.086921
     52 H                     0.087177
     53 H                     0.079340
     54 H                     0.113063
     55 H                     0.076961
     56 H                     0.099288
  ----------------------------------------
  Sum of atomic charges =     0.000000

                    Cartesian Multipole Moments
 -----------------------------------------------------------------
    Charge (ESU x 10^10)
                -0.0000
    Dipole Moment (Debye)
         X      -0.5547      Y      -2.5429      Z      -2.1234
       Tot       3.3590
    Quadrupole Moments (Debye-Ang)
        XX    -153.1971     XY     -17.6956     YY    -166.9788
        XZ     -14.1988     YZ       4.8936     ZZ    -159.7121

 Total job time:  150.52s(wall), 7170.49s(cpu)
        *  Thank you very much for using Q-Chem.  Have a nice day.  *
