 Q-Chem 5.0, Q-Chem, Inc., Pleasanton, CA (2017)
 Q-Chem 5.0.1 for Intel X86 EM64T Linux

User input:
--------------------------------------------------------------
$molecule
0  1
O -3.94934 -3.66094 2.70899
C -3.26408 -4.56952 2.26188
C -3.36658 -6.02376 2.66595
C -2.05424 -6.81773 2.77194
C -0.77335 -6.02476 2.63554
O -0.22725 -6.23408 1.40129
C -0.76416 -5.3701 0.39406
C 0.23409 -4.26583 0.0621
O 0.86952 -4.54249 -1.19591
C 2.22346 -4.61237 -1.16239
C 2.88628 -3.64446 -2.11343
C 1.93229 -2.93949 -3.08873
C 0.4581 -3.02275 -2.74738
O -0.44952 -2.52707 -3.39937
O -2.04957 -4.00508 2.02674
O 0.38623 -2.31154 -1.56285
O 2.84063 -5.22157 -0.29975
C -0.38667 -1.1874 -1.21953
C 3.62616 -2.43893 -1.49656
C 4.72749 -1.98175 -2.45245
C 3.89867 -1.3926 -3.58315
C 2.49277 -1.49722 -2.979
O 2.72458 -1.3646 -1.59341
H 3.62547 -4.26277 -2.67212
H 2.02464 -3.36296 -4.11307
H 4.03966 -2.64576 -0.48579
H 5.2687 -1.15366 -1.93987
H 5.46058 -2.75865 -2.7573
H 4.19593 -0.32857 -3.71602
H 3.96107 -1.93331 -4.55177
H 1.80532 -0.75153 -3.43467
O -0.06823 -5.70772 3.58319
C -1.65968 -2.69555 2.31516
C -3.91745 -6.20164 4.09613
C -4.51068 -7.60092 4.26185
C -3.25215 -8.4389 4.3028
C -2.18789 -7.34242 4.21745
O -2.76581 -6.25689 4.89989
H -4.0595 -6.48745 1.92956
H -2.01519 -7.67708 2.06336
H -1.77675 -2.50028 3.40312
H -4.67425 -5.43837 4.37902
H -4.9945 -7.64629 5.26381
H -5.24787 -7.8873 3.48156
H -3.19441 -8.94232 5.2937
H -3.15282 -9.19175 3.4911
H -1.22415 -7.72171 4.62443
H -2.26939 -1.97036 1.7364
H -0.58838 -2.54656 2.08279
H -1.09761 -1.42705 -0.4059
H -0.97889 -0.76936 -2.05954
H 0.28585 -0.38366 -0.8597
H -0.43911 -3.41946 0.05937
H 0.94595 -4.10085 0.90434
H -1.85767 -5.27719 0.2473
H -0.73781 -6.02123 -0.50634
$end

$opt
CONSTRAINT
tors           1           2           3           4    -142.105
tors           3           4           5           6    -104.211
tors           4           5           6           7     +85.263
tors           5           6           7           8    +104.211
tors           6           7           8           9    +104.211
tors           7           8           9          10    -123.158
tors           8           9          10          11    -123.158
tors           9          10          11          12      -9.474
tors          11          12          13          14    -180.000
ENDCONSTRAINT
$end

$rem
JOBTYPE                   OPT
METHOD                    B3LYP
DFT_D                     d3_op
BASIS                     STO-3G
GEOM_OPT_MAX_CYCLES       100
GEOM_OPT_TOL_GRADIENT     300
GEOM_OPT_TOL_DISPLACEMENT 1200
GEOM_OPT_TOL_ENERGY       100
SYMMETRY                  False
THRESH                    12
SCF_CONVERGENCE           8
MAX_SUB_FILE_NUM          128
MEM_STATIC                400
MEM_TOTAL                 4000
$end
--------------------------------------------------------------

   16   -1509.9492909841      5.79E-09 Convergence criterion met
 Total energy in the final basis set = -1509.94929098
   15   -1510.0432852754      2.62E-09 Convergence criterion met
 Total energy in the final basis set = -1510.04328528
   15   -1510.0989101957      3.41E-09 Convergence criterion met
 Total energy in the final basis set = -1510.09891020
   14   -1510.1383661788      6.33E-09 Convergence criterion met
 Total energy in the final basis set = -1510.13836618
   14   -1510.1622426718      8.60E-09 Convergence criterion met
 Total energy in the final basis set = -1510.16224267
   14   -1510.1800859905      5.91E-09 Convergence criterion met
 Total energy in the final basis set = -1510.18008599
   14   -1510.1926366137      3.87E-09 Convergence criterion met
 Total energy in the final basis set = -1510.19263661
   14   -1510.2020639408      3.44E-09 Convergence criterion met
   11   -1510.2246440454      8.88E-09 Convergence criterion met
 Total energy in the final basis set = -1510.22464405
   11   -1510.2246867757      7.85E-09 Convergence criterion met
 Total energy in the final basis set = -1510.22468678
   11   -1510.2247063200      3.19E-09 Convergence criterion met
 Total energy in the final basis set = -1510.22470632
   10   -1510.2247091918      7.12E-09 Convergence criterion met
 Total energy in the final basis set = -1510.22470919
   10   -1510.2247119611      9.81E-09 Convergence criterion met
 Total energy in the final basis set = -1510.22471196
   11   -1510.2247132859      1.38E-09 Convergence criterion met
 Total energy in the final basis set = -1510.22471329

             Standard Nuclear Orientation (Angstroms)
    I     Atom           X                Y                Z
 ----------------------------------------------------------------
    1      O      -4.3141521384    -2.5669058154    -1.2865151856
    2      C      -3.7439346413    -1.6424900187    -0.6695992214
    3      C      -4.4125163920    -0.6548790993     0.3570105884
    4      C      -3.9199594876     0.8554970782     0.3239174499
    5      C      -2.5507985311     1.1929693570    -0.4005170683
    6      O      -1.4672430677     1.4477624932     0.5402331637
    7      C      -0.7979094771     0.2071053163     0.9800391468
    8      C       0.6044237188     0.0419932037     0.2622208456
    9      O       1.7153427348     0.3687834421     1.1908017647
   10      C       2.5361847516     1.4142533931     0.6392480141
   11      C       4.0727184506     1.0970841282     0.4632130117
   12      C       4.8034097527    -0.1832500607     1.0367756087
   13      C       4.1158528568    -1.5989761081     1.0671885842
   14      O       4.6770012541    -2.6259178607     1.5171713619
   15      O      -2.3482505091    -1.3598519875    -0.7956360282
   16      O       2.9441210841    -1.6480941047     0.2500637608
   17      O       2.0620109191     2.5016590993     0.2368256569
   18      C       2.4725469048    -3.0480774949     0.1220626661
   19      C       4.5712614339     1.1029130042    -1.0617173186
   20      C       5.9300797535     1.9005174985    -1.0703866065
   21      C       6.8299780130     0.9153070016    -0.2341585645
   22      C       5.8938434223    -0.3549448675    -0.1239852092
   23      O       5.0233296979    -0.2808119312    -1.3239297346
   24      H       4.5656220637     1.9575208914     0.9554282774
   25      H       5.2549317094     0.0113951665     2.0256888538
   26      H       3.8139893248     1.4218466928    -1.8039712303
   27      H       6.3039035004     2.0078116924    -2.1016519289
   28      H       5.8424390464     2.8996352760    -0.6149998702
   29      H       7.7631434216     0.6633709436    -0.7619539134
   30      H       7.0862113776     1.3177133895     0.7590188553
   31      H       6.4264571073    -1.3253059916    -0.0890975625
   32      O      -2.4370481280     1.4789974500    -1.6101552967
   33      C      -1.7153047627    -2.2541134506    -1.7906962430
   34      C      -5.9228133069    -0.4740657035    -0.0917146489
   35      C      -6.7303886320     0.2948787392     1.0258126463
   36      C      -6.2603212163     1.7777270425     0.7827951895
   37      C      -5.1805584402     1.5625338203    -0.3478281704
   38      O      -5.7906842578     0.5107052413    -1.1918123851
   39      H      -4.3132964676    -1.0825118521     1.3723815922
   40      H      -3.7988966252     1.2079711495     1.3641122355
   41      H      -2.2189304961    -2.1806253652    -2.7753756222
   42      H      -6.3823570918    -1.4109948108    -0.4629605201
   43      H      -7.8143981497     0.1803224393     0.8682699681
   44      H      -6.4807648163    -0.0686180874     2.0357127109
   45      H      -7.0857916416     2.4036801351     0.4074429921
   46      H      -5.8389517962     2.2491858369     1.6851038613
   47      H      -4.9360484232     2.4540625222    -0.9572666773
   48      H      -1.7379838333    -3.3115927197    -1.4561783119
   49      H      -0.6673377875    -1.9141559201    -1.8815812640
   50      H       1.5303302988    -3.1799689606     0.6909443901
   51      H       3.2465876013    -3.7334104271     0.5225516360
   52      H       2.2870224155    -3.2496844758    -0.9503030763
   53      H       0.7488288663    -1.0120294939    -0.0503215519
   54      H       0.6148570926     0.6912979307    -0.6379297251
   55      H      -1.4192543939    -0.6834437051     0.7474893725
   56      H      -0.6266996565     0.2803353994     2.0761312797
 ----------------------------------------------------------------

   10   -1510.2247139926      6.02E-09 Convergence criterion met
 Total energy in the final basis set = -1510.22471399
 Final energy is   -1510.22471399259
 **  OPTIMIZATION CONVERGED  **

                    Orbital Energies (a.u.)
 --------------------------------------------------------------

 Alpha MOs
 -- Occupied --
-18.955 -18.937 -18.906 -18.892 -18.891 -18.891 -18.890 -18.889
-18.880 -18.870 -10.114 -10.102 -10.100 -10.100 -10.079 -10.063
-10.062 -10.061 -10.060 -10.060 -10.060 -10.055 -10.047 -10.042
-10.036 -10.035 -10.023 -10.023 -10.021 -10.021  -1.028  -1.013
 -1.001  -0.996  -0.974  -0.972  -0.951  -0.936  -0.931  -0.924
 -0.765  -0.763  -0.726  -0.724  -0.707  -0.704  -0.691  -0.675
 -0.662  -0.608  -0.602  -0.582  -0.548  -0.543  -0.540  -0.539
 -0.514  -0.513  -0.493  -0.484  -0.467  -0.458  -0.453  -0.440
 -0.435  -0.431  -0.427  -0.421  -0.418  -0.413  -0.407  -0.401
 -0.391  -0.383  -0.377  -0.372  -0.367  -0.360  -0.358  -0.350
 -0.345  -0.341  -0.340  -0.333  -0.333  -0.324  -0.316  -0.313
 -0.312  -0.309  -0.308  -0.301  -0.299  -0.295  -0.285  -0.277
 -0.270  -0.268  -0.246  -0.241  -0.237  -0.232  -0.224  -0.194
 -0.178  -0.170  -0.164  -0.156  -0.149  -0.149  -0.147  -0.147
 -0.138

          Ground-State Mulliken Net Atomic Charges

     Atom                 Charge (a.u.)
  ----------------------------------------
      1 O                    -0.205606
      2 C                     0.215214
      3 C                    -0.079405
      4 C                    -0.086730
      5 C                     0.223058
      6 O                    -0.199818
      7 C                    -0.057688
      8 C                    -0.046843
      9 O                    -0.187288
     10 C                     0.214706
     11 C                    -0.081769
     12 C                    -0.075315
     13 C                     0.214843
     14 O                    -0.221482
     15 O                    -0.173012
     16 O                    -0.161733
     17 O                    -0.197529
     18 C                    -0.137347
     19 C                     0.026304
     20 C                    -0.140429
     21 C                    -0.146047
     22 C                     0.023739
     23 O                    -0.190832
     24 H                     0.083201
     25 H                     0.086346
     26 H                     0.086486
     27 H                     0.078558
     28 H                     0.076700
     29 H                     0.079337
     30 H                     0.074777
     31 H                     0.085627
     32 O                    -0.184711
     33 C                    -0.126190
     34 C                     0.024144
     35 C                    -0.145294
     36 C                    -0.142550
     37 C                     0.024598
     38 O                    -0.189189
     39 H                     0.084741
     40 H                     0.082868
     41 H                     0.099169
     42 H                     0.090889
     43 H                     0.079305
     44 H                     0.073053
     45 H                     0.078994
     46 H                     0.074429
     47 H                     0.088103
     48 H                     0.090631
     49 H                     0.094091
     50 H                     0.080976
     51 H                     0.104517
     52 H                     0.085417
     53 H                     0.082350
     54 H                     0.092723
     55 H                     0.094540
     56 H                     0.082371
  ----------------------------------------
  Sum of atomic charges =    -0.000000

                    Cartesian Multipole Moments
 -----------------------------------------------------------------
    Charge (ESU x 10^10)
                -0.0000
    Dipole Moment (Debye)
         X       0.3643      Y      -1.2152      Z       1.9233
       Tot       2.3040
    Quadrupole Moments (Debye-Ang)
        XX    -149.9747     XY       5.6489     YY    -164.1378
        XZ     -13.4552     YZ       3.6725     ZZ    -163.4392

 Total job time:  71.05s(wall), 3382.73s(cpu)
        *  Thank you very much for using Q-Chem.  Have a nice day.  *
