 Q-Chem 5.0, Q-Chem, Inc., Pleasanton, CA (2017)
 Q-Chem 5.0.1 for Intel X86 EM64T Linux

User input:
--------------------------------------------------------------
$molecule
0  1
O -3.94934 -3.66094 2.70899
C -3.26408 -4.56952 2.26188
C -3.36658 -6.02376 2.66595
C -2.57813 -6.46456 3.91009
C -1.91791 -5.36653 4.71416
O -1.62819 -5.82061 5.96927
C -2.72757 -5.70267 6.8785
C -2.2249 -5.30385 8.26212
O -2.64718 -6.27303 9.23436
C -2.44155 -7.56928 8.89292
C -2.90345 -7.88885 7.49107
C -2.30472 -9.16798 6.88804
C -1.63531 -10.1101 7.86835
O -2.20384 -10.96889 8.52699
O -2.42301 -4.28837 1.22877
O -0.30002 -9.92863 8.03613
O -2.37875 -8.40123 9.78826
C 0.48045 -10.66543 8.90183
C -4.39521 -8.33319 7.85812
C -5.41793 -8.29262 6.75685
C -4.98729 -9.52241 6.00945
C -3.73929 -9.94333 6.80957
O -4.27132 -9.69644 8.08531
H -1.86666 -7.67346 7.1452
H -1.83748 -9.22698 5.8645
H -4.84144 -7.76248 8.70862
H -6.44746 -8.46181 7.14822
H -5.42131 -7.31458 6.27079
H -5.73152 -10.31658 6.26344
H -5.14015 -9.48508 4.93868
H -3.59511 -11.02596 6.57628
O -1.17501 -4.5559 4.18185
C -2.23624 -3.03002 0.69587
C -4.73033 -6.6728 2.76824
C -4.6442 -8.10275 2.23967
C -3.5861 -8.66362 3.16825
C -3.58865 -7.52402 4.26369
O -4.83182 -6.87727 4.13535
H -2.84875 -6.50307 1.79784
H -1.65507 -7.01071 3.60531
H -1.84738 -2.33932 1.4744
H -5.56008 -6.09858 2.30291
H -5.62941 -8.57253 2.46135
H -4.4112 -8.22997 1.16057
H -3.84394 -9.70951 3.41399
H -2.58369 -8.7424 2.69423
H -3.3405 -7.87989 5.19724
H -3.19422 -2.63941 0.29086
H -1.49779 -3.09053 -0.12966
H 1.52912 -10.30939 8.83878
H 0.44988 -11.74069 8.62393
H 0.1208 -10.53619 9.94509
H -1.11385 -5.23821 8.26032
H -2.6023 -4.31386 8.61358
H -3.75628 -5.98146 6.56683
H -3.09216 -4.67121 6.64364
$end

$opt
CONSTRAINT
tors           1           2           3           4     -85.263
tors           3           4           5           6    +161.053
tors           4           5           6           7     -85.263
tors           5           6           7           8    -142.105
tors           6           7           8           9    -123.158
tors           7           8           9          10     +47.368
tors           8           9          10          11     -47.368
tors           9          10          11          12    +161.053
tors          11          12          13          14     +85.263
ENDCONSTRAINT
$end

$rem
JOBTYPE                   OPT
METHOD                    B3LYP
DFT_D                     d3_op
BASIS                     STO-3G
GEOM_OPT_MAX_CYCLES       100
GEOM_OPT_TOL_GRADIENT     300
GEOM_OPT_TOL_DISPLACEMENT 1200
GEOM_OPT_TOL_ENERGY       100
SYMMETRY                  False
THRESH                    12
SCF_CONVERGENCE           8
MAX_SUB_FILE_NUM          128
MEM_STATIC                400
MEM_TOTAL                 4000
$end
--------------------------------------------------------------

   16   -1509.7695898162      3.93E-09 Convergence criterion met
 Total energy in the final basis set = -1509.76958982
   14   -1509.8585163210      9.38E-09 Convergence criterion met
 Total energy in the final basis set = -1509.85851632
   13   -1509.9386273060      9.72E-09 Convergence criterion met
 Total energy in the final basis set = -1509.93862731
   14   -1509.9954010301      2.58E-09 Convergence criterion met
 Total energy in the final basis set = -1509.99540103
   13   -1510.0393324945      8.76E-09 Convergence criterion met
 Total energy in the final basis set = -1510.03933249
   13   -1510.0746108621      7.84E-09 Convergence criterion met
 Total energy in the final basis set = -1510.07461086
   13   -1510.1039049751      6.86E-09 Convergence criterion met
 Total energy in the final basis set = -1510.10390498
   13   -1510.1289895224      6.73E-09 Convergence criterion met
   11   -1510.2266801170      4.71E-09 Convergence criterion met
 Total energy in the final basis set = -1510.22668012
   11   -1510.2267043145      5.90E-09 Convergence criterion met
 Total energy in the final basis set = -1510.22670431
   11   -1510.2267249704      7.93E-09 Convergence criterion met
 Total energy in the final basis set = -1510.22672497
   10   -1510.2267362827      5.86E-09 Convergence criterion met
 Total energy in the final basis set = -1510.22673628
   10   -1510.2267405978      6.38E-09 Convergence criterion met
 Total energy in the final basis set = -1510.22674060
    9   -1510.2267420610      6.08E-09 Convergence criterion met
 Total energy in the final basis set = -1510.22674206

             Standard Nuclear Orientation (Angstroms)
    I     Atom           X                Y                Z
 ----------------------------------------------------------------
    1      O      -5.0763854958     1.0278812084     1.1442567237
    2      C      -5.0328655875     0.5700738075    -0.0180949506
    3      C      -4.2044590257    -0.6650364351    -0.5274437677
    4      C      -2.7043048585    -0.3343692315    -0.9319138157
    5      C      -2.3508434381     1.1966957782    -0.7262499444
    6      O      -0.9435886201     1.5601768353    -0.6471603923
    7      C      -0.4331144022     1.4061010927     0.7371825288
    8      C       0.5671701126     2.6187527114     0.9726592019
    9      O       1.9818860122     2.4499768315     1.3674620026
   10      C       2.8875138796     1.5245788266     0.7321127900
   11      C       2.5117654542     0.0254051631     0.4380075916
   12      C       3.4307473102    -0.6597253726    -0.6578462884
   13      C       4.7761303664     0.1027739150    -0.9630209192
   14      O       5.8602822461     0.0098593472    -0.3508883931
   15      O      -5.8483551759     1.0263257606    -1.1050020210
   16      O       4.5604430662     0.9261809315    -2.1181314106
   17      O       4.0549046273     1.9558019695     0.5768027999
   18      C       5.7728972746     1.7301037015    -2.3903397173
   19      C       2.7117441496    -0.9557550005     1.6809442314
   20      C       1.7671937087    -2.1991138307     1.4564228537
   21      C       2.4941644756    -2.9042786358     0.2509215493
   22      C       3.7893176320    -2.0078313289     0.0990500936
   23      O       4.0588498642    -1.5272601909     1.4764353665
   24      H       1.4773070658    -0.0304580373     0.0762409009
   25      H       2.8785126742    -0.8161709882    -1.6009298383
   26      H       2.6369923262    -0.4708855238     2.6738671714
   27      H       1.7638728853    -2.8381850961     2.3538382324
   28      H       0.7290446641    -1.9131908241     1.2272389974
   29      H       2.7670118728    -3.9430936719     0.4945384115
   30      H       1.8863414349    -2.9059611092    -0.6682989666
   31      H       4.6789655558    -2.5294860654    -0.3029875493
   32      O      -3.2165634869     2.0976703914    -0.7744232864
   33      C      -6.6087070254     2.2271891564    -0.6922503411
   34      C      -3.9720348667    -1.7381551143     0.6224905833
   35      C      -3.6228810156    -3.1161125305    -0.0597094207
   36      C      -2.1690274829    -2.8259544400    -0.5829319998
   37      C      -1.9221169337    -1.3670623718    -0.0253855773
   38      O      -2.6861869470    -1.3326833640     1.2424065240
   39      H      -4.7462349564    -1.1016405301    -1.3847525569
   40      H      -2.5317040859    -0.5476014938    -2.0046361677
   41      H      -5.9277687959     3.0720642357    -0.4621791172
   42      H      -4.7714696061    -1.7703005825     1.3879002402
   43      H      -3.6286122096    -3.9267617487     0.6865184151
   44      H      -4.3251795360    -3.3738125855    -0.8684666220
   45      H      -1.4346381539    -3.5266464035    -0.1547552242
   46      H      -2.0952566390    -2.8660371984    -1.6815373985
   47      H      -0.8587054075    -1.1278929590     0.1427314684
   48      H      -7.2384880505     2.0269549660     0.1987360107
   49      H      -7.2524078034     2.4936679171    -1.5505853511
   50      H       5.5331432388     2.3608254239    -3.2662178381
   51      H       6.6469434988     1.0881536437    -2.6247239547
   52      H       6.0298753975     2.3743652934    -1.5248384216
   53      H       0.5315284637     3.2113132140     0.0279906625
   54      H       0.1610440169     3.2585318410     1.7826550433
   55      H       0.0502572541     0.4268901559     0.9062290619
   56      H      -1.2584239825     1.4832009271     1.4770781843
 ----------------------------------------------------------------

    9   -1510.2267428897      3.95E-09 Convergence criterion met
 Total energy in the final basis set = -1510.22674289
 Final energy is   -1510.22674288967
 **  OPTIMIZATION CONVERGED  **

                    Orbital Energies (a.u.)
 --------------------------------------------------------------

 Alpha MOs
 -- Occupied --
-18.930 -18.927 -18.924 -18.920 -18.919 -18.900 -18.893 -18.887
-18.868 -18.861 -10.126 -10.108 -10.099 -10.089 -10.085 -10.081
-10.075 -10.069 -10.068 -10.061 -10.060 -10.053 -10.052 -10.043
-10.043 -10.036 -10.032 -10.030 -10.028 -10.025  -1.025  -1.008
 -1.005  -0.996  -0.983  -0.974  -0.954  -0.936  -0.932  -0.923
 -0.773  -0.767  -0.733  -0.726  -0.719  -0.713  -0.709  -0.662
 -0.655  -0.621  -0.607  -0.593  -0.559  -0.550  -0.548  -0.541
 -0.529  -0.513  -0.494  -0.481  -0.467  -0.463  -0.461  -0.455
 -0.444  -0.439  -0.432  -0.417  -0.411  -0.409  -0.408  -0.402
 -0.399  -0.395  -0.383  -0.372  -0.365  -0.363  -0.352  -0.351
 -0.349  -0.346  -0.342  -0.339  -0.336  -0.331  -0.327  -0.324
 -0.320  -0.316  -0.313  -0.311  -0.299  -0.288  -0.285  -0.276
 -0.274  -0.256  -0.253  -0.247  -0.245  -0.238  -0.232  -0.179
 -0.174  -0.173  -0.172  -0.166  -0.157  -0.152  -0.150  -0.148
 -0.139

          Ground-State Mulliken Net Atomic Charges

     Atom                 Charge (a.u.)
  ----------------------------------------
      1 O                    -0.219648
      2 C                     0.211826
      3 C                    -0.082390
      4 C                    -0.081051
      5 C                     0.225296
      6 O                    -0.196927
      7 C                    -0.052832
      8 C                    -0.048069
      9 O                    -0.178643
     10 C                     0.212027
     11 C                    -0.084943
     12 C                    -0.078967
     13 C                     0.214705
     14 O                    -0.209372
     15 O                    -0.171007
     16 O                    -0.175852
     17 O                    -0.185910
     18 C                    -0.128815
     19 C                     0.024189
     20 C                    -0.143014
     21 C                    -0.146000
     22 C                     0.026290
     23 O                    -0.181013
     24 H                     0.078661
     25 H                     0.083115
     26 H                     0.086365
     27 H                     0.081225
     28 H                     0.067815
     29 H                     0.079313
     30 H                     0.071516
     31 H                     0.087222
     32 O                    -0.170268
     33 C                    -0.128220
     34 C                     0.025112
     35 C                    -0.143211
     36 C                    -0.144372
     37 C                     0.021232
     38 O                    -0.190988
     39 H                     0.086782
     40 H                     0.088828
     41 H                     0.092445
     42 H                     0.088697
     43 H                     0.079855
     44 H                     0.075988
     45 H                     0.078601
     46 H                     0.074670
     47 H                     0.075634
     48 H                     0.087824
     49 H                     0.088542
     50 H                     0.086499
     51 H                     0.085514
     52 H                     0.094900
     53 H                     0.093688
     54 H                     0.095170
     55 H                     0.079997
     56 H                     0.091967
  ----------------------------------------
  Sum of atomic charges =    -0.000000

                    Cartesian Multipole Moments
 -----------------------------------------------------------------
    Charge (ESU x 10^10)
                -0.0000
    Dipole Moment (Debye)
         X      -3.8128      Y      -2.7992      Z      -2.4331
       Tot       5.3192
    Quadrupole Moments (Debye-Ang)
        XX    -177.9763     XY       0.7425     YY    -156.4413
        XZ      -5.1113     YZ       0.7421     ZZ    -161.5505

 Total job time:  89.45s(wall), 4258.13s(cpu)
        *  Thank you very much for using Q-Chem.  Have a nice day.  *
