 Q-Chem 5.0, Q-Chem, Inc., Pleasanton, CA (2017)
 Q-Chem 5.0.1 for Intel X86 EM64T Linux

User input:
--------------------------------------------------------------
$molecule
0  1
O -5.0763854958 1.0278812084 1.1442567237
C -5.0328655875 0.5700738075 -0.0180949506
C -4.2044590257 -0.6650364351 -0.5274437677
C -2.7043048585 -0.3343692315 -0.9319138157
C -2.3508434381 1.1966957782 -0.7262499444
O -0.9435886201 1.5601768353 -0.6471603923
C -0.4331144022 1.4061010927 0.7371825288
C 0.5671701126 2.6187527114 0.9726592019
O 1.9818860122 2.4499768315 1.3674620026
C 2.8875138796 1.5245788266 0.73211279
C 2.5117654542 0.0254051631 0.4380075916
C 3.4307473102 -0.6597253726 -0.6578462884
C 4.7761303664 0.102773915 -0.9630209192
O 5.8602822461 0.0098593472 -0.3508883931
O -5.8483551759 1.0263257606 -1.105002021
O 4.5604430662 0.9261809315 -2.1181314106
O 4.0549046273 1.9558019695 0.5768027999
C 5.7728972746 1.7301037015 -2.3903397173
C 2.7117441496 -0.9557550005 1.6809442314
C 1.7671937087 -2.1991138307 1.4564228537
C 2.4941644756 -2.9042786358 0.2509215493
C 3.789317632 -2.0078313289 0.0990500936
O 4.0588498642 -1.5272601909 1.4764353665
H 1.4773070658 -0.0304580373 0.0762409009
H 2.8785126742 -0.8161709882 -1.6009298383
H 2.6369923262 -0.4708855238 2.6738671714
H 1.7638728853 -2.8381850961 2.3538382324
H 0.7290446641 -1.9131908241 1.2272389974
H 2.7670118728 -3.9430936719 0.4945384115
H 1.8863414349 -2.9059611092 -0.6682989666
H 4.6789655558 -2.5294860654 -0.3029875493
O -3.2165634869 2.0976703914 -0.7744232864
C -6.6087070254 2.2271891564 -0.6922503411
C -3.9720348667 -1.7381551143 0.6224905833
C -3.6228810156 -3.1161125305 -0.0597094207
C -2.1690274829 -2.82595444 -0.5829319998
C -1.9221169337 -1.3670623718 -0.0253855773
O -2.686186947 -1.332683364 1.242406524
H -4.7462349564 -1.1016405301 -1.3847525569
H -2.5317040859 -0.5476014938 -2.0046361677
H -5.9277687959 3.0720642357 -0.4621791172
H -4.7714696061 -1.7703005825 1.3879002402
H -3.6286122096 -3.9267617487 0.6865184151
H -4.325179536 -3.3738125855 -0.868466622
H -1.4346381539 -3.5266464035 -0.1547552242
H -2.095256639 -2.8660371984 -1.6815373985
H -0.8587054075 -1.127892959 0.1427314684
H -7.2384880505 2.026954966 0.1987360107
H -7.2524078034 2.4936679171 -1.5505853511
H 5.5331432388 2.3608254239 -3.2662178381
H 6.6469434988 1.0881536437 -2.6247239547
H 6.0298753975 2.3743652934 -1.5248384216
H 0.5315284637 3.211313214 0.0279906625
H 0.1610440169 3.258531841 1.7826550433
H 0.0502572541 0.4268901559 0.9062290619
H -1.2584239825 1.4832009271 1.4770781843
$end

$rem
JOBTYPE                   OPT
METHOD                    B3LYP
DFT_D                     d3_op
BASIS                     STO-3G
GEOM_OPT_MAX_CYCLES       100
GEOM_OPT_TOL_GRADIENT     300
GEOM_OPT_TOL_DISPLACEMENT 1200
GEOM_OPT_TOL_ENERGY       100
SYMMETRY                  False
THRESH                    12
SCF_CONVERGENCE           8
MAX_SUB_FILE_NUM          128
MEM_STATIC                400
MEM_TOTAL                 4000
$end
--------------------------------------------------------------

   16   -1510.2269610692      6.02E-09 Convergence criterion met
 Total energy in the final basis set = -1510.22696107
   14   -1510.2311645444      2.59E-09 Convergence criterion met
 Total energy in the final basis set = -1510.23116454
   14   -1510.2339404799      2.81E-09 Convergence criterion met
 Total energy in the final basis set = -1510.23394048
   14   -1510.2391119535      2.46E-09 Convergence criterion met
 Total energy in the final basis set = -1510.23911195
   14   -1510.2451560335      3.78E-09 Convergence criterion met
 Total energy in the final basis set = -1510.24515603
   14   -1510.2135735630      7.65E-09 Convergence criterion met
 Total energy in the final basis set = -1510.21357356
   14   -1510.2509125746      6.37E-09 Convergence criterion met
 Total energy in the final basis set = -1510.25091257
   13   -1510.2530308584      6.65E-09 Convergence criterion met
   11   -1510.2957953742      4.26E-09 Convergence criterion met
 Total energy in the final basis set = -1510.29579537
   11   -1510.2957964940      3.85E-09 Convergence criterion met
 Total energy in the final basis set = -1510.29579649
   11   -1510.2957958418      4.25E-09 Convergence criterion met
 Total energy in the final basis set = -1510.29579584
   10   -1510.2957949615      7.75E-09 Convergence criterion met
 Total energy in the final basis set = -1510.29579496
   11   -1510.2957962847      2.58E-09 Convergence criterion met
 Total energy in the final basis set = -1510.29579628
   11   -1510.2957959312      6.37E-09 Convergence criterion met
 Total energy in the final basis set = -1510.29579593

             Standard Nuclear Orientation (Angstroms)
    I     Atom           X                Y                Z
 ----------------------------------------------------------------
    1      O      -3.6151288232     0.7604715735    -1.6883342809
    2      C      -2.5931407265     0.1299538568    -1.3493741412
    3      C      -2.5239806933    -1.2913868757    -0.6863732204
    4      C      -1.8772710864    -1.2941993194     0.7603244260
    5      C      -1.5157862584     0.1361723274     1.2741988178
    6      O      -0.3334364433     0.0417626209     2.0918782874
    7      C       0.0504766399     1.3778918981     2.6137665435
    8      C       0.9565879401     2.2104980768     1.6203979738
    9      O       2.4091440592     2.0004199522     1.7964212412
   10      C       2.9850678894     0.8491378585     1.1441215084
   11      C       2.0403299597    -0.2139625526     0.4625607366
   12      C       1.6679119038     0.0973808117    -1.0550744111
   13      C       2.3586367636     1.3921239041    -1.5966269024
   14      O       3.4530732361     1.5079195471    -2.1827610411
   15      O      -1.2533092681     0.5977489477    -1.5571111513
   16      O       1.5073887221     2.5239582230    -1.3013907006
   17      O       4.2296343552     0.7467521468     1.2098792920
   18      C       2.1691930803     3.7890994957    -1.6926815724
   19      C       2.8148722738    -1.5891450575     0.2989526901
   20      C       1.7551582913    -2.7293467733     0.0411629721
   21      C       1.3290237012    -2.4154450275    -1.4408642200
   22      C       2.2632839496    -1.1840535599    -1.7721975365
   23      O       3.4993504451    -1.4632446015    -1.0083753890
   24      H       1.1200897256    -0.3235100402     1.0745110468
   25      H       0.5661775067     0.1876721970    -1.1898268515
   26      H       3.5510254019    -1.7929077387     1.1000220677
   27      H       2.2306367279    -3.7198178912     0.1217782425
   28      H       0.9131719693    -2.6857085733     0.7503342636
   29      H       1.5464865578    -3.2607136845    -2.1127459422
   30      H       0.2625198839    -2.1558123600    -1.5324022696
   31      H       2.4961388862    -1.0405372242    -2.8450266728
   32      O      -2.1343609396     1.2020455006     1.0693538379
   33      C      -1.2577981943     1.9783684097    -2.0968047260
   34      C      -3.9725101425    -1.8561232119    -0.3803985574
   35      C      -3.8581754306    -3.4122264236    -0.1469526365
   36      C      -3.1744492495    -3.4540704727     1.2701249811
   37      C      -3.0748295689    -1.9138603028     1.6097855340
   38      O      -4.2720108557    -1.3266472426     0.9718453581
   39      H      -1.9597115265    -1.9621313295    -1.3598222550
   40      H      -0.9760035939    -1.9277633058     0.8093877375
   41      H      -1.9939721539     2.6077102437    -1.5600179672
   42      H      -4.7438946897    -1.5258085689    -1.1029478815
   43      H      -4.8584967738    -3.8729723945    -0.1252224742
   44      H      -3.2562075388    -3.9072228838    -0.9258068425
   45      H      -3.8048832533    -3.9710959158     2.0107683563
   46      H      -2.1842709231    -3.9367296477     1.2499488003
   47      H      -3.0461367303    -1.6692356055     2.6894939704
   48      H      -1.5078199758     1.9795484442    -3.1770362021
   49      H      -0.2225208583     2.3517171013    -1.9281982276
   50      H       1.4400640587     4.5934658661    -1.4844180357
   51      H       2.4337430396     3.7927550801    -2.7694494183
   52      H       3.0907361469     3.9588355478    -1.0996489725
   53      H       0.6455197721     2.0686595265     0.5621861755
   54      H       0.8095183650     3.2820953235     1.8692402734
   55      H       0.6066360835     1.1897253729     3.5548175225
   56      H      -0.8670338261     1.9647261229     2.8302166989
 ----------------------------------------------------------------

   10   -1510.2957954649      5.92E-09 Convergence criterion met
 Total energy in the final basis set = -1510.29579546
 Final energy is   -1510.29579546489
 **  OPTIMIZATION CONVERGED  **

                    Orbital Energies (a.u.)
 --------------------------------------------------------------

 Alpha MOs
 -- Occupied --
-18.960 -18.948 -18.939 -18.925 -18.900 -18.898 -18.890 -18.884
-18.883 -18.869 -10.120 -10.108 -10.106 -10.092 -10.085 -10.075
-10.074 -10.073 -10.067 -10.056 -10.054 -10.053 -10.050 -10.048
-10.030 -10.028 -10.028 -10.021 -10.020 -10.019  -1.034  -1.021
 -1.016  -1.000  -0.981  -0.966  -0.959  -0.947  -0.942  -0.931
 -0.776  -0.759  -0.735  -0.723  -0.722  -0.709  -0.701  -0.670
 -0.661  -0.626  -0.599  -0.595  -0.556  -0.549  -0.547  -0.538
 -0.524  -0.508  -0.496  -0.481  -0.476  -0.468  -0.466  -0.451
 -0.438  -0.432  -0.428  -0.425  -0.420  -0.415  -0.411  -0.407
 -0.405  -0.394  -0.385  -0.374  -0.371  -0.364  -0.361  -0.356
 -0.351  -0.350  -0.347  -0.341  -0.333  -0.328  -0.321  -0.318
 -0.315  -0.312  -0.308  -0.305  -0.297  -0.294  -0.286  -0.284
 -0.279  -0.267  -0.261  -0.254  -0.244  -0.238  -0.229  -0.199
 -0.191  -0.183  -0.176  -0.166  -0.164  -0.158  -0.155  -0.141
 -0.139

          Ground-State Mulliken Net Atomic Charges

     Atom                 Charge (a.u.)
  ----------------------------------------
      1 O                    -0.203718
      2 C                     0.217133
      3 C                    -0.080202
      4 C                    -0.079791
      5 C                     0.213787
      6 O                    -0.171642
      7 C                    -0.056168
      8 C                    -0.058230
      9 O                    -0.176117
     10 C                     0.199253
     11 C                    -0.104412
     12 C                    -0.096819
     13 C                     0.208490
     14 O                    -0.196275
     15 O                    -0.183150
     16 O                    -0.177598
     17 O                    -0.198810
     18 C                    -0.129219
     19 C                     0.025756
     20 C                    -0.143776
     21 C                    -0.144879
     22 C                     0.025863
     23 O                    -0.185452
     24 H                     0.098643
     25 H                     0.103278
     26 H                     0.087472
     27 H                     0.077458
     28 H                     0.066733
     29 H                     0.076596
     30 H                     0.068440
     31 H                     0.084060
     32 O                    -0.203072
     33 C                    -0.146882
     34 C                     0.025260
     35 C                    -0.143698
     36 C                    -0.143747
     37 C                     0.026303
     38 O                    -0.185454
     39 H                     0.083648
     40 H                     0.086154
     41 H                     0.091101
     42 H                     0.092952
     43 H                     0.080533
     44 H                     0.074458
     45 H                     0.080489
     46 H                     0.074579
     47 H                     0.084285
     48 H                     0.079778
     49 H                     0.107468
     50 H                     0.091679
     51 H                     0.093265
     52 H                     0.096132
     53 H                     0.101310
     54 H                     0.090873
     55 H                     0.096800
     56 H                     0.099084
  ----------------------------------------
  Sum of atomic charges =     0.000000

                    Cartesian Multipole Moments
 -----------------------------------------------------------------
    Charge (ESU x 10^10)
                -0.0000
    Dipole Moment (Debye)
         X      -2.9043      Y      -1.2028      Z       0.2171
       Tot       3.1510
    Quadrupole Moments (Debye-Ang)
        XX    -198.6418     XY       7.0280     YY    -145.1506
        XZ      -0.5158     YZ      -2.5496     ZZ    -155.0495

 Total job time:  256.02s(wall), 12207.12s(cpu)
        *  Thank you very much for using Q-Chem.  Have a nice day.  *
