 Q-Chem 5.0, Q-Chem, Inc., Pleasanton, CA (2017)
 Q-Chem 5.0.1 for Intel X86 EM64T Linux

User input:
--------------------------------------------------------------
$molecule
0  1
O -2.9267508619 0.9288537375 1.5719507802
C -2.9343453678 1.1328948691 0.3402850031
C -3.7418743717 0.3807399319 -0.7762928617
C -3.3234631675 -1.1408797088 -1.0020622185
C -2.0806184053 -1.5790744181 -0.1552911173
O -1.0554876413 -2.079745976 -1.0439937637
C 0.2656408666 -1.6432462262 -0.5290227271
C 0.4454489048 -0.0738222879 -0.6047807649
O 1.3396040504 0.2447525991 -1.7374755843
C 2.2443832246 1.3334027304 -1.4755083085
C 3.6144381578 0.9747070268 -0.7350431573
C 3.6892413158 0.453415071 0.7620285705
C 2.6522135427 0.9499087824 1.8226233867
O 1.39998023 1.046558522 1.7775897721
O -2.0639681786 2.0712967731 -0.3163431934
O 3.3933226475 1.3161055768 2.9834882525
O 2.086143007 2.4447799686 -2.0292237208
C 2.4778650201 1.7689165945 4.0597563148
C 4.1264609127 -0.3554653887 -1.4601811822
C 5.6043041533 -0.7133974956 -1.0197460468
C 5.3614441753 -1.4119004938 0.3715030471
C 3.8219077312 -1.1299812019 0.5582974388
O 3.2915351264 -1.3855086063 -0.7957240827
H 4.2900685122 1.8366214882 -0.8770249353
H 4.6494588344 0.8146430541 1.1719032789
H 3.950544471 -0.3696003044 -2.5533003293
H 6.0692224693 -1.3997013137 -1.7447319743
H 6.2332899668 0.1874761472 -0.9355506594
H 5.5443790344 -2.4971811465 0.3122080763
H 5.9764108587 -0.9883184391 1.1813893319
H 3.2993919495 -1.7533697533 1.3098251994
O -1.9492098614 -1.5120844659 1.0858814251
C -1.2271253289 2.7806669288 0.6811546059
C -5.2609642883 0.1988725695 -0.3423606783
C -6.1030824921 -0.2185840885 -1.6128685716
C -5.7001302733 -1.7321363352 -1.7642094494
C -4.6657652569 -1.8859439663 -0.5806755838
O -5.2311051082 -1.0287455732 0.4833828698
H -3.6421875884 0.9564412711 -1.7134770338
H -3.0815602409 -1.3214111173 -2.0637536173
H -0.6114841428 2.0772234338 1.2797100836
H -5.6741284869 1.0447129781 0.2400167113
H -7.1810922189 -0.1034105077 -1.4172329204
H -5.8379136781 0.3811516077 -2.4981024417
H -6.5647802513 -2.3972140652 -1.6086190939
H -5.2505522616 -1.9591130444 -2.7440770544
H -4.5214149029 -2.9187452715 -0.2093844525
H -1.8469923138 3.3901423303 1.3698073881
H -0.5623723416 3.4431823583 0.096605079
H 3.128853864 2.0934885687 4.8920344395
H 1.8165919041 0.9461413424 4.3999812509
H 1.8451087309 2.6150720604 3.7240846712
H -0.5418685775 0.4062963608 -0.8003813881
H 0.8330259578 0.3250164876 0.365193303
H 1.0365756001 -2.1245125788 -1.1640549287
H 0.4011507456 -1.983451273 0.5205107949
$end

$rem
JOBTYPE                   OPT
METHOD                    B3LYP
DFT_D                     d3_op
BASIS                     STO-3G
GEOM_OPT_MAX_CYCLES       100
GEOM_OPT_TOL_GRADIENT     300
GEOM_OPT_TOL_DISPLACEMENT 1200
GEOM_OPT_TOL_ENERGY       100
SYMMETRY                  False
THRESH                    12
SCF_CONVERGENCE           8
MAX_SUB_FILE_NUM          128
MEM_STATIC                400
MEM_TOTAL                 4000
$end
--------------------------------------------------------------

   16   -1510.2479861282      4.96E-09 Convergence criterion met
 Total energy in the final basis set = -1510.24798613
   14   -1510.2503548587      2.47E-09 Convergence criterion met
 Total energy in the final basis set = -1510.25035486
   14   -1510.2541055278      4.59E-09 Convergence criterion met
 Total energy in the final basis set = -1510.25410553
   14   -1510.2551066909      8.19E-09 Convergence criterion met
 Total energy in the final basis set = -1510.25510669
   14   -1510.2579666884      2.14E-09 Convergence criterion met
 Total energy in the final basis set = -1510.25796669
   14   -1510.2593752095      8.75E-09 Convergence criterion met
 Total energy in the final basis set = -1510.25937521
   14   -1510.2617824893      5.54E-09 Convergence criterion met
 Total energy in the final basis set = -1510.26178249
   14   -1510.2629850407      5.96E-09 Convergence criterion met
   11   -1510.2901724060      7.10E-09 Convergence criterion met
 Total energy in the final basis set = -1510.29017241
   11   -1510.2901601771      8.33E-09 Convergence criterion met
 Total energy in the final basis set = -1510.29016018
   10   -1510.2901561355      7.70E-09 Convergence criterion met
 Total energy in the final basis set = -1510.29015614
    9   -1510.2901578613      7.03E-09 Convergence criterion met
 Total energy in the final basis set = -1510.29015786
    9   -1510.2901609135      5.51E-09 Convergence criterion met
 Total energy in the final basis set = -1510.29016091
    9   -1510.2901620768      6.31E-09 Convergence criterion met
 Total energy in the final basis set = -1510.29016208

             Standard Nuclear Orientation (Angstroms)
    I     Atom           X                Y                Z
 ----------------------------------------------------------------
    1      O      -1.6627182257     2.5675052551     0.4059995360
    2      C      -2.2134429913     1.8134623811    -0.4300324266
    3      C      -3.3685082318     0.7847532869    -0.1657919712
    4      C      -2.9061482387    -0.7194989398    -0.3589587049
    5      C      -1.3575789930    -0.8590847202    -0.5621624720
    6      O      -1.1160414131    -1.8410556094    -1.5706237920
    7      C       0.3320252380    -2.1449760914    -1.6710793968
    8      C       1.1463194663    -1.1628919491    -2.6012542610
    9      O       2.5513299564    -1.4679335093    -2.2344931346
   10      C       3.2991705349    -0.2883072143    -1.8892813363
   11      C       3.9447766092    -0.4827324260    -0.4558192402
   12      C       3.1949630037     0.3686818026     0.6593276814
   13      C       2.1483647352     1.4102927063     0.1406593648
   14      O       1.4624708404     1.3389977898    -0.9084050492
   15      O      -1.9322819694     1.7708204442    -1.8230494601
   16      O       2.0894034427     2.4662911313     1.0840301014
   17      O       3.4577312591     0.6979929127    -2.6389735672
   18      C       1.1070481861     3.5048829341     0.6786277629
   19      C       3.6952373165    -1.9484852152     0.0918236678
   20      C       4.5142793984    -2.1568618334     1.4275449495
   21      C       3.6184967164    -1.3884367924     2.4699564960
   22      C       2.5109733339    -0.7884074127     1.5232509629
   23      O       2.2860691089    -1.8842673677     0.5552598317
   24      H       5.0161911158    -0.2145741983    -0.4921685722
   25      H       3.9190999105     0.9232177915     1.2814846795
   26      H       3.8135950129    -2.7446354311    -0.6666414332
   27      H       4.5926344063    -3.2280556658     1.6711537056
   28      H       5.5297886154    -1.7365430957     1.3519987997
   29      H       3.1636105065    -2.0810323417     3.1962589098
   30      H       4.1689941842    -0.6094101896     3.0209126297
   31      H       1.5583061726    -0.5003134060     2.0090642216
   32      O      -0.4653729781    -0.2585785940     0.0770701884
   33      C      -0.8013762105     2.6673896649    -2.1720710786
   34      C      -3.8463054012     0.7726813008     1.3441559480
   35      C      -5.2681348334     0.0911476894     1.3994291727
   36      C      -4.8878503772    -1.4146680641     1.1395925012
   37      C      -3.3119277259    -1.3251774339     1.0554176075
   38      O      -2.9656225677    -0.2302038924     1.9887062686
   39      H      -4.2006114229     1.0213186756    -0.8535003870
   40      H      -3.4271527342    -1.2162290614    -1.1956229772
   41      H       0.1437153450     2.2862619411    -1.7136814416
   42      H      -3.7560165701     1.7499893058     1.8567038801
   43      H      -5.7198945801     0.2256733219     2.3951647254
   44      H      -5.9571991279     0.4946914872     0.6403580696
   45      H      -5.1936024873    -2.0611463774     1.9774435126
   46      H      -5.3280912693    -1.8095777698     0.2099465740
   47      H      -2.7728948492    -2.2535756756     1.3270863491
   48      H      -0.9965016317     3.7056675654    -1.8374758922
   49      H      -0.7314679356     2.6424252245    -3.2744811612
   50      H       1.1329767094     4.2592198358     1.4857550538
   51      H       0.0701594543     3.0957165133     0.5724717747
   52      H       1.4156468959     3.9812902191    -0.2736819993
   53      H       0.9665191591    -1.3547477756    -3.6810832035
   54      H       0.8991031099    -0.1087869547    -2.3521573752
   55      H       0.3895652929    -3.1759099290    -2.0732404142
   56      H       0.8427262706    -2.0961057738    -0.6746111723
 ----------------------------------------------------------------

    9   -1510.2901625084      5.87E-09 Convergence criterion met
 Total energy in the final basis set = -1510.29016251
 Final energy is   -1510.29016250844
 **  OPTIMIZATION CONVERGED  **

                    Orbital Energies (a.u.)
 --------------------------------------------------------------

 Alpha MOs
 -- Occupied --
-18.939 -18.930 -18.926 -18.899 -18.898 -18.885 -18.884 -18.879
-18.876 -18.866 -10.108 -10.101 -10.097 -10.092 -10.063 -10.061
-10.059 -10.056 -10.053 -10.043 -10.041 -10.039 -10.038 -10.035
-10.034 -10.033 -10.022 -10.021 -10.019 -10.018  -1.015  -1.009
 -1.002  -0.996  -0.975  -0.968  -0.940  -0.934  -0.930  -0.925
 -0.764  -0.760  -0.723  -0.721  -0.710  -0.704  -0.684  -0.658
 -0.649  -0.608  -0.593  -0.573  -0.546  -0.542  -0.539  -0.534
 -0.510  -0.506  -0.481  -0.470  -0.460  -0.453  -0.450  -0.445
 -0.434  -0.430  -0.425  -0.419  -0.407  -0.401  -0.398  -0.394
 -0.381  -0.377  -0.370  -0.368  -0.357  -0.350  -0.348  -0.345
 -0.340  -0.336  -0.332  -0.330  -0.329  -0.326  -0.317  -0.310
 -0.307  -0.305  -0.303  -0.298  -0.287  -0.285  -0.280  -0.273
 -0.269  -0.258  -0.253  -0.241  -0.234  -0.232  -0.227  -0.182
 -0.175  -0.172  -0.157  -0.155  -0.151  -0.147  -0.145  -0.144
 -0.140

          Ground-State Mulliken Net Atomic Charges

     Atom                 Charge (a.u.)
  ----------------------------------------
      1 O                    -0.217078
      2 C                     0.221370
      3 C                    -0.079105
      4 C                    -0.078015
      5 C                     0.209572
      6 O                    -0.173676
      7 C                    -0.064622
      8 C                    -0.052971
      9 O                    -0.196159
     10 C                     0.221673
     11 C                    -0.080778
     12 C                    -0.079643
     13 C                     0.226273
     14 O                    -0.214112
     15 O                    -0.172222
     16 O                    -0.165444
     17 O                    -0.197936
     18 C                    -0.147047
     19 C                     0.027698
     20 C                    -0.145279
     21 C                    -0.142151
     22 C                     0.028438
     23 O                    -0.187579
     24 H                     0.082968
     25 H                     0.088230
     26 H                     0.092487
     27 H                     0.078379
     28 H                     0.074314
     29 H                     0.079289
     30 H                     0.075882
     31 H                     0.095568
     32 O                    -0.217281
     33 C                    -0.150285
     34 C                     0.024517
     35 C                    -0.143439
     36 C                    -0.144193
     37 C                     0.025254
     38 O                    -0.187883
     39 H                     0.084633
     40 H                     0.087022
     41 H                     0.117556
     42 H                     0.088478
     43 H                     0.077627
     44 H                     0.073021
     45 H                     0.077617
     46 H                     0.073972
     47 H                     0.082506
     48 H                     0.078079
     49 H                     0.083493
     50 H                     0.085051
     51 H                     0.120198
     52 H                     0.078571
     53 H                     0.077637
     54 H                     0.104060
     55 H                     0.079416
     56 H                     0.116045
  ----------------------------------------
  Sum of atomic charges =    -0.000000

                    Cartesian Multipole Moments
 -----------------------------------------------------------------
    Charge (ESU x 10^10)
                -0.0000
    Dipole Moment (Debye)
         X      -0.5301      Y      -0.6799      Z       0.8778
       Tot       1.2303
    Quadrupole Moments (Debye-Ang)
        XX    -141.8933     XY      -2.9595     YY    -155.5098
        XZ       8.2292     YZ      -1.7133     ZZ    -165.2634

 Total job time:  184.01s(wall), 8782.78s(cpu)
        *  Thank you very much for using Q-Chem.  Have a nice day.  *
