 Q-Chem 5.0, Q-Chem, Inc., Pleasanton, CA (2017)
 Q-Chem 5.0.1 for Intel X86 EM64T Linux

User input:
--------------------------------------------------------------
$molecule
0  1
O 5.5578341343 -0.944111656 1.1320585475
C 5.5683745293 -0.081734479 0.2294977843
C 4.4413357322 0.9539889656 -0.1498145852
C 2.978932136 0.3579150207 -0.2758443369
C 2.9639602423 -1.1641282864 -0.7059245916
O 1.812802115 -1.8281551321 -1.2646669149
C 0.409064804 -1.4497213465 -0.9813172048
C -0.1134217399 0.0479527641 -1.0336058294
O -1.08700498 0.2293007754 0.0660872678
C -2.4444645205 0.2400732721 -0.4564223035
C -3.3023375737 -0.8755699997 0.2384339889
C -4.6242454708 -0.3721366095 0.9693051299
C -4.8570132426 1.1763990534 0.8634138814
O -4.6705419405 2.0223460366 1.7661059068
O 6.6788777358 0.1495017997 -0.6496675527
O -5.3557186719 1.4854052206 -0.4386386702
O -2.7973760382 0.9841222813 -1.3951959902
C -5.5342961004 2.9480405149 -0.5828642479
C -3.920453884 -1.8735148586 -0.8396072511
C -4.3482296049 -3.1961298177 -0.0893885467
C -5.6465186103 -2.713021023 0.6572066899
C -5.7274219351 -1.2062964794 0.1867274144
O -5.2082177738 -1.2458907953 -1.2000949164
H -2.6414503863 -1.4052673016 0.9466824117
H -4.5940581232 -0.6307213802 2.0424498224
H -3.2967277562 -2.0231580943 -1.7424278709
H -4.573386648 -3.9907615266 -0.818585359
H -3.56806109 -3.5597509648 0.5984655945
H -6.536366311 -3.2684243024 0.3210625832
H -5.5661664786 -2.8025592036 1.7523113166
H -6.7399614048 -0.7594910238 0.2059663227
O 4.0142564646 -1.8384369881 -0.8228629848
C 7.7648979712 -0.8092965371 -0.3428043386
C 4.2438955472 1.8526291223 1.1499793073
C 3.2265240561 3.0294951277 0.8736163548
C 1.8483702526 2.2800630548 0.9862729816
C 2.3387312075 0.7833984638 1.1250052407
O 3.4979408362 0.9213322381 2.0328979203
H 4.7446243527 1.5206392724 -1.0463732427
H 2.480718129 0.908479298 -1.0933152747
H 7.4227696965 -1.8580427772 -0.4575639406
H 5.1915413781 2.160145976 1.6328714044
H 3.3253845628 3.8190312723 1.6350100312
H 3.3823163792 3.4779410529 -0.1208769039
H 1.3016837012 2.5767707887 1.8956507445
H 1.1964453038 2.4523096783 0.1158481503
H 1.5954845131 0.0756679811 1.5403945359
H 8.1488161749 -0.6768899091 0.6895412884
H 8.5732077875 -0.5999420691 -1.0673027348
H -5.956870742 3.1028261387 -1.5924475023
H -4.5666948348 3.4839347729 -0.5010672804
H -6.2297876732 3.3537645288 0.1802391802
H 0.7019865875 0.7693531625 -0.8792019505
H -0.5740775644 0.270232335 -2.018750796
H 0.1435618137 -1.8194426825 0.0373091195
H -0.1659865619 -2.0564226512 -1.7110205663
$end

$rem
JOBTYPE                   OPT
METHOD                    B3LYP
DFT_D                     d3_op
BASIS                     STO-3G
GEOM_OPT_MAX_CYCLES       100
GEOM_OPT_TOL_GRADIENT     300
GEOM_OPT_TOL_DISPLACEMENT 1200
GEOM_OPT_TOL_ENERGY       100
SYMMETRY                  False
THRESH                    12
SCF_CONVERGENCE           8
MAX_SUB_FILE_NUM          128
MEM_STATIC                400
MEM_TOTAL                 4000
$end
--------------------------------------------------------------

   16   -1510.2308834325      7.26E-09 Convergence criterion met
 Total energy in the final basis set = -1510.23088343
   14   -1510.2372293951      4.18E-09 Convergence criterion met
 Total energy in the final basis set = -1510.23722940
   14   -1510.2444924399      5.42E-09 Convergence criterion met
 Total energy in the final basis set = -1510.24449244
   14   -1510.2507301058      6.59E-09 Convergence criterion met
 Total energy in the final basis set = -1510.25073011
   14   -1510.2552773602      4.64E-09 Convergence criterion met
 Total energy in the final basis set = -1510.25527736
   14   -1510.2590027236      5.77E-09 Convergence criterion met
 Total energy in the final basis set = -1510.25900272
   15   -1510.2614152546      6.16E-09 Convergence criterion met
 Total energy in the final basis set = -1510.26141525
   15   -1510.2636465840      3.26E-09 Convergence criterion met
   12   -1510.2814029286      4.24E-09 Convergence criterion met
 Total energy in the final basis set = -1510.28140293
   11   -1510.2814107779      5.80E-09 Convergence criterion met
 Total energy in the final basis set = -1510.28141078
   10   -1510.2814140987      7.61E-09 Convergence criterion met
 Total energy in the final basis set = -1510.28141410
   10   -1510.2814129333      3.45E-09 Convergence criterion met
 Total energy in the final basis set = -1510.28141293
   10   -1510.2814109146      5.98E-09 Convergence criterion met
 Total energy in the final basis set = -1510.28141091
   10   -1510.2814135250      3.58E-09 Convergence criterion met
 Total energy in the final basis set = -1510.28141353

             Standard Nuclear Orientation (Angstroms)
    I     Atom           X                Y                Z
 ----------------------------------------------------------------
    1      O      -5.2595929689    -0.5854170269     1.0970742594
    2      C      -4.1266532930    -0.7648521131     0.6034740829
    3      C      -2.7824088420    -0.0553635424     1.0162042685
    4      C      -2.1623456214     0.9000392152    -0.0831025312
    5      C      -3.0868457697     1.0226004931    -1.3463513265
    6      O      -2.5667932929     1.6041922836    -2.5569921907
    7      C      -1.1218025830     1.9149258653    -2.5804984489
    8      C      -0.2046100730     0.6559948498    -2.8239421737
    9      O       0.1578766732     0.0173273576    -1.5357558774
   10      C       1.5839913716    -0.1088600514    -1.3964003133
   11      C       1.8789329993    -0.7030823338     0.0149371625
   12      C       3.0974543304    -1.7210879150     0.0488896070
   13      C       3.7842861973    -1.8936314889    -1.3566623860
   14      O       3.4096419333    -2.6637199627    -2.2682675395
   15      O      -3.7996803043    -1.8028356001    -0.3359393844
   16      O       4.9282254122    -1.0426262616    -1.4394421488
   17      O       2.3972747276     0.2276587717    -2.2841990905
   18      C       5.5088573405    -1.1132331765    -2.7994050179
   19      C       2.4002643112     0.4165952256     1.0278295112
   20      C       2.2160592375    -0.1444977902     2.4917209610
   21      C       3.3794929688    -1.2033095341     2.5511170749
   22      C       4.0331322360    -1.0279861916     1.1225869191
   23      O       3.8637271980     0.4156245717     0.8340157655
   24      H       0.9496823327    -1.1694772100     0.3865796638
   25      H       2.7523449781    -2.7176083245     0.3783369531
   26      H       1.9884414111     1.4286779826     0.8494386309
   27      H       2.3596482538     0.6596513719     3.2308863569
   28      H       1.2211498233    -0.5922459044     2.6456064888
   29      H       4.1071163106    -0.9586919370     3.3410435738
   30      H       3.0117092666    -2.2288224539     2.7149630065
   31      H       5.0999375069    -1.3127964226     1.0505331408
   32      O      -4.2909874947     0.6783208931    -1.3748219115
   33      C      -5.0382168584    -2.4687452085    -0.7941817700
   34      C      -3.0097156596     0.9551514867     2.2143125368
   35      C      -1.6108276808     1.2610545531     2.8777930554
   36      C      -0.9566024359     2.1851959052     1.7860214268
   37      C      -2.1204516221     2.2748258295     0.7207774187
   38      O      -3.3523334882     2.2278539876     1.5368368967
   39      H      -2.0556499098    -0.8435585164     1.2843616295
   40      H      -1.1571556956     0.5522390932    -0.3994717897
   41      H      -5.6965018377    -1.7607306768    -1.3384704666
   42      H      -3.8211094582     0.6597389443     2.9075126520
   43      H      -1.7426433783     1.7958927933     3.8318924515
   44      H      -1.0283647732     0.3444495642     3.0640611932
   45      H      -0.7171635012     3.1829428262     2.1865988958
   46      H      -0.0432669447     1.7471699639     1.3562099201
   47      H      -2.1131008579     3.1865458113     0.0923550671
   48      H      -5.6092656199    -2.9024770146     0.0522308156
   49      H      -4.7189005833    -3.2765412126    -1.4783409048
   50      H       6.4038888013    -0.4647154234    -2.7820728177
   51      H       4.7914900398    -0.7378823022    -3.5575773655
   52      H       5.8016054594    -2.1489680646    -3.0677744119
   53      H      -0.7475099331    -0.0852139553    -3.4485396788
   54      H       0.7385920736     0.9498738221    -3.3354186881
   55      H      -0.7789839718     2.4585974157    -1.6758563207
   56      H      -1.0067447688     2.5920401079    -3.4525253713
 ----------------------------------------------------------------

    9   -1510.2814131931      2.07E-09 Convergence criterion met
 Total energy in the final basis set = -1510.28141319
 Final energy is   -1510.28141319306
 **  OPTIMIZATION CONVERGED  **

                    Orbital Energies (a.u.)
 --------------------------------------------------------------

 Alpha MOs
 -- Occupied --
-18.960 -18.937 -18.936 -18.913 -18.904 -18.900 -18.888 -18.881
-18.872 -18.856 -10.123 -10.102 -10.101 -10.090 -10.086 -10.085
-10.075 -10.069 -10.063 -10.063 -10.056 -10.054 -10.050 -10.046
-10.032 -10.030 -10.029 -10.026 -10.024 -10.022  -1.036  -1.012
 -1.010  -0.992  -0.982  -0.970  -0.961  -0.940  -0.936  -0.919
 -0.776  -0.761  -0.737  -0.726  -0.722  -0.712  -0.705  -0.662
 -0.650  -0.629  -0.600  -0.594  -0.559  -0.548  -0.546  -0.539
 -0.526  -0.513  -0.498  -0.483  -0.476  -0.458  -0.456  -0.449
 -0.445  -0.434  -0.429  -0.419  -0.416  -0.410  -0.408  -0.401
 -0.399  -0.397  -0.387  -0.372  -0.368  -0.366  -0.358  -0.349
 -0.348  -0.347  -0.343  -0.334  -0.331  -0.327  -0.321  -0.319
 -0.314  -0.313  -0.311  -0.309  -0.305  -0.290  -0.288  -0.280
 -0.270  -0.262  -0.254  -0.247  -0.245  -0.239  -0.233  -0.201
 -0.181  -0.176  -0.175  -0.159  -0.157  -0.151  -0.151  -0.144
 -0.136

          Ground-State Mulliken Net Atomic Charges

     Atom                 Charge (a.u.)
  ----------------------------------------
      1 O                    -0.217156
      2 C                     0.216689
      3 C                    -0.080400
      4 C                    -0.102455
      5 C                     0.212692
      6 O                    -0.169906
      7 C                    -0.049241
      8 C                    -0.058952
      9 O                    -0.174243
     10 C                     0.215084
     11 C                    -0.080104
     12 C                    -0.078835
     13 C                     0.210129
     14 O                    -0.217601
     15 O                    -0.179120
     16 O                    -0.163920
     17 O                    -0.202910
     18 C                    -0.126590
     19 C                     0.025598
     20 C                    -0.143081
     21 C                    -0.144523
     22 C                     0.026884
     23 O                    -0.183207
     24 H                     0.088305
     25 H                     0.086265
     26 H                     0.080513
     27 H                     0.080587
     28 H                     0.072959
     29 H                     0.080143
     30 H                     0.075196
     31 H                     0.091161
     32 O                    -0.193812
     33 C                    -0.128774
     34 C                     0.024745
     35 C                    -0.143519
     36 C                    -0.145208
     37 C                     0.021101
     38 O                    -0.186893
     39 H                     0.078121
     40 H                     0.102687
     41 H                     0.092846
     42 H                     0.090599
     43 H                     0.078222
     44 H                     0.069598
     45 H                     0.077157
     46 H                     0.067748
     47 H                     0.077769
     48 H                     0.085499
     49 H                     0.084973
     50 H                     0.090838
     51 H                     0.093464
     52 H                     0.088240
     53 H                     0.097007
     54 H                     0.105243
     55 H                     0.086007
     56 H                     0.096384
  ----------------------------------------
  Sum of atomic charges =     0.000000

                    Cartesian Multipole Moments
 -----------------------------------------------------------------
    Charge (ESU x 10^10)
                -0.0000
    Dipole Moment (Debye)
         X       4.3337      Y      -0.4858      Z       0.9023
       Tot       4.4532
    Quadrupole Moments (Debye-Ang)
        XX    -186.0737     XY       4.8564     YY    -158.3165
        XZ       2.6867     YZ      -5.9019     ZZ    -155.1387

 Total job time:  153.34s(wall), 7317.57s(cpu)
        *  Thank you very much for using Q-Chem.  Have a nice day.  *
