 Q-Chem 5.0, Q-Chem, Inc., Pleasanton, CA (2017)
 Q-Chem 5.0.1 for Intel X86 EM64T Linux

User input:
--------------------------------------------------------------
$molecule
0  1
O -3.94934 -3.66094 2.70899
C -3.26408 -4.56952 2.26188
C -3.36658 -6.02376 2.66595
C -3.41669 -6.33291 4.1712
C -3.53792 -5.14515 5.09996
O -3.15508 -5.50169 6.36161
C -3.37125 -6.88813 6.64501
C -2.8431 -7.74709 5.50073
O -3.721 -8.86225 5.28032
C -3.2738 -10.05651 5.74174
C -4.22926 -10.70686 6.71375
C -4.69425 -12.11631 6.31938
C -3.88578 -12.79951 5.23479
O -4.23368 -12.93551 4.07073
O -2.27597 -4.26757 1.37912
O -2.62298 -13.1875 5.56588
O -2.14857 -10.47814 5.50966
C -1.73147 -13.77701 4.69404
C -3.64472 -10.98291 8.11289
C -4.7801 -11.04949 9.13388
C -5.44931 -12.35141 8.73078
C -4.46996 -12.84423 7.65733
O -3.22594 -12.3259 8.07019
H -5.10445 -10.02502 6.83024
H -5.75139 -12.10489 5.97237
H -2.8808 -10.23735 8.42422
H -4.30387 -11.18838 10.13114
H -5.4511 -10.16454 9.17306
H -5.455 -13.02981 9.61244
H -6.47663 -12.24934 8.31853
H -4.52734 -13.9493 7.54405
O -4.25398 -4.16717 4.97544
C -2.01031 -2.99626 0.91528
C -4.74027 -6.35484 2.06503
C -4.95927 -7.85272 1.95455
C -5.37215 -8.12052 3.35401
C -5.00708 -6.76895 4.02733
O -5.57224 -5.90963 3.08068
H -2.59954 -6.61415 2.09766
H -2.31043 -6.08112 4.06761
H -1.74222 -2.32814 1.76154
H -4.91469 -5.90522 1.05775
H -5.79459 -8.13599 1.27577
H -4.0222 -8.3579 1.6336
H -6.48902 -8.12455 3.37724
H -5.13997 -9.15454 3.65644
H -5.56654 -6.71923 4.9834
H -2.89676 -2.59065 0.38225
H -1.15635 -3.03787 0.20852
H -0.78375 -13.9873 5.23066
H -1.5174 -13.093 3.84512
H -2.14673 -14.73371 4.31136
H -1.86758 -7.8576 4.93784
H -1.99203 -8.10423 6.13139
H -4.46025 -7.0533 6.77499
H -2.95697 -7.13138 7.65384
$end

$opt
CONSTRAINT
tors           1           2           3           4     -47.368
tors           3           4           5           6    -161.053
tors           4           5           6           7     -28.421
tors           5           6           7           8     +47.368
tors           6           7           8           9    -142.105
tors           7           8           9          10    -104.211
tors           8           9          10          11    +123.158
tors           9          10          11          12    +123.158
tors          11          12          13          14    -104.211
ENDCONSTRAINT
$end

$rem
JOBTYPE                   OPT
METHOD                    B3LYP
DFT_D                     d3_op
BASIS                     STO-3G
GEOM_OPT_MAX_CYCLES       100
GEOM_OPT_TOL_GRADIENT     300
GEOM_OPT_TOL_DISPLACEMENT 1200
GEOM_OPT_TOL_ENERGY       100
SYMMETRY                  False
THRESH                    12
SCF_CONVERGENCE           8
MAX_SUB_FILE_NUM          128
MEM_STATIC                400
MEM_TOTAL                 4000
$end
--------------------------------------------------------------

   17   -1509.7595192492      4.47E-09 Convergence criterion met
 Total energy in the final basis set = -1509.75951925
   15   -1509.8610169574      7.17E-09 Convergence criterion met
 Total energy in the final basis set = -1509.86101696
   14   -1509.9373658637      8.63E-09 Convergence criterion met
 Total energy in the final basis set = -1509.93736586
   15   -1509.9905072799      1.16E-09 Convergence criterion met
 Total energy in the final basis set = -1509.99050728
   14   -1510.0325521458      7.81E-09 Convergence criterion met
 Total energy in the final basis set = -1510.03255215
   14   -1510.0670500059      8.02E-09 Convergence criterion met
 Total energy in the final basis set = -1510.06705001
   14   -1510.0962284320      5.30E-09 Convergence criterion met
 Total energy in the final basis set = -1510.09622843
   14   -1510.1215197840      5.19E-09 Convergence criterion met
   12   -1510.2306246359      8.03E-09 Convergence criterion met
 Total energy in the final basis set = -1510.23062464
   12   -1510.2307148400      5.28E-09 Convergence criterion met
 Total energy in the final basis set = -1510.23071484
   11   -1510.2307516152      7.47E-09 Convergence criterion met
 Total energy in the final basis set = -1510.23075162
   11   -1510.2307672282      5.42E-09 Convergence criterion met
 Total energy in the final basis set = -1510.23076723
    9   -1510.2307706855      6.72E-09 Convergence criterion met
 Total energy in the final basis set = -1510.23077069
    9   -1510.2307720761      6.93E-09 Convergence criterion met
 Total energy in the final basis set = -1510.23077208

             Standard Nuclear Orientation (Angstroms)
    I     Atom           X                Y                Z
 ----------------------------------------------------------------
    1      O       5.5578341343    -0.9441116560     1.1320585475
    2      C       5.5683745293    -0.0817344790     0.2294977843
    3      C       4.4413357322     0.9539889656    -0.1498145852
    4      C       2.9789321360     0.3579150207    -0.2758443369
    5      C       2.9639602423    -1.1641282864    -0.7059245916
    6      O       1.8128021150    -1.8281551321    -1.2646669149
    7      C       0.4090648040    -1.4497213465    -0.9813172048
    8      C      -0.1134217399     0.0479527641    -1.0336058294
    9      O      -1.0870049800     0.2293007754     0.0660872678
   10      C      -2.4444645205     0.2400732721    -0.4564223035
   11      C      -3.3023375737    -0.8755699997     0.2384339889
   12      C      -4.6242454708    -0.3721366095     0.9693051299
   13      C      -4.8570132426     1.1763990534     0.8634138814
   14      O      -4.6705419405     2.0223460366     1.7661059068
   15      O       6.6788777358     0.1495017997    -0.6496675527
   16      O      -5.3557186719     1.4854052206    -0.4386386702
   17      O      -2.7973760382     0.9841222813    -1.3951959902
   18      C      -5.5342961004     2.9480405149    -0.5828642479
   19      C      -3.9204538840    -1.8735148586    -0.8396072511
   20      C      -4.3482296049    -3.1961298177    -0.0893885467
   21      C      -5.6465186103    -2.7130210230     0.6572066899
   22      C      -5.7274219351    -1.2062964794     0.1867274144
   23      O      -5.2082177738    -1.2458907953    -1.2000949164
   24      H      -2.6414503863    -1.4052673016     0.9466824117
   25      H      -4.5940581232    -0.6307213802     2.0424498224
   26      H      -3.2967277562    -2.0231580943    -1.7424278709
   27      H      -4.5733866480    -3.9907615266    -0.8185853590
   28      H      -3.5680610900    -3.5597509648     0.5984655945
   29      H      -6.5363663110    -3.2684243024     0.3210625832
   30      H      -5.5661664786    -2.8025592036     1.7523113166
   31      H      -6.7399614048    -0.7594910238     0.2059663227
   32      O       4.0142564646    -1.8384369881    -0.8228629848
   33      C       7.7648979712    -0.8092965371    -0.3428043386
   34      C       4.2438955472     1.8526291223     1.1499793073
   35      C       3.2265240561     3.0294951277     0.8736163548
   36      C       1.8483702526     2.2800630548     0.9862729816
   37      C       2.3387312075     0.7833984638     1.1250052407
   38      O       3.4979408362     0.9213322381     2.0328979203
   39      H       4.7446243527     1.5206392724    -1.0463732427
   40      H       2.4807181290     0.9084792980    -1.0933152747
   41      H       7.4227696965    -1.8580427772    -0.4575639406
   42      H       5.1915413781     2.1601459760     1.6328714044
   43      H       3.3253845628     3.8190312723     1.6350100312
   44      H       3.3823163792     3.4779410529    -0.1208769039
   45      H       1.3016837012     2.5767707887     1.8956507445
   46      H       1.1964453038     2.4523096783     0.1158481503
   47      H       1.5954845131     0.0756679811     1.5403945359
   48      H       8.1488161749    -0.6768899091     0.6895412884
   49      H       8.5732077875    -0.5999420691    -1.0673027348
   50      H      -5.9568707420     3.1028261387    -1.5924475023
   51      H      -4.5666948348     3.4839347729    -0.5010672804
   52      H      -6.2297876732     3.3537645288     0.1802391802
   53      H       0.7019865875     0.7693531625    -0.8792019505
   54      H      -0.5740775644     0.2702323350    -2.0187507960
   55      H       0.1435618137    -1.8194426825     0.0373091195
   56      H      -0.1659865619    -2.0564226512    -1.7110205663
 ----------------------------------------------------------------

    9   -1510.2307725916      3.15E-09 Convergence criterion met
 Total energy in the final basis set = -1510.23077259
 Final energy is   -1510.23077259163
 **  OPTIMIZATION CONVERGED  **

                    Orbital Energies (a.u.)
 --------------------------------------------------------------

 Alpha MOs
 -- Occupied --
-18.936 -18.933 -18.922 -18.921 -18.903 -18.897 -18.892 -18.880
-18.874 -18.861 -10.112 -10.106 -10.099 -10.089 -10.081 -10.080
-10.070 -10.067 -10.066 -10.062 -10.062 -10.054 -10.046 -10.045
-10.043 -10.037 -10.028 -10.026 -10.025 -10.023  -1.019  -1.010
 -1.008  -0.998  -0.977  -0.974  -0.948  -0.935  -0.935  -0.922
 -0.769  -0.765  -0.730  -0.725  -0.718  -0.709  -0.708  -0.660
 -0.656  -0.625  -0.604  -0.592  -0.554  -0.549  -0.544  -0.539
 -0.520  -0.515  -0.489  -0.481  -0.472  -0.461  -0.455  -0.449
 -0.442  -0.438  -0.429  -0.414  -0.411  -0.409  -0.404  -0.402
 -0.395  -0.391  -0.384  -0.371  -0.364  -0.359  -0.355  -0.354
 -0.347  -0.341  -0.339  -0.334  -0.332  -0.328  -0.323  -0.318
 -0.315  -0.312  -0.311  -0.303  -0.300  -0.289  -0.283  -0.278
 -0.272  -0.257  -0.252  -0.246  -0.242  -0.239  -0.237  -0.181
 -0.178  -0.169  -0.166  -0.165  -0.154  -0.152  -0.150  -0.145
 -0.137

          Ground-State Mulliken Net Atomic Charges

     Atom                 Charge (a.u.)
  ----------------------------------------
      1 O                    -0.208946
      2 C                     0.215846
      3 C                    -0.077527
      4 C                    -0.083122
      5 C                     0.208571
      6 O                    -0.171193
      7 C                    -0.054461
      8 C                    -0.058884
      9 O                    -0.190783
     10 C                     0.210980
     11 C                    -0.080531
     12 C                    -0.078948
     13 C                     0.204661
     14 O                    -0.214891
     15 O                    -0.173501
     16 O                    -0.159980
     17 O                    -0.186743
     18 C                    -0.126369
     19 C                     0.026487
     20 C                    -0.143476
     21 C                    -0.144208
     22 C                     0.027336
     23 O                    -0.180948
     24 H                     0.085715
     25 H                     0.085976
     26 H                     0.081152
     27 H                     0.079812
     28 H                     0.074667
     29 H                     0.079494
     30 H                     0.075100
     31 H                     0.086849
     32 O                    -0.190420
     33 C                    -0.128824
     34 C                     0.025153
     35 C                    -0.145992
     36 C                    -0.141976
     37 C                     0.023142
     38 O                    -0.182784
     39 H                     0.086601
     40 H                     0.079131
     41 H                     0.093040
     42 H                     0.083706
     43 H                     0.079780
     44 H                     0.073905
     45 H                     0.082452
     46 H                     0.072563
     47 H                     0.086291
     48 H                     0.085977
     49 H                     0.087155
     50 H                     0.092996
     51 H                     0.089715
     52 H                     0.087824
     53 H                     0.088689
     54 H                     0.089797
     55 H                     0.084731
     56 H                     0.089211
  ----------------------------------------
  Sum of atomic charges =    -0.000000

                    Cartesian Multipole Moments
 -----------------------------------------------------------------
    Charge (ESU x 10^10)
                 0.0000
    Dipole Moment (Debye)
         X      -1.8636      Y       0.9177      Z      -0.7327
       Tot       2.2027
    Quadrupole Moments (Debye-Ang)
        XX    -158.0437     XY      16.5155     YY    -156.2523
        XZ      -7.6871     YZ      -3.9943     ZZ    -168.2961

 Total job time:  97.66s(wall), 4652.09s(cpu)
        *  Thank you very much for using Q-Chem.  Have a nice day.  *
