 Q-Chem 5.0, Q-Chem, Inc., Pleasanton, CA (2017)
 Q-Chem 5.0.1 for Intel X86 EM64T Linux

User input:
--------------------------------------------------------------
$molecule
0  1
O 2.8400655408 0.0557777364 -2.3233352607
C 1.8285335351 0.3328957618 -1.6368427036
C 1.8729845508 0.7912087377 -0.1304460485
C 3.1717350294 0.1373929959 0.4812757308
C 3.4544767578 -1.2587470572 -0.1843273949
O 2.1539032626 -1.8187996817 -0.6025227023
C 1.8000141181 -2.8815599141 0.3747692923
C 0.2554239895 -2.9153431439 0.7133670585
O -0.46334589 -1.7332063546 0.1649172057
C -1.8489837118 -1.8811201514 0.5519842101
C -2.8214933559 -0.9958862431 -0.3135962286
C -3.699928551 -0.0111211771 0.5549133587
C -2.9319687486 0.358018375 1.8754238999
O -1.871322651 -0.1651380092 2.2933990622
O 0.5117327229 0.397503993 -2.1937078757
O -3.6365844307 1.3964590909 2.5534029908
O -2.2420410172 -2.7867738081 1.3227896083
C -2.9191818236 1.7755510911 3.7935733044
C -2.1987727715 0.0159858544 -1.3677009367
C -3.2709105706 0.1805239386 -2.5131436304
C -4.4014723067 0.9658246628 -1.7473786577
C -3.6905969769 1.2729382261 -0.3699878478
O -2.2490224133 1.3446559176 -0.7064979277
H -3.480072022 -1.7165750829 -0.8315501473
H -4.7098012175 -0.4000438912 0.7831708187
H -1.1479090742 -0.180803561 -1.6723695425
H -2.860560936 0.7842551312 -3.3385114298
H -3.6186114585 -0.7833112701 -2.9185160729
H -4.6697993373 1.9018947616 -2.2623022336
H -5.3161902926 0.3657148125 -1.6115867045
H -4.025892232 2.1943726178 0.143695992
O 4.5420966956 -1.8481225886 -0.3124078635
C 0.5660290567 0.0661522443 -3.638487267
C 2.3232852204 2.3123362608 -0.1243331165
C 2.5645124251 2.7983957113 1.3637889302
C 4.0004562369 2.216679394 1.6565640865
C 4.2165764473 1.3267183949 0.3711439959
O 3.6890031035 2.206720422 -0.7001330544
H 0.9329662931 0.5661839762 0.4046903253
H 2.99950059 -0.0876474706 1.5518427722
H 0.8496239755 -0.9942115902 -3.7991139157
H 1.6905694119 2.9794256319 -0.7417004698
H 2.5478905898 3.8977699278 1.4245562417
H 1.8011849623 2.3966427565 2.0502823039
H 4.7558507393 3.0184203488 1.6944867264
H 4.0484468638 1.6368719752 2.5923927642
H 5.2588939846 1.022568594 0.1541867214
H 1.29166797 0.7124208426 -4.1702116174
H -0.4521477102 0.2435810811 -4.0313954105
H -3.505499465 2.5973047473 4.2447756519
H -1.8901549368 2.1272026144 3.5749737483
H -2.8593811494 0.9270649279 4.5057961275
H -0.1973095293 -3.8404399736 0.294953373
H 0.1255695334 -2.9595569016 1.8160184766
H 2.3564115384 -2.7471023069 1.3260997651
H 2.0888784887 -3.8768820223 -0.0329604282
$end

$rem
JOBTYPE                   OPT
METHOD                    B3LYP
DFT_D                     d3_op
BASIS                     STO-3G
GEOM_OPT_MAX_CYCLES       100
GEOM_OPT_TOL_GRADIENT     300
GEOM_OPT_TOL_DISPLACEMENT 1200
GEOM_OPT_TOL_ENERGY       100
SYMMETRY                  False
THRESH                    12
SCF_CONVERGENCE           8
MAX_SUB_FILE_NUM          128
MEM_STATIC                400
MEM_TOTAL                 4000
$end
--------------------------------------------------------------

   16   -1510.2488531995      4.87E-09 Convergence criterion met
 Total energy in the final basis set = -1510.24885320
   15   -1510.2505504207      5.22E-09 Convergence criterion met
 Total energy in the final basis set = -1510.25055042
   15   -1510.2543362145      4.47E-09 Convergence criterion met
 Total energy in the final basis set = -1510.25433621
   14   -1510.2635880596      6.80E-09 Convergence criterion met
 Total energy in the final basis set = -1510.26358806
   14   -1510.2691706843      9.49E-09 Convergence criterion met
 Total energy in the final basis set = -1510.26917068
   13   -1510.2733135580      9.98E-09 Convergence criterion met
 Total energy in the final basis set = -1510.27331356
   14   -1510.2768232370      5.85E-09 Convergence criterion met
 Total energy in the final basis set = -1510.27682324
   13   -1510.2798399442      7.67E-09 Convergence criterion met
   10   -1510.3085764026      8.26E-09 Convergence criterion met
 Total energy in the final basis set = -1510.30857640
    9   -1510.3085770984      5.31E-09 Convergence criterion met
 Total energy in the final basis set = -1510.30857710
    9   -1510.3085767869      5.95E-09 Convergence criterion met
 Total energy in the final basis set = -1510.30857679
    9   -1510.3085768481      3.10E-09 Convergence criterion met
 Total energy in the final basis set = -1510.30857685
    9   -1510.3085775026      4.12E-09 Convergence criterion met
 Total energy in the final basis set = -1510.30857750
    9   -1510.3085778237      6.28E-09 Convergence criterion met
 Total energy in the final basis set = -1510.30857782

             Standard Nuclear Orientation (Angstroms)
    I     Atom           X                Y                Z
 ----------------------------------------------------------------
    1      O      -3.2630151642     1.7292243122    -0.7405925894
    2      C      -2.1162287343     1.3284255805    -1.0295697675
    3      C      -1.6131420333    -0.1464644218    -1.1824544975
    4      C      -1.4915335602    -0.9405219688     0.1860926763
    5      C      -1.7266445650    -0.1018530477     1.4780149410
    6      O      -1.1897673035     1.2173364929     1.2473612020
    7      C      -1.1745863342     2.0203814616     2.4864857162
    8      C       0.2763724751     1.9559636777     3.1022737982
    9      O       1.2790762083     1.9807360354     2.0061586312
   10      C       1.4937659738     0.6528786838     1.5232592722
   11      C       2.4132934206     0.6998222760     0.2628208193
   12      C       2.9185931832    -0.7357690010    -0.1768103518
   13      C       2.1384388799    -1.9108057827     0.5254289551
   14      O       1.0652496480    -2.4380832131     0.1454190832
   15      O      -1.0374175047     2.2328019060    -1.3683270336
   16      O       2.9372940386    -2.4098045151     1.6008025647
   17      O       1.0512030192    -0.3814828310     2.0783304661
   18      C       2.1995267087    -3.4765024918     2.3160660872
   19      C       1.6835339033     1.1921160551    -1.0711163013
   20      C       2.8124596766     1.6982333377    -2.0491568897
   21      C       3.4945845949     0.3356670155    -2.4549654077
   22      C       2.5652784187    -0.7111464958    -1.7198356683
   23      O       1.2391750340    -0.0579143147    -1.7227906427
   24      H       3.2633560566     1.3668385594     0.4938432829
   25      H       3.9979320213    -0.8618001632     0.0182478137
   26      H       0.7895877852     1.8467409572    -0.9434857082
   27      H       2.3635423309     2.1970038401    -2.9232015058
   28      H       3.5106187392     2.3970712904    -1.5617263654
   29      H       3.4690321831     0.1770247823    -3.5445958188
   30      H       4.5396247256     0.2670757462    -2.1121601800
   31      H       2.5054869689    -1.7110809426    -2.1914741194
   32      O      -2.2346800175    -0.4583160764     2.5609617167
   33      C      -1.4881181192     3.6326772099    -1.2180996341
   34      C      -2.6875960258    -1.0440980629    -1.9307232081
   35      C      -1.9904863658    -2.3982394906    -2.3567701692
   36      C      -1.9262610949    -3.1586659466    -0.9802641538
   37      C      -2.5670105333    -2.0853660556    -0.0170729694
   38      O      -3.6146037345    -1.4494027518    -0.8491697538
   39      H      -0.6217775248    -0.1451210418    -1.6809465237
   40      H      -0.4721646987    -1.3896176782     0.2545806175
   41      H      -1.7632985130     3.8621409657    -0.1684831474
   42      H      -3.2418646932    -0.5257585177    -2.7372092033
   43      H      -2.6095200241    -2.9379997972    -3.0911165194
   44      H      -0.9925327735    -2.2261001569    -2.7905305026
   45      H      -2.5314481750    -4.0788942075    -0.9976191521
   46      H      -0.8938863188    -3.4039734966    -0.6823909019
   47      H      -2.9988107539    -2.4763568934     0.9248673707
   48      H      -2.3627542319     3.8523102991    -1.8636526528
   49      H      -0.6346976853     4.2663496631    -1.5222083637
   50      H       2.8890441225    -3.8611175837     3.0897442009
   51      H       1.9060654155    -4.2989269096     1.6324403723
   52      H       1.2855099362    -3.0716622018     2.7969784750
   53      H       0.4751695934     2.8419562521     3.7371595699
   54      H       0.3934066541     1.0238389231     3.6939828042
   55      H      -1.9162248098     1.6196528203     3.2108920330
   56      H      -1.4330968030     3.0597726908     2.2019377843
 ----------------------------------------------------------------

    9   -1510.3085782752      4.76E-09 Convergence criterion met
 Total energy in the final basis set = -1510.30857828
 Final energy is   -1510.30857827516
 **  OPTIMIZATION CONVERGED  **

                    Orbital Energies (a.u.)
 --------------------------------------------------------------

 Alpha MOs
 -- Occupied --
-18.947 -18.934 -18.929 -18.923 -18.896 -18.888 -18.874 -18.870
-18.866 -18.858 -10.112 -10.103 -10.095 -10.085 -10.078 -10.073
-10.066 -10.061 -10.058 -10.053 -10.043 -10.041 -10.040 -10.037
-10.024 -10.021 -10.009 -10.006 -10.001  -9.996  -1.028  -1.010
 -1.006  -0.995  -0.978  -0.950  -0.949  -0.934  -0.933  -0.922
 -0.768  -0.745  -0.727  -0.718  -0.705  -0.697  -0.684  -0.662
 -0.654  -0.620  -0.593  -0.573  -0.549  -0.542  -0.529  -0.520
 -0.514  -0.495  -0.488  -0.470  -0.466  -0.458  -0.446  -0.443
 -0.433  -0.426  -0.418  -0.412  -0.411  -0.408  -0.405  -0.400
 -0.391  -0.382  -0.376  -0.364  -0.357  -0.356  -0.351  -0.344
 -0.339  -0.338  -0.336  -0.332  -0.327  -0.317  -0.312  -0.309
 -0.308  -0.307  -0.296  -0.290  -0.285  -0.281  -0.276  -0.268
 -0.261  -0.259  -0.251  -0.240  -0.239  -0.233  -0.213  -0.193
 -0.175  -0.170  -0.167  -0.163  -0.155  -0.152  -0.150  -0.136
 -0.124

          Ground-State Mulliken Net Atomic Charges

     Atom                 Charge (a.u.)
  ----------------------------------------
      1 O                    -0.218099
      2 C                     0.214056
      3 C                    -0.094897
      4 C                    -0.092415
      5 C                     0.216690
      6 O                    -0.179741
      7 C                    -0.053107
      8 C                    -0.053638
      9 O                    -0.167072
     10 C                     0.218650
     11 C                    -0.080940
     12 C                    -0.080909
     13 C                     0.223173
     14 O                    -0.226014
     15 O                    -0.175183
     16 O                    -0.169132
     17 O                    -0.215283
     18 C                    -0.128252
     19 C                     0.015510
     20 C                    -0.143045
     21 C                    -0.144794
     22 C                     0.027801
     23 O                    -0.191987
     24 H                     0.087345
     25 H                     0.086351
     26 H                     0.113177
     27 H                     0.078849
     28 H                     0.073016
     29 H                     0.078556
     30 H                     0.073666
     31 H                     0.085362
     32 O                    -0.211525
     33 C                    -0.127804
     34 C                     0.024576
     35 C                    -0.143750
     36 C                    -0.146924
     37 C                     0.023475
     38 O                    -0.192569
     39 H                     0.110351
     40 H                     0.112158
     41 H                     0.083892
     42 H                     0.077824
     43 H                     0.071901
     44 H                     0.074469
     45 H                     0.070768
     46 H                     0.085943
     47 H                     0.083582
     48 H                     0.088852
     49 H                     0.085326
     50 H                     0.089098
     51 H                     0.089153
     52 H                     0.095177
     53 H                     0.090866
     54 H                     0.098539
     55 H                     0.102880
     56 H                     0.086048
  ----------------------------------------
  Sum of atomic charges =    -0.000000

                    Cartesian Multipole Moments
 -----------------------------------------------------------------
    Charge (ESU x 10^10)
                 0.0000
    Dipole Moment (Debye)
         X       4.8423      Y       1.6873      Z       0.0905
       Tot       5.1287
    Quadrupole Moments (Debye-Ang)
        XX    -168.5659     XY      -2.7254     YY    -148.4663
        XZ      -0.7435     YZ       2.4195     ZZ    -152.8378

 Total job time:  272.59s(wall), 13019.24s(cpu)
        *  Thank you very much for using Q-Chem.  Have a nice day.  *
