 Q-Chem 5.0, Q-Chem, Inc., Pleasanton, CA (2017)
 Q-Chem 5.0.1 for Intel X86 EM64T Linux

User input:
--------------------------------------------------------------
$molecule
0  1
O -3.94934 -3.66094 2.70899
C -3.26408 -4.56952 2.26188
C -3.36658 -6.02376 2.66595
C -4.25419 -6.35572 3.87665
C -5.08044 -5.22016 4.4387
O -4.25913 -4.27103 4.97724
C -4.93101 -3.39796 5.89135
C -4.12285 -2.11947 6.08741
O -4.53712 -1.45872 7.29351
C -5.60973 -0.63812 7.16992
C -6.27498 -0.33626 8.49165
C -5.42545 0.48701 9.47083
C -4.21594 1.17945 8.87559
O -3.8122 2.29122 9.18466
O -2.39979 -4.29746 1.24921
O -3.30076 0.39211 8.25569
O -6.04775 -0.24729 6.09453
C -2.08748 0.82076 7.75533
C -7.53042 0.55949 8.39507
C -8.42598 0.31583 9.60841
C -7.59445 0.94912 10.70472
C -6.45928 1.55681 9.87156
O -7.0609 1.86292 8.63707
H -6.57863 -1.31874 8.91958
H -5.05698 -0.12751 10.32127
H -8.11415 0.41327 7.46041
H -9.34264 0.9306 9.45803
H -8.72237 -0.73995 9.78816
H -8.20377 1.74187 11.19276
H -7.1991 0.24476 11.46852
H -6.00297 2.41154 10.41714
O -6.30607 -5.19409 4.47394
C -2.2004 -3.04197 0.71447
C -4.02796 -6.88232 1.57523
C -3.61327 -8.34321 1.74089
C -4.39888 -8.7205 2.97925
C -5.16775 -7.41885 3.23087
O -5.38681 -6.90444 1.93907
H -2.32135 -6.35923 2.8524
H -3.67367 -6.78125 4.72576
H -1.82961 -2.34697 1.49803
H -3.80189 -6.53261 0.54403
H -4.02553 -8.90855 0.87459
H -2.51663 -8.51199 1.80318
H -5.10797 -9.53475 2.70943
H -3.78824 -9.02577 3.85635
H -6.07655 -7.63013 3.83601
H -3.14886 -2.6534 0.28569
H -1.44326 -3.10676 -0.09363
H -1.5595 -0.04072 7.29743
H -1.45746 1.23274 8.57225
H -2.24965 1.59571 6.97599
H -3.0766 -2.44351 6.27363
H -4.09148 -1.46087 5.19064
H -5.03088 -3.93356 6.86153
H -5.93939 -3.08115 5.54035
$end

$opt
CONSTRAINT
tors           1           2           3           4      -9.474
tors           3           4           5           6     -66.316
tors           4           5           6           7    -161.053
tors           5           6           7           8    -161.053
tors           6           7           8           9    -161.053
tors           7           8           9          10     -85.263
tors           8           9          10          11    +161.053
tors           9          10          11          12     +66.316
tors          11          12          13          14    +142.105
ENDCONSTRAINT
$end

$rem
JOBTYPE                   OPT
METHOD                    B3LYP
DFT_D                     d3_op
BASIS                     STO-3G
GEOM_OPT_MAX_CYCLES       100
GEOM_OPT_TOL_GRADIENT     300
GEOM_OPT_TOL_DISPLACEMENT 1200
GEOM_OPT_TOL_ENERGY       100
SYMMETRY                  False
THRESH                    12
SCF_CONVERGENCE           8
MAX_SUB_FILE_NUM          128
MEM_STATIC                400
MEM_TOTAL                 4000
$end
--------------------------------------------------------------

   15   -1510.1386296657      7.28E-09 Convergence criterion met
 Total energy in the final basis set = -1510.13862967
   14   -1510.2092055741      4.93E-09 Convergence criterion met
 Total energy in the final basis set = -1510.20920557
   14   -1510.2466326175      7.38E-09 Convergence criterion met
 Total energy in the final basis set = -1510.24663262
   14   -1510.2627654708      7.15E-09 Convergence criterion met
 Total energy in the final basis set = -1510.26276547
   14   -1510.2687685544      4.75E-09 Convergence criterion met
 Total energy in the final basis set = -1510.26876855
   13   -1510.2709652068      4.82E-09 Convergence criterion met
 Total energy in the final basis set = -1510.27096521
   13   -1510.2723203658      4.20E-09 Convergence criterion met
 Total energy in the final basis set = -1510.27232037
   13   -1510.2730553486      5.98E-09 Convergence criterion met
   11   -1510.2749129471      5.44E-09 Convergence criterion met
 Total energy in the final basis set = -1510.27491295
   11   -1510.2749512996      3.92E-09 Convergence criterion met
 Total energy in the final basis set = -1510.27495130
   11   -1510.2749708830      4.88E-09 Convergence criterion met
 Total energy in the final basis set = -1510.27497088
   11   -1510.2749803756      3.56E-09 Convergence criterion met
 Total energy in the final basis set = -1510.27498038
   11   -1510.2749839496      2.65E-09 Convergence criterion met
 Total energy in the final basis set = -1510.27498395
    9   -1510.2749860218      6.82E-09 Convergence criterion met
 Total energy in the final basis set = -1510.27498602

             Standard Nuclear Orientation (Angstroms)
    I     Atom           X                Y                Z
 ----------------------------------------------------------------
    1      O      -3.1931213433     0.8028578266     1.3967741106
    2      C      -4.1215411679     1.2195773148     0.6676693528
    3      C      -4.8658884968     0.4151792176    -0.4508381770
    4      C      -4.1575846507    -0.9655300687    -0.7522487217
    5      C      -2.7302721308    -1.1394309797    -0.1099087013
    6      O      -1.8422115327    -0.1930132675    -0.7359559417
    7      C      -0.4340224566    -0.5985729754    -0.5221659339
    8      C       0.4608213091     0.6674150629    -0.7743238544
    9      O       1.8621890444     0.2621486821    -1.0279373623
   10      C       2.5670331543     0.0964038859     0.2168186118
   11      C       3.8391024229    -0.7768354876    -0.0631937513
   12      C       4.9744485441    -0.1611679757    -0.9796938781
   13      C       5.0709950302     1.4151480421    -0.9928595863
   14      O       6.1298063333     2.0792520931    -1.0316077871
   15      O      -4.6966810249     2.5230836380     0.7631719806
   16      O       3.7736329823     2.0054299648    -0.9096088096
   17      O       2.1574122521     0.5046998928     1.3239229084
   18      C       3.8822058472     3.4803286971    -0.8353227188
   19      C       4.6682591297    -1.2000630914     1.2233070708
   20      C       5.2843748239    -2.6185199955     0.9177286038
   21      C       6.3373187853    -2.2397550350    -0.1920095586
   22      C       6.2521893319    -0.6613436747    -0.1829265359
   23      O       5.8624879184    -0.3229057621     1.2097299242
   24      H       3.4563481960    -1.6851630000    -0.5652767410
   25      H       4.9164085338    -0.5395348614    -2.0169706617
   26      H       4.1161391073    -1.0976061500     2.1778921416
   27      H       5.7769974941    -3.0246728706     1.8158059643
   28      H       4.5304765935    -3.3415775560     0.5668655452
   29      H       7.3514726830    -2.5751391786     0.0763618704
   30      H       6.0788676138    -2.6570836575    -1.1787377996
   31      H       7.1799797342    -0.1262797023    -0.4646221134
   32      O      -2.3672311765    -2.0399894255     0.6752679138
   33      C      -4.0432056346     3.2851287936     1.8537632183
   34      C      -6.2619237058    -0.0968360801     0.1150604346
   35      C      -7.0927416908    -0.7407187920    -1.0652560709
   36      C      -6.3821318022    -2.1374330994    -1.2179291511
   37      C      -5.2148759315    -1.9923536007    -0.1660984608
   38      O      -5.8579521596    -1.2535874121     0.9461506020
   39      H      -4.9834329285     1.0461310813    -1.3495780600
   40      H      -4.0377696183    -1.0997338305    -1.8429934448
   41      H      -2.9542832957     3.3975803911     1.6757898626
   42      H      -6.8060254936     0.6523676880     0.7226477984
   43      H      -8.1503245672    -0.8514390473    -0.7782246589
   44      H      -7.0374221023    -0.1349202983    -1.9839762958
   45      H      -7.0546994631    -2.9631537889    -0.9352198304
   46      H      -6.0090390371    -2.3190532975    -2.2384685885
   47      H      -4.7686897085    -2.9363499337     0.2030740786
   48      H      -4.1903556419     2.7941713189     2.8374067542
   49      H      -4.5236952366     4.2806703867     1.8600858028
   50      H       2.8449713362     3.8548732485    -0.7575408037
   51      H       4.3631183080     3.8999519072    -1.7423797246
   52      H       4.4624219831     3.8008876638     0.0537974357
   53      H       0.1152827455     1.1878038319    -1.6904977099
   54      H       0.3973931537     1.3573196767     0.0932646290
   55      H      -0.1551614811    -1.3986239754    -1.2445150348
   56      H      -0.2864567073    -0.9918176013     0.5064092686
 ----------------------------------------------------------------

    9   -1510.2749869974      3.89E-09 Convergence criterion met
 Total energy in the final basis set = -1510.27498700
 Final energy is   -1510.27498699737
 **  OPTIMIZATION CONVERGED  **

                    Orbital Energies (a.u.)
 --------------------------------------------------------------

 Alpha MOs
 -- Occupied --
-18.941 -18.939 -18.923 -18.918 -18.887 -18.884 -18.882 -18.874
-18.872 -18.866 -10.104 -10.099 -10.098 -10.094 -10.068 -10.066
-10.065 -10.063 -10.062 -10.057 -10.056 -10.055 -10.040 -10.039
-10.034 -10.034 -10.021 -10.020 -10.019 -10.017  -1.017  -1.014
 -1.004  -0.999  -0.970  -0.967  -0.941  -0.936  -0.934  -0.927
 -0.763  -0.761  -0.725  -0.722  -0.710  -0.703  -0.692  -0.666
 -0.663  -0.613  -0.597  -0.580  -0.545  -0.541  -0.538  -0.535
 -0.511  -0.507  -0.481  -0.478  -0.464  -0.458  -0.454  -0.447
 -0.434  -0.430  -0.419  -0.415  -0.414  -0.411  -0.407  -0.395
 -0.389  -0.381  -0.377  -0.370  -0.361  -0.359  -0.353  -0.343
 -0.342  -0.339  -0.334  -0.331  -0.327  -0.324  -0.323  -0.312
 -0.309  -0.305  -0.304  -0.300  -0.296  -0.290  -0.282  -0.273
 -0.269  -0.257  -0.247  -0.243  -0.242  -0.234  -0.231  -0.184
 -0.179  -0.169  -0.165  -0.158  -0.157  -0.147  -0.146  -0.144
 -0.141

          Ground-State Mulliken Net Atomic Charges

     Atom                 Charge (a.u.)
  ----------------------------------------
      1 O                    -0.203504
      2 C                     0.215397
      3 C                    -0.077450
      4 C                    -0.080631
      5 C                     0.217777
      6 O                    -0.182307
      7 C                    -0.052353
      8 C                    -0.050046
      9 O                    -0.173378
     10 C                     0.217171
     11 C                    -0.081324
     12 C                    -0.075339
     13 C                     0.212211
     14 O                    -0.213067
     15 O                    -0.169221
     16 O                    -0.165643
     17 O                    -0.213823
     18 C                    -0.126423
     19 C                     0.022252
     20 C                    -0.141644
     21 C                    -0.145880
     22 C                     0.023325
     23 O                    -0.191677
     24 H                     0.082382
     25 H                     0.085919
     26 H                     0.090068
     27 H                     0.078158
     28 H                     0.072738
     29 H                     0.078444
     30 H                     0.072683
     31 H                     0.090310
     32 O                    -0.214342
     33 C                    -0.128273
     34 C                     0.024862
     35 C                    -0.144352
     36 C                    -0.143268
     37 C                     0.024081
     38 O                    -0.189969
     39 H                     0.087017
     40 H                     0.082496
     41 H                     0.091173
     42 H                     0.084424
     43 H                     0.078311
     44 H                     0.073492
     45 H                     0.078210
     46 H                     0.072885
     47 H                     0.091044
     48 H                     0.091804
     49 H                     0.091570
     50 H                     0.091426
     51 H                     0.089810
     52 H                     0.092790
     53 H                     0.088553
     54 H                     0.096385
     55 H                     0.078227
     56 H                     0.096521
  ----------------------------------------
  Sum of atomic charges =    -0.000000

                    Cartesian Multipole Moments
 -----------------------------------------------------------------
    Charge (ESU x 10^10)
                 0.0000
    Dipole Moment (Debye)
         X      -1.9359      Y       0.4684      Z      -3.3345
       Tot       3.8841
    Quadrupole Moments (Debye-Ang)
        XX    -159.5053     XY     -14.2392     YY    -149.7030
        XZ       2.3110     YZ       6.1082     ZZ    -161.4803

 Total job time:  54.50s(wall), 2588.96s(cpu)
        *  Thank you very much for using Q-Chem.  Have a nice day.  *
