 Q-Chem 5.0, Q-Chem, Inc., Pleasanton, CA (2017)
 Q-Chem 5.0.1 for Intel X86 EM64T Linux

User input:
--------------------------------------------------------------
$molecule
0  1
O -3.1931213433 0.8028578266 1.3967741106
C -4.1215411679 1.2195773148 0.6676693528
C -4.8658884968 0.4151792176 -0.450838177
C -4.1575846507 -0.9655300687 -0.7522487217
C -2.7302721308 -1.1394309797 -0.1099087013
O -1.8422115327 -0.1930132675 -0.7359559417
C -0.4340224566 -0.5985729754 -0.5221659339
C 0.4608213091 0.6674150629 -0.7743238544
O 1.8621890444 0.2621486821 -1.0279373623
C 2.5670331543 0.0964038859 0.2168186118
C 3.8391024229 -0.7768354876 -0.0631937513
C 4.9744485441 -0.1611679757 -0.9796938781
C 5.0709950302 1.4151480421 -0.9928595863
O 6.1298063333 2.0792520931 -1.0316077871
O -4.6966810249 2.523083638 0.7631719806
O 3.7736329823 2.0054299648 -0.9096088096
O 2.1574122521 0.5046998928 1.3239229084
C 3.8822058472 3.4803286971 -0.8353227188
C 4.6682591297 -1.2000630914 1.2233070708
C 5.2843748239 -2.6185199955 0.9177286038
C 6.3373187853 -2.239755035 -0.1920095586
C 6.2521893319 -0.6613436747 -0.1829265359
O 5.8624879184 -0.3229057621 1.2097299242
H 3.456348196 -1.685163 -0.565276741
H 4.9164085338 -0.5395348614 -2.0169706617
H 4.1161391073 -1.09760615 2.1778921416
H 5.7769974941 -3.0246728706 1.8158059643
H 4.5304765935 -3.341577556 0.5668655452
H 7.351472683 -2.5751391786 0.0763618704
H 6.0788676138 -2.6570836575 -1.1787377996
H 7.1799797342 -0.1262797023 -0.4646221134
O -2.3672311765 -2.0399894255 0.6752679138
C -4.0432056346 3.2851287936 1.8537632183
C -6.2619237058 -0.0968360801 0.1150604346
C -7.0927416908 -0.740718792 -1.0652560709
C -6.3821318022 -2.1374330994 -1.2179291511
C -5.2148759315 -1.9923536007 -0.1660984608
O -5.8579521596 -1.2535874121 0.946150602
H -4.9834329285 1.0461310813 -1.34957806
H -4.0377696183 -1.0997338305 -1.8429934448
H -2.9542832957 3.3975803911 1.6757898626
H -6.8060254936 0.652367688 0.7226477984
H -8.1503245672 -0.8514390473 -0.7782246589
H -7.0374221023 -0.1349202983 -1.9839762958
H -7.0546994631 -2.9631537889 -0.9352198304
H -6.0090390371 -2.3190532975 -2.2384685885
H -4.7686897085 -2.9363499337 0.2030740786
H -4.1903556419 2.7941713189 2.8374067542
H -4.5236952366 4.2806703867 1.8600858028
H 2.8449713362 3.8548732485 -0.7575408037
H 4.363118308 3.8999519072 -1.7423797246
H 4.4624219831 3.8008876638 0.0537974357
H 0.1152827455 1.1878038319 -1.6904977099
H 0.3973931537 1.3573196767 0.093264629
H -0.1551614811 -1.3986239754 -1.2445150348
H -0.2864567073 -0.9918176013 0.5064092686
$end

$rem
JOBTYPE                   OPT
METHOD                    B3LYP
DFT_D                     d3_op
BASIS                     STO-3G
GEOM_OPT_MAX_CYCLES       100
GEOM_OPT_TOL_GRADIENT     300
GEOM_OPT_TOL_DISPLACEMENT 1200
GEOM_OPT_TOL_ENERGY       100
SYMMETRY                  False
THRESH                    12
SCF_CONVERGENCE           8
MAX_SUB_FILE_NUM          128
MEM_STATIC                400
MEM_TOTAL                 4000
$end
--------------------------------------------------------------

   16   -1510.2750745830      4.62E-09 Convergence criterion met
 Total energy in the final basis set = -1510.27507458
   14   -1510.2780164190      4.76E-09 Convergence criterion met
 Total energy in the final basis set = -1510.27801642
   14   -1510.2802950753      6.93E-09 Convergence criterion met
 Total energy in the final basis set = -1510.28029508
   14   -1510.2819100316      4.34E-09 Convergence criterion met
 Total energy in the final basis set = -1510.28191003
   14   -1510.2830705358      8.14E-09 Convergence criterion met
 Total energy in the final basis set = -1510.28307054
   13   -1510.2836039243      4.22E-09 Convergence criterion met
 Total energy in the final basis set = -1510.28360392
   13   -1510.2841240439      5.21E-09 Convergence criterion met
 Total energy in the final basis set = -1510.28412404
   13   -1510.2847174034      6.18E-09 Convergence criterion met
   12   -1510.3077518083      7.59E-09 Convergence criterion met
 Total energy in the final basis set = -1510.30775181
   12   -1510.3078529351      4.97E-09 Convergence criterion met
 Total energy in the final basis set = -1510.30785294
   12   -1510.3078787594      3.09E-09 Convergence criterion met
 Total energy in the final basis set = -1510.30787876
   12   -1510.3078996111      2.34E-09 Convergence criterion met
 Total energy in the final basis set = -1510.30789961
   11   -1510.3079146695      3.46E-09 Convergence criterion met
 Total energy in the final basis set = -1510.30791467
    9   -1510.3079170118      9.14E-09 Convergence criterion met
 Total energy in the final basis set = -1510.30791701

             Standard Nuclear Orientation (Angstroms)
    I     Atom           X                Y                Z
 ----------------------------------------------------------------
    1      O      -0.8716565712     0.4585110918    -0.9732997853
    2      C      -1.7717404945     1.0210776034    -0.3007031922
    3      C      -3.1600859828     0.3806581858     0.0241799733
    4      C      -3.2252225464    -1.1066877684    -0.5069797574
    5      C      -1.9269677112    -1.5909234592    -1.2688872080
    6      O      -2.1046906513    -1.2988400395    -2.6678384958
    7      C      -0.9686533783    -1.8053416877    -3.4688387319
    8      C       0.3078191846    -0.8867994746    -3.4160511979
    9      O       1.1143813846    -1.2941182836    -2.2433050154
   10      C       1.7245532097    -0.1762462496    -1.6039153474
   11      C       2.3436328073    -0.6990505834    -0.2642150959
   12      C       3.2186416396     0.3791962607     0.4932852019
   13      C       3.3566831448     1.7465431324    -0.2739827834
   14      O       2.8093572039     2.8337676090     0.0080335384
   15      O      -1.6378616238     2.2921427809     0.2978539445
   16      O       4.3409969647     1.5731233028    -1.3042694216
   17      O       1.7279028144     0.9953123653    -2.0450607594
   18      C       4.4218893353     2.8000354557    -2.1263972610
   19      C       1.1896048056    -0.9671262650     0.7957546641
   20      C       1.7829169334    -1.8034208635     1.9925763480
   21      C       2.6413719083    -0.7177488509     2.7441069341
   22      C       2.3944083424     0.5463898985     1.8353506701
   23      O       0.9869737300     0.3760275090     1.3979453553
   24      H       2.9134419249    -1.6209134812    -0.4777064052
   25      H       4.2349647753    -0.0103387204     0.6816229638
   26      H       0.2532517199    -1.3743146556     0.3459651431
   27      H       0.9682670288    -2.1845562018     2.6285334699
   28      H       2.3854980037    -2.6559279972     1.6411259548
   29      H       2.2637384470    -0.5390537163     3.7634021240
   30      H       3.7090251674    -0.9825220807     2.8039177845
   31      H       2.5238516293     1.5300346815     2.3269552377
   32      O      -1.0162009937    -2.3134885307    -0.8019111947
   33      C      -0.2168377327     2.7279311739     0.1754290691
   34      C      -3.3197258278     0.1525895636     1.5883451705
   35      C      -4.8213096391    -0.2307060012     1.8912903740
   36      C      -4.8666103203    -1.7168739004     1.3747455269
   37      C      -3.3873370465    -1.9024942599     0.8549532052
   38      O      -2.5805450055    -1.1102756277     1.8137399553
   39      H      -3.9696965162     1.0121083828    -0.3840855961
   40      H      -4.0899913466    -1.2505844545    -1.1782685277
   41      H       0.0508676094     2.9318211578    -0.8805376071
   42      H      -2.9000438901     0.9702699117     2.2059893364
   43      H      -5.0225087141    -0.1715493700     2.9727808410
   44      H      -5.5309869346     0.4263934882     1.3636160590
   45      H      -5.0788701143    -2.4227493583     2.1934646728
   46      H      -5.6102428387    -1.8684545460     0.5759938168
   47      H      -3.0185890949    -2.9456546188     0.8149541154
   48      H       0.4390427827     1.9169513395     0.5812695046
   49      H      -0.1311064533     3.6541866420     0.7702173261
   50      H       5.2352823176     2.6303753680    -2.8557146683
   51      H       4.6524383277     3.6938367175    -1.5112808670
   52      H       3.4690419229     2.9774566486    -2.6666722657
   53      H       0.9042140439    -1.0370009644    -4.3437835594
   54      H       0.0305840817     0.1862703109    -3.3397426727
   55      H      -1.3442306383    -1.8435816312    -4.5118481831
   56      H      -0.6801172152    -2.8285208427    -3.1420739514
 ----------------------------------------------------------------

    9   -1510.3079167732      4.85E-09 Convergence criterion met
 Total energy in the final basis set = -1510.30791677
 Final energy is   -1510.30791677316
 **  OPTIMIZATION CONVERGED  **

                    Orbital Energies (a.u.)
 --------------------------------------------------------------

 Alpha MOs
 -- Occupied --
-18.934 -18.927 -18.919 -18.916 -18.889 -18.884 -18.876 -18.870
-18.857 -18.856 -10.100 -10.095 -10.093 -10.087 -10.068 -10.065
-10.057 -10.055 -10.054 -10.051 -10.043 -10.036 -10.030 -10.030
-10.029 -10.027 -10.018 -10.017 -10.014 -10.010  -1.014  -1.006
 -0.996  -0.993  -0.967  -0.967  -0.934  -0.931  -0.924  -0.921
 -0.760  -0.756  -0.722  -0.717  -0.708  -0.701  -0.690  -0.650
 -0.644  -0.611  -0.590  -0.573  -0.541  -0.538  -0.533  -0.528
 -0.507  -0.502  -0.478  -0.466  -0.456  -0.451  -0.446  -0.444
 -0.429  -0.428  -0.423  -0.408  -0.402  -0.399  -0.397  -0.391
 -0.387  -0.372  -0.367  -0.360  -0.355  -0.350  -0.343  -0.342
 -0.339  -0.335  -0.334  -0.327  -0.324  -0.321  -0.315  -0.309
 -0.304  -0.300  -0.296  -0.294  -0.288  -0.275  -0.267  -0.266
 -0.263  -0.251  -0.244  -0.240  -0.238  -0.232  -0.226  -0.181
 -0.173  -0.162  -0.157  -0.152  -0.149  -0.142  -0.142  -0.138
 -0.137

          Ground-State Mulliken Net Atomic Charges

     Atom                 Charge (a.u.)
  ----------------------------------------
      1 O                    -0.214659
      2 C                     0.220973
      3 C                    -0.079006
      4 C                    -0.082289
      5 C                     0.221232
      6 O                    -0.178205
      7 C                    -0.047706
      8 C                    -0.048792
      9 O                    -0.168369
     10 C                     0.224862
     11 C                    -0.078076
     12 C                    -0.082889
     13 C                     0.215536
     14 O                    -0.221682
     15 O                    -0.167680
     16 O                    -0.175561
     17 O                    -0.215188
     18 C                    -0.128429
     19 C                     0.019216
     20 C                    -0.143124
     21 C                    -0.143889
     22 C                     0.025029
     23 O                    -0.191763
     24 H                     0.086940
     25 H                     0.083599
     26 H                     0.113183
     27 H                     0.081495
     28 H                     0.073596
     29 H                     0.077344
     30 H                     0.072366
     31 H                     0.086601
     32 O                    -0.227940
     33 C                    -0.143256
     34 C                     0.024928
     35 C                    -0.143906
     36 C                    -0.144224
     37 C                     0.024196
     38 O                    -0.190086
     39 H                     0.086340
     40 H                     0.083245
     41 H                     0.086498
     42 H                     0.089428
     43 H                     0.077874
     44 H                     0.073388
     45 H                     0.077359
     46 H                     0.072854
     47 H                     0.086340
     48 H                     0.120058
     49 H                     0.084013
     50 H                     0.085496
     51 H                     0.086235
     52 H                     0.091745
     53 H                     0.080860
     54 H                     0.103461
     55 H                     0.085947
     56 H                     0.094480
  ----------------------------------------
  Sum of atomic charges =     0.000000

                    Cartesian Multipole Moments
 -----------------------------------------------------------------
    Charge (ESU x 10^10)
                 0.0000
    Dipole Moment (Debye)
         X      -0.8689      Y      -0.9194      Z      -0.7703
       Tot       1.4811
    Quadrupole Moments (Debye-Ang)
        XX    -143.6107     XY       0.7174     YY    -161.4586
        XZ       0.9306     YZ       0.7987     ZZ    -151.2453

 Total job time:  193.08s(wall), 9193.99s(cpu)
        *  Thank you very much for using Q-Chem.  Have a nice day.  *
