 Q-Chem 5.0, Q-Chem, Inc., Pleasanton, CA (2017)
 Q-Chem 5.0.1 for Intel X86 EM64T Linux

User input:
--------------------------------------------------------------
$molecule
0  1
O -3.94934 -3.66094 2.70899
C -3.26408 -4.56952 2.26188
C -3.36658 -6.02376 2.66595
C -4.73745 -6.52338 3.15068
C -5.89497 -5.55994 3.00924
O -6.42855 -5.65653 1.75569
C -7.53364 -4.77146 1.54432
C -8.07488 -4.93536 0.12787
O -9.18307 -4.04533 -0.07863
C -8.91631 -2.94561 -0.82603
C -9.62857 -1.70991 -0.32964
C -11.12165 -1.90146 -0.02585
C -11.59475 -3.33701 0.08409
O -12.48745 -3.84203 -0.58119
O -2.41522 -4.33849 1.24676
O -11.07458 -4.03918 1.10785
O -8.09088 -2.90799 -1.72961
C -11.23863 -5.40257 1.214
C -9.1491 -1.11651 1.01437
C -9.53215 0.37077 1.05443
C -11.03395 0.27489 1.24533
C -11.20704 -1.24239 1.36098
O -10.0126 -1.66565 1.97856
H -9.47605 -0.95552 -1.13216
H -11.749 -1.39052 -0.78633
H -8.06537 -1.26692 1.22215
H -9.07939 0.84413 1.95243
H -9.22752 0.95609 0.16224
H -11.31897 0.76621 2.1984
H -11.62314 0.72572 0.42109
H -12.13216 -1.5268 1.91894
O -6.28467 -4.80083 3.88883
C -2.2152 -3.07776 0.74858
C -3.13607 -6.99198 1.47929
C -2.71164 -8.36036 2.0171
C -4.02513 -8.87377 2.56355
C -4.94913 -7.72025 2.19664
O -4.42372 -7.24728 0.98033
H -2.58337 -6.17176 3.43919
H -4.69018 -6.84298 4.21299
H -1.86433 -2.45379 1.58411
H -2.41964 -6.61824 0.71309
H -2.39001 -9.00306 1.17045
H -1.89449 -8.32518 2.7644
H -4.33018 -9.78274 2.00592
H -4.01055 -9.10257 3.64634
H -6.02324 -8.03406 2.13541
H -3.16908 -2.70311 0.34486
H -1.45466 -3.10691 -0.04119
H -10.6201 -5.77382 2.03939
H -10.94743 -5.93075 0.27484
H -12.2924 -5.5063 1.42042
H -7.26614 -4.79057 -0.61847
H -8.43831 -5.97209 -0.0151
H -7.20906 -3.72022 1.69751
H -8.34449 -4.99803 2.26777
$end

$opt
CONSTRAINT
tors           1           2           3           4     +28.421
tors           3           4           5           6     +85.263
tors           4           5           6           7    -180.000
tors           5           6           7           8    -180.000
tors           6           7           8           9    -180.000
tors           7           8           9          10    +104.211
tors           8           9          10          11    -142.105
tors           9          10          11          12     -47.368
tors          11          12          13          14    -123.158
ENDCONSTRAINT
$end

$rem
JOBTYPE                   OPT
METHOD                    B3LYP
DFT_D                     d3_op
BASIS                     STO-3G
GEOM_OPT_MAX_CYCLES       100
GEOM_OPT_TOL_GRADIENT     300
GEOM_OPT_TOL_DISPLACEMENT 1200
GEOM_OPT_TOL_ENERGY       100
SYMMETRY                  False
THRESH                    12
SCF_CONVERGENCE           8
MAX_SUB_FILE_NUM          128
MEM_STATIC                400
MEM_TOTAL                 4000
$end
--------------------------------------------------------------

   15   -1510.1406301362      8.68E-09 Convergence criterion met
 Total energy in the final basis set = -1510.14063014
   14   -1510.2096595671      6.57E-09 Convergence criterion met
 Total energy in the final basis set = -1510.20965957
   14   -1510.2471798598      8.05E-09 Convergence criterion met
 Total energy in the final basis set = -1510.24717986
   14   -1510.2640674558      7.02E-09 Convergence criterion met
 Total energy in the final basis set = -1510.26406746
   13   -1510.2679556960      7.66E-09 Convergence criterion met
 Total energy in the final basis set = -1510.26795570
   12   -1510.2689998961      7.39E-09 Convergence criterion met
 Total energy in the final basis set = -1510.26899990
   12   -1510.2696655300      9.39E-09 Convergence criterion met
 Total energy in the final basis set = -1510.26966553
   12   -1510.2699331933      5.55E-09 Convergence criterion met
   11   -1510.2705431395      8.05E-09 Convergence criterion met
 Total energy in the final basis set = -1510.27054314
   11   -1510.2705798645      3.92E-09 Convergence criterion met
 Total energy in the final basis set = -1510.27057986
   11   -1510.2706008918      3.05E-09 Convergence criterion met
 Total energy in the final basis set = -1510.27060089
    9   -1510.2706255302      9.30E-09 Convergence criterion met
 Total energy in the final basis set = -1510.27062553
   11   -1510.2706360125      2.30E-09 Convergence criterion met
 Total energy in the final basis set = -1510.27063601
   10   -1510.2706377206      9.05E-09 Convergence criterion met
 Total energy in the final basis set = -1510.27063772

             Standard Nuclear Orientation (Angstroms)
    I     Atom           X                Y                Z
 ----------------------------------------------------------------
    1      O      -2.3286075744    -1.8133641404     0.5160416300
    2      C      -3.4882633293    -1.6470602424     0.0742568564
    3      C      -4.5310996749    -0.5777770416     0.5607151678
    4      C      -3.8241454558     0.7203980426     1.1376192392
    5      C      -2.2716737541     0.5657892225     1.3329450098
    6      O      -1.6210449694     0.8650379179     0.0904296548
    7      C      -0.1545435490     0.7265350801     0.2474979647
    8      C       0.4738247396     1.0689369554    -1.1467428459
    9      O       1.9464218158     0.9437847317    -1.0396883529
   10      C       2.3961810043    -0.2668863920    -1.6649514000
   11      C       3.5695369130    -0.9475734177    -0.8806952009
   12      C       4.8128639599    -0.0853342163    -0.3893179803
   13      C       4.6853473969     1.4796344406    -0.4270443303
   14      O       5.4486681986     2.2645122498    -1.0344001221
   15      O      -4.0750651579    -2.4624096579    -0.9399245674
   16      O       3.6878168868     1.9033187012     0.5034010910
   17      O       1.8237790223    -0.7892775734    -2.6496792992
   18      C       3.5807513987     3.3792319354     0.4938928391
   19      C       3.0804772079    -1.5987459999     0.4963238995
   20      C       4.0259968005    -2.8266827265     0.7916342288
   21      C       5.3616971862    -2.0824528260     1.1639731136
   22      C       4.8978178331    -0.5707160556     1.1252823628
   23      O       3.4741535905    -0.6197347198     1.5294948472
   24      H       3.9342790285    -1.7478562866    -1.5496370154
   25      H       5.7172576201    -0.3513662561    -0.9644615939
   26      H       1.9948120256    -1.8099093164     0.5531733486
   27      H       3.6375758620    -3.4075043939     1.6436014368
   28      H       4.1340610048    -3.4968450122    -0.0760151959
   29      H       5.7123269839    -2.3549672735     2.1719790960
   30      H       6.1714447428    -2.2801710450     0.4436262230
   31      H       5.4641789660     0.1095663410     1.7901429386
   32      O      -1.6723075721     0.3446199458     2.4071169883
   33      C      -3.1019626072    -3.4810836623    -1.3989083571
   34      C      -5.3288003918     0.0401654973    -0.6628866668
   35      C      -6.5137096190     0.9291372740    -0.1136702401
   36      C      -5.7417277036     2.2201657599     0.3488439868
   37      C      -4.2492108255     1.7996784647     0.0512095729
   38      O      -4.3633084845     1.0246423141    -1.2059680751
   39      H      -5.2003232303    -1.0485461250     1.3045155709
   40      H      -4.2449687953     0.9695755292     2.1279403851
   41      H      -2.8035091091    -4.1607694721    -0.5747389600
   42      H      -5.6044666261    -0.7030454533    -1.4355907546
   43      H      -7.2331714147     1.1516866721    -0.9174348088
   44      H      -7.0506590962     0.4371988638     0.7133882046
   45      H      -6.0207234463     3.0955274614    -0.2592237594
   46      H      -5.9062316016     2.4599467746     1.4114095635
   47      H      -3.5337019906     2.6349322513    -0.0719040535
   48      H      -2.1890242841    -3.0106633384    -1.8177447320
   49      H      -3.6170754074    -4.0586884705    -2.1883260227
   50      H       2.8166461587     3.6313588765     1.2518905320
   51      H       3.2570536027     3.7566242741    -0.4975500874
   52      H       4.5432026681     3.8633409729     0.7588168254
   53      H       0.0823703693     0.3911436679    -1.9351929002
   54      H       0.2359029218     2.1174421279    -1.4219394524
   55      H       0.1090054558    -0.3120697621     0.5453840147
   56      H       0.2375009670     1.4142155591     1.0281062553
 ----------------------------------------------------------------

    9   -1510.2706383144      6.17E-09 Convergence criterion met
 Total energy in the final basis set = -1510.27063831
 Final energy is   -1510.27063831439
 **  OPTIMIZATION CONVERGED  **

                    Orbital Energies (a.u.)
 --------------------------------------------------------------

 Alpha MOs
 -- Occupied --
-18.944 -18.929 -18.924 -18.921 -18.890 -18.886 -18.883 -18.877
-18.865 -18.861 -10.106 -10.100 -10.092 -10.091 -10.069 -10.067
-10.063 -10.061 -10.060 -10.059 -10.058 -10.057 -10.040 -10.037
-10.036 -10.033 -10.021 -10.020 -10.020 -10.019  -1.019  -1.010
 -1.002  -0.999  -0.971  -0.969  -0.943  -0.936  -0.927  -0.925
 -0.762  -0.761  -0.724  -0.722  -0.712  -0.706  -0.692  -0.666
 -0.655  -0.609  -0.597  -0.578  -0.545  -0.543  -0.537  -0.537
 -0.515  -0.512  -0.485  -0.476  -0.470  -0.462  -0.442  -0.439
 -0.433  -0.432  -0.421  -0.416  -0.408  -0.408  -0.406  -0.398
 -0.390  -0.380  -0.379  -0.366  -0.361  -0.354  -0.345  -0.342
 -0.340  -0.337  -0.333  -0.331  -0.330  -0.326  -0.323  -0.312
 -0.309  -0.307  -0.305  -0.299  -0.294  -0.285  -0.280  -0.276
 -0.274  -0.260  -0.247  -0.245  -0.237  -0.234  -0.233  -0.185
 -0.172  -0.167  -0.163  -0.159  -0.154  -0.145  -0.144  -0.143
 -0.140

          Ground-State Mulliken Net Atomic Charges

     Atom                 Charge (a.u.)
  ----------------------------------------
      1 O                    -0.210483
      2 C                     0.215456
      3 C                    -0.077285
      4 C                    -0.081923
      5 C                     0.212994
      6 O                    -0.176889
      7 C                    -0.046151
      8 C                    -0.048971
      9 O                    -0.174197
     10 C                     0.207230
     11 C                    -0.079837
     12 C                    -0.078510
     13 C                     0.207647
     14 O                    -0.217512
     15 O                    -0.167725
     16 O                    -0.155987
     17 O                    -0.209595
     18 C                    -0.126100
     19 C                     0.026690
     20 C                    -0.142270
     21 C                    -0.145104
     22 C                     0.027220
     23 O                    -0.181524
     24 H                     0.084304
     25 H                     0.084998
     26 H                     0.082529
     27 H                     0.079078
     28 H                     0.074607
     29 H                     0.078414
     30 H                     0.074133
     31 H                     0.083769
     32 O                    -0.215826
     33 C                    -0.127456
     34 C                     0.023246
     35 C                    -0.144827
     36 C                    -0.143463
     37 C                     0.025653
     38 O                    -0.189604
     39 H                     0.086451
     40 H                     0.082965
     41 H                     0.090086
     42 H                     0.090612
     43 H                     0.077940
     44 H                     0.073086
     45 H                     0.077567
     46 H                     0.073533
     47 H                     0.085831
     48 H                     0.093163
     49 H                     0.092636
     50 H                     0.089622
     51 H                     0.088058
     52 H                     0.087296
     53 H                     0.098570
     54 H                     0.086967
     55 H                     0.087876
     56 H                     0.091010
  ----------------------------------------
  Sum of atomic charges =    -0.000000

                    Cartesian Multipole Moments
 -----------------------------------------------------------------
    Charge (ESU x 10^10)
                 0.0000
    Dipole Moment (Debye)
         X      -1.7379      Y      -1.2462      Z       0.5232
       Tot       2.2016
    Quadrupole Moments (Debye-Ang)
        XX    -143.6937     XY      -6.8139     YY    -147.4951
        XZ       2.1996     YZ       4.9770     ZZ    -170.8853

 Total job time:  49.15s(wall), 2334.93s(cpu)
        *  Thank you very much for using Q-Chem.  Have a nice day.  *
