 Q-Chem 5.0, Q-Chem, Inc., Pleasanton, CA (2017)
 Q-Chem 5.0.1 for Intel X86 EM64T Linux

User input:
--------------------------------------------------------------
$molecule
0  1
O -2.3286075744 -1.8133641404 0.51604163
C -3.4882633293 -1.6470602424 0.0742568564
C -4.5310996749 -0.5777770416 0.5607151678
C -3.8241454558 0.7203980426 1.1376192392
C -2.2716737541 0.5657892225 1.3329450098
O -1.6210449694 0.8650379179 0.0904296548
C -0.154543549 0.7265350801 0.2474979647
C 0.4738247396 1.0689369554 -1.1467428459
O 1.9464218158 0.9437847317 -1.0396883529
C 2.3961810043 -0.266886392 -1.6649514
C 3.569536913 -0.9475734177 -0.8806952009
C 4.8128639599 -0.0853342163 -0.3893179803
C 4.6853473969 1.4796344406 -0.4270443303
O 5.4486681986 2.2645122498 -1.0344001221
O -4.0750651579 -2.4624096579 -0.9399245674
O 3.6878168868 1.9033187012 0.503401091
O 1.8237790223 -0.7892775734 -2.6496792992
C 3.5807513987 3.3792319354 0.4938928391
C 3.0804772079 -1.5987459999 0.4963238995
C 4.0259968005 -2.8266827265 0.7916342288
C 5.3616971862 -2.082452826 1.1639731136
C 4.8978178331 -0.5707160556 1.1252823628
O 3.4741535905 -0.6197347198 1.5294948472
H 3.9342790285 -1.7478562866 -1.5496370154
H 5.7172576201 -0.3513662561 -0.9644615939
H 1.9948120256 -1.8099093164 0.5531733486
H 3.637575862 -3.4075043939 1.6436014368
H 4.1340610048 -3.4968450122 -0.0760151959
H 5.7123269839 -2.3549672735 2.171979096
H 6.1714447428 -2.280171045 0.443626223
H 5.464178966 0.109566341 1.7901429386
O -1.6723075721 0.3446199458 2.4071169883
C -3.1019626072 -3.4810836623 -1.3989083571
C -5.3288003918 0.0401654973 -0.6628866668
C -6.513709619 0.929137274 -0.1136702401
C -5.7417277036 2.2201657599 0.3488439868
C -4.2492108255 1.7996784647 0.0512095729
O -4.3633084845 1.0246423141 -1.2059680751
H -5.2003232303 -1.048546125 1.3045155709
H -4.2449687953 0.9695755292 2.1279403851
H -2.8035091091 -4.1607694721 -0.57473896
H -5.6044666261 -0.7030454533 -1.4355907546
H -7.2331714147 1.1516866721 -0.9174348088
H -7.0506590962 0.4371988638 0.7133882046
H -6.0207234463 3.0955274614 -0.2592237594
H -5.9062316016 2.4599467746 1.4114095635
H -3.5337019906 2.6349322513 -0.0719040535
H -2.1890242841 -3.0106633384 -1.817744732
H -3.6170754074 -4.0586884705 -2.1883260227
H 2.8166461587 3.6313588765 1.251890532
H 3.2570536027 3.7566242741 -0.4975500874
H 4.5432026681 3.8633409729 0.7588168254
H 0.0823703693 0.3911436679 -1.9351929002
H 0.2359029218 2.1174421279 -1.4219394524
H 0.1090054558 -0.3120697621 0.5453840147
H 0.237500967 1.4142155591 1.0281062553
$end

$rem
JOBTYPE                   OPT
METHOD                    B3LYP
DFT_D                     d3_op
BASIS                     STO-3G
GEOM_OPT_MAX_CYCLES       100
GEOM_OPT_TOL_GRADIENT     300
GEOM_OPT_TOL_DISPLACEMENT 1200
GEOM_OPT_TOL_ENERGY       100
SYMMETRY                  False
THRESH                    12
SCF_CONVERGENCE           8
MAX_SUB_FILE_NUM          128
MEM_STATIC                400
MEM_TOTAL                 4000
$end
--------------------------------------------------------------

   16   -1510.2706727338      6.28E-09 Convergence criterion met
 Total energy in the final basis set = -1510.27067273
   14   -1510.2743811377      3.12E-09 Convergence criterion met
 Total energy in the final basis set = -1510.27438114
   14   -1510.2773465101      4.66E-09 Convergence criterion met
 Total energy in the final basis set = -1510.27734651
   14   -1510.2793681670      5.47E-09 Convergence criterion met
 Total energy in the final basis set = -1510.27936817
   13   -1510.2807857219      7.47E-09 Convergence criterion met
 Total energy in the final basis set = -1510.28078572
   13   -1510.2820716700      5.64E-09 Convergence criterion met
 Total energy in the final basis set = -1510.28207167
   13   -1510.2833158175      9.87E-09 Convergence criterion met
 Total energy in the final basis set = -1510.28331582
   14   -1510.2848934025      6.32E-09 Convergence criterion met
   11   -1510.2971897655      6.38E-09 Convergence criterion met
 Total energy in the final basis set = -1510.29718977
   10   -1510.2971848350      7.34E-09 Convergence criterion met
 Total energy in the final basis set = -1510.29718484
   11   -1510.2971819409      3.13E-09 Convergence criterion met
 Total energy in the final basis set = -1510.29718194
   10   -1510.2971722275      9.97E-09 Convergence criterion met
 Total energy in the final basis set = -1510.29717223
    9   -1510.2971706803      8.71E-09 Convergence criterion met
 Total energy in the final basis set = -1510.29717068
    9   -1510.2971691995      4.61E-09 Convergence criterion met
 Total energy in the final basis set = -1510.29716920

             Standard Nuclear Orientation (Angstroms)
    I     Atom           X                Y                Z
 ----------------------------------------------------------------
    1      O      -0.9449232846    -0.8138718521     0.2393067056
    2      C      -2.0639259588    -1.2472728466    -0.1270969045
    3      C      -3.4435582974    -0.8159864656     0.4708773070
    4      C      -3.3403297190     0.4983370016     1.3476002370
    5      C      -1.9071597972     1.1489882025     1.4178974170
    6      O      -1.6638928008     1.8674018718     0.1958404040
    7      C      -0.3921792087     2.6204051040     0.2829247643
    8      C       0.5659074327     2.2280338593    -0.8951981533
    9      O       1.4878154379     1.1470625399    -0.4694608614
   10      C       1.3275134012    -0.0119289133    -1.2802049297
   11      C       2.2947878108    -1.1287860779    -0.7791848524
   12      C       3.7823915065    -0.6589894196    -0.4812463843
   13      C       4.0096939378     0.8766923585    -0.7489954102
   14      O       4.0258745366     1.4360935522    -1.8677128843
   15      O      -2.2686034992    -2.2127733775    -1.1458417186
   16      O       4.2509348186     1.5562628809     0.4867992531
   17      O       0.4986918414    -0.1042724706    -2.2203705231
   18      C       4.4152414110     3.0056094997     0.2392846413
   19      C       1.8488353040    -1.6539969040     0.6584463018
   20      C       2.5204333079    -3.0629789211     0.8867009363
   21      C       4.0166090027    -2.6434803268     1.1387176063
   22      C       3.9177201431    -1.0674753815     1.0441803553
   23      O       2.5742719626    -0.7676020619     1.5917123941
   24      H       2.2726014022    -1.9402543730    -1.5274851818
   25      H       4.4916738992    -1.2159490120    -1.1206819249
   26      H       0.7506329215    -1.5816974386     0.8095128859
   27      H       2.0855204990    -3.5579199501     1.7698216215
   28      H       2.4043791637    -3.7275512073     0.0156494919
   29      H       4.3591244211    -2.9469245545     2.1407891196
   30      H       4.7070639234    -3.0610233618     0.3883143261
   31      H       4.6964649256    -0.5094453182     1.5973038140
   32      O      -1.1526138589     1.1794610249     2.4150148197
   33      C      -0.9758358682    -2.6004702836    -1.7699472178
   34      C      -4.4861657748    -0.3696979975    -0.6432128811
   35      C      -5.9253502131    -0.3617872770     0.0056127353
   36      C      -5.8406775879     0.9242697315     0.9076426740
   37      C      -4.3779477504     1.4312791167     0.5863607897
   38      O      -4.1869449854     1.0663342616    -0.8371663949
   39      H      -3.8410852163    -1.6618362959     1.0618385955
   40      H      -3.6538275870     0.2988228489     2.3873997274
   41      H      -0.3637842578    -3.1990713099    -1.0647485901
   42      H      -4.3906644498    -0.9261939273    -1.5957644461
   43      H      -6.6961523523    -0.2580399845    -0.7746009945
   44      H      -6.1278637241    -1.2779287874     0.5831970032
   45      H      -6.5843111201     1.6789233004     0.6056917707
   46      H      -5.9767824793     0.7037293457     1.9784606358
   47      H      -4.2134415612     2.5159728893     0.7324564359
   48      H      -0.3959242594    -1.6985771260    -2.0913406536
   49      H      -1.2422584939    -3.2250335047    -2.6415533927
   50      H       4.6595875020     3.4567908778     1.2185089253
   51      H       3.4804640590     3.4562701567    -0.1518079629
   52      H       5.2329753465     3.2102921603    -0.4816727217
   53      H      -0.0162004262     1.8724701485    -1.7740127147
   54      H       1.1879266654     3.1014029634    -1.1835546935
   55      H       0.0843671297     2.4058539133     1.2660501764
   56      H      -0.6306323847     3.7035320734     0.2124496050
 ----------------------------------------------------------------

    9   -1510.2971687045      2.06E-09 Convergence criterion met
 Total energy in the final basis set = -1510.29716870
 Final energy is   -1510.29716870455
 **  OPTIMIZATION CONVERGED  **

                    Orbital Energies (a.u.)
 --------------------------------------------------------------

 Alpha MOs
 -- Occupied --
-18.943 -18.940 -18.929 -18.917 -18.886 -18.885 -18.879 -18.879
-18.862 -18.861 -10.109 -10.105 -10.093 -10.091 -10.066 -10.060
-10.059 -10.059 -10.058 -10.051 -10.049 -10.044 -10.040 -10.033
-10.033 -10.032 -10.020 -10.019 -10.014 -10.013  -1.020  -1.015
 -1.002  -0.998  -0.968  -0.961  -0.943  -0.939  -0.928  -0.924
 -0.762  -0.758  -0.724  -0.720  -0.710  -0.702  -0.691  -0.659
 -0.655  -0.609  -0.594  -0.576  -0.545  -0.538  -0.536  -0.530
 -0.513  -0.508  -0.486  -0.477  -0.465  -0.461  -0.440  -0.432
 -0.431  -0.428  -0.425  -0.415  -0.410  -0.405  -0.403  -0.401
 -0.398  -0.380  -0.372  -0.365  -0.361  -0.356  -0.353  -0.343
 -0.340  -0.336  -0.331  -0.328  -0.324  -0.319  -0.316  -0.312
 -0.304  -0.301  -0.299  -0.298  -0.294  -0.288  -0.280  -0.275
 -0.267  -0.256  -0.247  -0.243  -0.235  -0.232  -0.224  -0.189
 -0.176  -0.169  -0.161  -0.159  -0.156  -0.145  -0.143  -0.142
 -0.134

          Ground-State Mulliken Net Atomic Charges

     Atom                 Charge (a.u.)
  ----------------------------------------
      1 O                    -0.215772
      2 C                     0.221563
      3 C                    -0.078315
      4 C                    -0.080340
      5 C                     0.215202
      6 O                    -0.175020
      7 C                    -0.055588
      8 C                    -0.052925
      9 O                    -0.163158
     10 C                     0.227239
     11 C                    -0.079687
     12 C                    -0.078267
     13 C                     0.213303
     14 O                    -0.224832
     15 O                    -0.166953
     16 O                    -0.164950
     17 O                    -0.219377
     18 C                    -0.126049
     19 C                     0.016495
     20 C                    -0.145100
     21 C                    -0.144834
     22 C                     0.025139
     23 O                    -0.184392
     24 H                     0.081473
     25 H                     0.082229
     26 H                     0.103260
     27 H                     0.076508
     28 H                     0.069518
     29 H                     0.076657
     30 H                     0.070965
     31 H                     0.089293
     32 O                    -0.216689
     33 C                    -0.145501
     34 C                     0.024912
     35 C                    -0.143679
     36 C                    -0.144628
     37 C                     0.026870
     38 O                    -0.186229
     39 H                     0.086055
     40 H                     0.083720
     41 H                     0.077284
     42 H                     0.089825
     43 H                     0.078111
     44 H                     0.073108
     45 H                     0.077586
     46 H                     0.073397
     47 H                     0.084459
     48 H                     0.115344
     49 H                     0.086061
     50 H                     0.090150
     51 H                     0.085360
     52 H                     0.088095
     53 H                     0.108824
     54 H                     0.084505
     55 H                     0.109046
     56 H                     0.080729
  ----------------------------------------
  Sum of atomic charges =    -0.000000

                    Cartesian Multipole Moments
 -----------------------------------------------------------------
    Charge (ESU x 10^10)
                -0.0000
    Dipole Moment (Debye)
         X      -0.7066      Y      -1.1787      Z       0.3484
       Tot       1.4177
    Quadrupole Moments (Debye-Ang)
        XX    -143.9042     XY       0.3074     YY    -145.3746
        XZ      -4.0220     YZ       2.8401     ZZ    -170.6839

 Total job time:  148.05s(wall), 7056.82s(cpu)
        *  Thank you very much for using Q-Chem.  Have a nice day.  *
