 Q-Chem 5.0, Q-Chem, Inc., Pleasanton, CA (2017)
 Q-Chem 5.0.1 for Intel X86 EM64T Linux

User input:
--------------------------------------------------------------
$molecule
0  1
O 3.992227688 0.2563603056 1.6076666179
C 3.1494995391 0.9711038466 1.024184148
C 3.0914912962 1.2617727668 -0.5210112252
C 3.2342500033 -0.0407694832 -1.4153309078
C 3.570562373 -1.4092447292 -0.7148750763
O 2.7916249698 -1.7453598079 0.4586339079
C 2.1174288865 -3.0576748426 0.2689391954
C 0.5553856627 -2.9346410258 0.4424614083
O 0.1304842059 -1.5698726723 0.0682499936
C -1.1721746016 -1.2992216145 0.6266918879
C -1.5579822957 0.153708899 0.1937552729
C -3.0725949801 0.4141201953 -0.1785957356
C -3.9863724295 -0.8198801194 -0.4874013347
O -3.9349259221 -1.9990990917 -0.0822098442
O 2.0795133102 1.651902812 1.686998418
O -5.023721038 -0.3373254533 -1.3624039535
O -1.7611363555 -2.0798429012 1.4030147459
C -5.9838055649 -1.4250047564 -1.6555935006
C -1.431812572 1.0805433781 1.4815061018
C -1.5495898531 2.5978031152 1.0525709607
C -3.1040220807 2.7488356305 0.863484208
C -3.5682687899 1.257691267 1.0878667406
O -2.7006377432 0.8067734708 2.1963429566
H -0.8376620334 0.4545666079 -0.5954586406
H -3.1239757456 1.055769232 -1.0763130595
H -0.5612025378 0.8483788238 2.1241805581
H -1.1663500737 3.2590638954 1.8456776946
H -0.9937708701 2.8021742837 0.1240159159
H -3.5418429859 3.4047737355 1.6331284956
H -3.3809336146 3.1332547114 -0.1311346093
H -4.6366884416 1.1251468442 1.3466456711
O 4.3827088797 -2.2186875927 -1.2202861142
C 2.1253971397 1.3623336148 3.1389707198
C 1.7071867854 1.8299771937 -1.0221789246
C 1.8692430679 2.3624844307 -2.5026831467
C 1.8876445204 1.0147971227 -3.3184922261
C 1.8144675811 -0.0448694689 -2.1493832783
O 0.9018143735 0.6019269325 -1.1856638699
H 3.9157575419 1.9633146032 -0.7508798399
H 4.0340907619 0.1022218604 -2.1634133598
H 3.0788516955 1.7004061798 3.593557598
H 1.2197862991 2.5224133154 -0.3109633212
H 1.0099243501 2.9925452484 -2.7820370838
H 2.7929215356 2.9492813946 -2.6308647667
H 1.0009189227 0.925455724 -3.9664430917
H 2.7918901353 0.8981787643 -3.936627526
H 1.4312857588 -1.0453339218 -2.4285591195
H 2.0046582379 0.2780502521 3.3389602184
H 1.2825868478 1.919591527 3.587920336
H -6.7684992697 -0.9774045293 -2.2929988741
H -6.4429650869 -1.828586206 -0.7300653089
H -5.5008762302 -2.2632760244 -2.1987281772
H 0.0550202582 -3.6924063122 -0.2008112092
H 0.2572590724 -3.1413661197 1.4927325149
H 2.4997501659 -3.7715884175 1.031803401
H 2.3626783595 -3.4769372802 -0.7287682303
$end

$rem
JOBTYPE                   OPT
METHOD                    B3LYP
DFT_D                     d3_op
BASIS                     STO-3G
GEOM_OPT_MAX_CYCLES       100
GEOM_OPT_TOL_GRADIENT     300
GEOM_OPT_TOL_DISPLACEMENT 1200
GEOM_OPT_TOL_ENERGY       100
SYMMETRY                  False
THRESH                    12
SCF_CONVERGENCE           8
MAX_SUB_FILE_NUM          128
MEM_STATIC                400
MEM_TOTAL                 4000
$end
--------------------------------------------------------------

   16   -1510.2612565009      6.00E-09 Convergence criterion met
 Total energy in the final basis set = -1510.26125650
   15   -1510.2631905053      3.01E-09 Convergence criterion met
 Total energy in the final basis set = -1510.26319051
   14   -1510.2693718913      4.88E-09 Convergence criterion met
 Total energy in the final basis set = -1510.26937189
   13   -1510.2734641620      3.40E-09 Convergence criterion met
 Total energy in the final basis set = -1510.27346416
   13   -1510.2764437579      8.68E-09 Convergence criterion met
 Total energy in the final basis set = -1510.27644376
   14   -1510.2787623738      3.32E-09 Convergence criterion met
 Total energy in the final basis set = -1510.27876237
   14   -1510.2809021355      5.50E-09 Convergence criterion met
 Total energy in the final basis set = -1510.28090214
   14   -1510.2830451911      6.07E-09 Convergence criterion met
    9   -1510.3015546576      4.85E-09 Convergence criterion met
 Total energy in the final basis set = -1510.30155466
    9   -1510.3015597318      6.45E-09 Convergence criterion met
 Total energy in the final basis set = -1510.30155973
    9   -1510.3015564796      8.21E-09 Convergence criterion met
 Total energy in the final basis set = -1510.30155648
    9   -1510.3015674711      6.24E-09 Convergence criterion met
 Total energy in the final basis set = -1510.30156747
    9   -1510.3015692085      5.88E-09 Convergence criterion met
 Total energy in the final basis set = -1510.30156921
    9   -1510.3015698686      5.14E-09 Convergence criterion met
 Total energy in the final basis set = -1510.30156987

             Standard Nuclear Orientation (Angstroms)
    I     Atom           X                Y                Z
 ----------------------------------------------------------------
    1      O       4.0646627356     0.3908936771     1.5710789444
    2      C       3.0647304408     0.6047212797     0.8506896497
    3      C       3.0679382832     0.6566541119    -0.7208554094
    4      C       2.5017052050    -0.6057593086    -1.4979666965
    5      C       1.8274307631    -1.7584550344    -0.6672933068
    6      O       2.3113505678    -1.7695425236     0.6795827919
    7      C       1.5861769957    -2.7984956346     1.4650923256
    8      C       0.2359330824    -2.2151604151     2.0290745392
    9      O      -0.3728020860    -1.4138035157     0.9483204407
   10      C      -0.9438530766    -0.1966699396     1.4606605862
   11      C      -1.3373338240     0.6755637765     0.2247714643
   12      C      -2.5680891298     0.1324589738    -0.6028588833
   13      C      -3.2837301286    -1.0544214625     0.1183468735
   14      O      -3.0916464876    -1.4437031831     1.2930185621
   15      O       1.7707324319     0.9602741235     1.3461281839
   16      O      -4.2435511926    -1.6316879226    -0.7693797695
   17      O      -0.9449619781     0.1236076693     2.6710798015
   18      C      -4.9615379560    -2.7363043502    -0.0916651856
   19      C      -1.8523559686     2.1154046424     0.6300207576
   20      C      -1.6886956664     3.0415733205    -0.6386489494
   21      C      -2.8585881369     2.5096309603    -1.5473976267
   22      C      -3.5070337084     1.4165344438    -0.6086303850
   23      O      -3.3230419994     1.9619888858     0.7536603902
   24      H      -0.4311016003     0.7585104915    -0.4246262336
   25      H      -2.2902836794    -0.1769679605    -1.6262595400
   26      H      -1.4248236671     2.5054888235     1.5739279456
   27      H      -1.8321127684     4.1011925785    -0.3733927912
   28      H      -0.7012055167     2.9145116403    -1.1109888233
   29      H      -3.5886759352     3.3017913842    -1.7773982717
   30      H      -2.4952302396     2.0766997203    -2.4930722642
   31      H      -4.5751369039     1.1987766564    -0.8051286488
   32      O       1.0393968743    -2.6045905893    -1.1431714483
   33      C       1.8009992219     1.0566345748     2.8258108929
   34      C       2.1497715095     1.8088624905    -1.3177492218
   35      C       2.6624767160     2.1487411684    -2.7713217989
   36      C       2.1680970483     0.8857436798    -3.5729436427
   37      C       1.4244716505     0.0737609797    -2.4426422223
   38      O       0.8541382847     1.1403539438    -1.5861082922
   39      H       4.1209641067     0.8170480744    -1.0126447451
   40      H       3.3042085853    -1.0697720152    -2.1016101932
   41      H       2.1237762086     2.0694977529     3.1414407591
   42      H       2.0012406872     2.6763353698    -0.6464399056
   43      H       2.1863518119     3.0712079479    -3.1403960748
   44      H       3.7561171444     2.2758419270    -2.8072256951
   45      H       1.4670214466     1.1643455034    -4.3757256037
   46      H       2.9982211711     0.3093927970    -4.0110582970
   47      H       0.6304628087    -0.6190796421    -2.7847794407
   48      H       2.4974827152     0.3109305683     3.2557313066
   49      H       0.7583274762     0.8615536705     3.1539836643
   50      H      -5.6822879723    -3.1306216060    -0.8314750262
   51      H      -5.5073217256    -2.3782159901     0.8050724523
   52      H      -4.2673751144    -3.5440227106     0.2180898924
   53      H      -0.4398840232    -3.0501690333     2.3168691332
   54      H       0.4008341647    -1.5711571621     2.9180014080
   55      H       2.2589174819    -3.0931961594     2.2951040934
   56      H       1.3732471250    -3.6738487459     0.8158633864
 ----------------------------------------------------------------

    9   -1510.3015696734      4.71E-09 Convergence criterion met
 Total energy in the final basis set = -1510.30156967
 Final energy is   -1510.30156967345
 **  OPTIMIZATION CONVERGED  **

                    Orbital Energies (a.u.)
 --------------------------------------------------------------

 Alpha MOs
 -- Occupied --
-18.941 -18.934 -18.924 -18.915 -18.913 -18.877 -18.875 -18.873
-18.863 -18.857 -10.105 -10.096 -10.096 -10.087 -10.073 -10.072
-10.072 -10.063 -10.062 -10.050 -10.046 -10.042 -10.042 -10.041
-10.031 -10.029 -10.027 -10.010 -10.005 -10.004  -1.019  -1.010
 -1.001  -0.993  -0.988  -0.957  -0.941  -0.934  -0.927  -0.921
 -0.772  -0.750  -0.732  -0.717  -0.712  -0.704  -0.689  -0.659
 -0.651  -0.613  -0.597  -0.577  -0.552  -0.548  -0.534  -0.526
 -0.513  -0.501  -0.486  -0.476  -0.470  -0.455  -0.449  -0.441
 -0.435  -0.421  -0.418  -0.414  -0.409  -0.407  -0.406  -0.400
 -0.393  -0.379  -0.371  -0.369  -0.358  -0.353  -0.349  -0.347
 -0.342  -0.336  -0.333  -0.331  -0.329  -0.320  -0.318  -0.315
 -0.313  -0.301  -0.299  -0.294  -0.292  -0.291  -0.280  -0.271
 -0.264  -0.250  -0.249  -0.243  -0.239  -0.234  -0.218  -0.181
 -0.176  -0.169  -0.165  -0.159  -0.157  -0.150  -0.145  -0.140
 -0.132

          Ground-State Mulliken Net Atomic Charges

     Atom                 Charge (a.u.)
  ----------------------------------------
      1 O                    -0.218785
      2 C                     0.216025
      3 C                    -0.081204
      4 C                    -0.077841
      5 C                     0.217165
      6 O                    -0.168118
      7 C                    -0.049488
      8 C                    -0.052011
      9 O                    -0.179860
     10 C                     0.227463
     11 C                    -0.099944
     12 C                    -0.078140
     13 C                     0.215186
     14 O                    -0.208336
     15 O                    -0.176653
     16 O                    -0.169474
     17 O                    -0.227611
     18 C                    -0.128149
     19 C                     0.023431
     20 C                    -0.145332
     21 C                    -0.143571
     22 C                     0.024700
     23 O                    -0.193905
     24 H                     0.117568
     25 H                     0.084392
     26 H                     0.084561
     27 H                     0.071983
     28 H                     0.078627
     29 H                     0.074435
     30 H                     0.072077
     31 H                     0.080682
     32 O                    -0.211481
     33 C                    -0.143783
     34 C                     0.027996
     35 C                    -0.143179
     36 C                    -0.143702
     37 C                     0.027145
     38 O                    -0.187521
     39 H                     0.085562
     40 H                     0.087423
     41 H                     0.077987
     42 H                     0.089925
     43 H                     0.079604
     44 H                     0.076984
     45 H                     0.080085
     46 H                     0.076722
     47 H                     0.093483
     48 H                     0.089758
     49 H                     0.107648
     50 H                     0.090318
     51 H                     0.090199
     52 H                     0.089704
     53 H                     0.085486
     54 H                     0.095769
     55 H                     0.091266
     56 H                     0.096730
  ----------------------------------------
  Sum of atomic charges =    -0.000000

                    Cartesian Multipole Moments
 -----------------------------------------------------------------
    Charge (ESU x 10^10)
                -0.0000
    Dipole Moment (Debye)
         X       1.2785      Y      -0.3248      Z      -3.0982
       Tot       3.3673
    Quadrupole Moments (Debye-Ang)
        XX    -159.4591     XY       6.6449     YY    -151.9268
        XZ      -1.1286     YZ      -7.3258     ZZ    -158.1658

 Total job time:  194.37s(wall), 9279.38s(cpu)
        *  Thank you very much for using Q-Chem.  Have a nice day.  *
