 Q-Chem 5.0, Q-Chem, Inc., Pleasanton, CA (2017)
 Q-Chem 5.0.1 for Intel X86 EM64T Linux

User input:
--------------------------------------------------------------
$molecule
0  1
O -3.94934 -3.66094 2.70899
C -3.26408 -4.56952 2.26188
C -3.36658 -6.02376 2.66595
C -4.77372 -6.64113 2.71769
C -5.90468 -5.78727 2.1886
O -5.55781 -5.255 0.97956
C -6.47877 -5.58426 -0.06575
C -5.74861 -6.2804 -1.2096
O -4.60179 -6.98146 -0.70345
C -3.65882 -7.29885 -1.62497
C -2.48022 -8.03348 -1.03178
C -1.90051 -9.14766 -1.91542
C -2.33139 -9.13036 -3.36826
O -2.65119 -8.13435 -4.00093
O -2.36414 -4.29048 1.28438
O -2.47369 -10.34761 -3.95524
O -3.50902 -6.54109 -2.57377
C -2.89273 -10.53934 -5.25514
C -1.20647 -7.21249 -0.75279
C -0.24247 -7.99832 0.16957
C 0.36816 -8.97273 -0.79019
C -0.43507 -8.64597 -2.02739
O -0.54249 -7.24216 -1.98457
H -2.8239 -8.76431 -0.30249
H -1.89391 -10.1989 -1.5333
H -1.44162 -6.2064 -0.34913
H 0.55993 -7.33683 0.56558
H -0.74752 -8.53441 0.99097
H 1.42137 -8.66798 -0.98753
H 0.33799 -10.03967 -0.47985
H 0.1113 -9.05283 -2.9108
O -6.93683 -5.51513 2.78523
C -2.16022 -3.037 0.74811
C -2.54287 -7.15465 2.23966
C -2.45067 -8.25837 3.31649
C -3.82021 -8.91016 3.18014
C -4.48158 -7.99369 2.14765
O -3.4136 -7.69947 1.324
H -3.06553 -5.86087 3.72677
H -5.09482 -6.82076 3.771
H -1.82986 -2.33081 1.5395
H -1.55834 -6.76489 1.93608
H -1.67888 -9.01401 3.05566
H -2.22621 -7.84994 4.32551
H -3.68886 -9.90152 2.69003
H -4.37977 -9.04601 4.13043
H -5.36764 -8.47105 1.67626
H -3.09634 -2.66583 0.27861
H -1.37125 -3.09889 -0.02921
H -2.91655 -11.62673 -5.4731
H -2.18801 -10.04844 -5.96005
H -3.91373 -10.12389 -5.39398
H -6.40518 -6.89969 -1.85876
H -5.38751 -5.41672 -1.81287
H -7.03058 -4.68976 -0.42774
H -7.24708 -6.31189 0.29269
$end

$opt
CONSTRAINT
tors           1           2           3           4     +47.368
tors           3           4           5           6     +47.368
tors           4           5           6           7    +123.158
tors           5           6           7           8    -123.158
tors           6           7           8           9     +28.421
tors           7           8           9          10    -161.053
tors           8           9          10          11    -180.000
tors           9          10          11          12    +142.105
tors          11          12          13          14     +28.421
ENDCONSTRAINT
$end

$rem
JOBTYPE                   OPT
METHOD                    B3LYP
DFT_D                     d3_op
BASIS                     STO-3G
GEOM_OPT_MAX_CYCLES       100
GEOM_OPT_TOL_GRADIENT     300
GEOM_OPT_TOL_DISPLACEMENT 1200
GEOM_OPT_TOL_ENERGY       100
SYMMETRY                  False
THRESH                    12
SCF_CONVERGENCE           8
MAX_SUB_FILE_NUM          128
MEM_STATIC                400
MEM_TOTAL                 4000
$end
--------------------------------------------------------------

   16   -1510.0291218100      2.15E-09 Convergence criterion met
 Total energy in the final basis set = -1510.02912181
   15   -1510.1001253363      4.48E-09 Convergence criterion met
 Total energy in the final basis set = -1510.10012534
   14   -1510.1669389188      9.45E-09 Convergence criterion met
 Total energy in the final basis set = -1510.16693892
   14   -1510.2051409984      2.77E-09 Convergence criterion met
 Total energy in the final basis set = -1510.20514100
   14   -1510.2267299063      5.80E-09 Convergence criterion met
 Total energy in the final basis set = -1510.22672991
   14   -1510.2408478312      3.73E-09 Convergence criterion met
 Total energy in the final basis set = -1510.24084783
   14   -1510.2498705788      2.57E-09 Convergence criterion met
 Total energy in the final basis set = -1510.24987058
   13   -1510.2553190721      5.96E-09 Convergence criterion met
   11   -1510.2613212189      4.95E-09 Convergence criterion met
 Total energy in the final basis set = -1510.26132122
   11   -1510.2613363708      3.48E-09 Convergence criterion met
 Total energy in the final basis set = -1510.26133637
   11   -1510.2613473828      2.69E-09 Convergence criterion met
 Total energy in the final basis set = -1510.26134738
   10   -1510.2613519035      3.77E-09 Convergence criterion met
 Total energy in the final basis set = -1510.26135190
   10   -1510.2613557396      4.07E-09 Convergence criterion met
 Total energy in the final basis set = -1510.26135574
    9   -1510.2613578090      6.96E-09 Convergence criterion met
 Total energy in the final basis set = -1510.26135781

             Standard Nuclear Orientation (Angstroms)
    I     Atom           X                Y                Z
 ----------------------------------------------------------------
    1      O       3.9922276880     0.2563603056     1.6076666179
    2      C       3.1494995391     0.9711038466     1.0241841480
    3      C       3.0914912962     1.2617727668    -0.5210112252
    4      C       3.2342500033    -0.0407694832    -1.4153309078
    5      C       3.5705623730    -1.4092447292    -0.7148750763
    6      O       2.7916249698    -1.7453598079     0.4586339079
    7      C       2.1174288865    -3.0576748426     0.2689391954
    8      C       0.5553856627    -2.9346410258     0.4424614083
    9      O       0.1304842059    -1.5698726723     0.0682499936
   10      C      -1.1721746016    -1.2992216145     0.6266918879
   11      C      -1.5579822957     0.1537088990     0.1937552729
   12      C      -3.0725949801     0.4141201953    -0.1785957356
   13      C      -3.9863724295    -0.8198801194    -0.4874013347
   14      O      -3.9349259221    -1.9990990917    -0.0822098442
   15      O       2.0795133102     1.6519028120     1.6869984180
   16      O      -5.0237210380    -0.3373254533    -1.3624039535
   17      O      -1.7611363555    -2.0798429012     1.4030147459
   18      C      -5.9838055649    -1.4250047564    -1.6555935006
   19      C      -1.4318125720     1.0805433781     1.4815061018
   20      C      -1.5495898531     2.5978031152     1.0525709607
   21      C      -3.1040220807     2.7488356305     0.8634842080
   22      C      -3.5682687899     1.2576912670     1.0878667406
   23      O      -2.7006377432     0.8067734708     2.1963429566
   24      H      -0.8376620334     0.4545666079    -0.5954586406
   25      H      -3.1239757456     1.0557692320    -1.0763130595
   26      H      -0.5612025378     0.8483788238     2.1241805581
   27      H      -1.1663500737     3.2590638954     1.8456776946
   28      H      -0.9937708701     2.8021742837     0.1240159159
   29      H      -3.5418429859     3.4047737355     1.6331284956
   30      H      -3.3809336146     3.1332547114    -0.1311346093
   31      H      -4.6366884416     1.1251468442     1.3466456711
   32      O       4.3827088797    -2.2186875927    -1.2202861142
   33      C       2.1253971397     1.3623336148     3.1389707198
   34      C       1.7071867854     1.8299771937    -1.0221789246
   35      C       1.8692430679     2.3624844307    -2.5026831467
   36      C       1.8876445204     1.0147971227    -3.3184922261
   37      C       1.8144675811    -0.0448694689    -2.1493832783
   38      O       0.9018143735     0.6019269325    -1.1856638699
   39      H       3.9157575419     1.9633146032    -0.7508798399
   40      H       4.0340907619     0.1022218604    -2.1634133598
   41      H       3.0788516955     1.7004061798     3.5935575980
   42      H       1.2197862991     2.5224133154    -0.3109633212
   43      H       1.0099243501     2.9925452484    -2.7820370838
   44      H       2.7929215356     2.9492813946    -2.6308647667
   45      H       1.0009189227     0.9254557240    -3.9664430917
   46      H       2.7918901353     0.8981787643    -3.9366275260
   47      H       1.4312857588    -1.0453339218    -2.4285591195
   48      H       2.0046582379     0.2780502521     3.3389602184
   49      H       1.2825868478     1.9195915270     3.5879203360
   50      H      -6.7684992697    -0.9774045293    -2.2929988741
   51      H      -6.4429650869    -1.8285862060    -0.7300653089
   52      H      -5.5008762302    -2.2632760244    -2.1987281772
   53      H       0.0550202582    -3.6924063122    -0.2008112092
   54      H       0.2572590724    -3.1413661197     1.4927325149
   55      H       2.4997501659    -3.7715884175     1.0318034010
   56      H       2.3626783595    -3.4769372802    -0.7287682303
 ----------------------------------------------------------------

    9   -1510.2613584525      3.27E-09 Convergence criterion met
 Total energy in the final basis set = -1510.26135845
 Final energy is   -1510.26135845255
 **  OPTIMIZATION CONVERGED  **

                    Orbital Energies (a.u.)
 --------------------------------------------------------------

 Alpha MOs
 -- Occupied --
-18.938 -18.923 -18.917 -18.912 -18.905 -18.884 -18.881 -18.877
-18.870 -18.863 -10.102 -10.102 -10.090 -10.081 -10.071 -10.070
-10.068 -10.066 -10.062 -10.058 -10.054 -10.050 -10.044 -10.042
-10.029 -10.028 -10.028 -10.016 -10.014 -10.014  -1.014  -1.004
 -1.003  -0.995  -0.984  -0.964  -0.938  -0.932  -0.927  -0.917
 -0.770  -0.753  -0.729  -0.718  -0.714  -0.706  -0.692  -0.664
 -0.656  -0.609  -0.598  -0.574  -0.551  -0.547  -0.537  -0.531
 -0.517  -0.506  -0.484  -0.477  -0.463  -0.453  -0.445  -0.441
 -0.434  -0.428  -0.424  -0.416  -0.411  -0.407  -0.405  -0.400
 -0.386  -0.382  -0.375  -0.365  -0.360  -0.356  -0.350  -0.346
 -0.342  -0.339  -0.336  -0.328  -0.325  -0.322  -0.319  -0.317
 -0.313  -0.303  -0.301  -0.299  -0.294  -0.291  -0.279  -0.272
 -0.265  -0.257  -0.250  -0.241  -0.236  -0.231  -0.222  -0.179
 -0.170  -0.166  -0.163  -0.160  -0.154  -0.151  -0.148  -0.137
 -0.128

          Ground-State Mulliken Net Atomic Charges

     Atom                 Charge (a.u.)
  ----------------------------------------
      1 O                    -0.206793
      2 C                     0.215497
      3 C                    -0.077037
      4 C                    -0.078602
      5 C                     0.216523
      6 O                    -0.180209
      7 C                    -0.047244
      8 C                    -0.052888
      9 O                    -0.170695
     10 C                     0.206399
     11 C                    -0.093729
     12 C                    -0.081753
     13 C                     0.204921
     14 O                    -0.204409
     15 O                    -0.170841
     16 O                    -0.175768
     17 O                    -0.202951
     18 C                    -0.129767
     19 C                     0.025732
     20 C                    -0.144166
     21 C                    -0.142414
     22 C                     0.026914
     23 O                    -0.188766
     24 H                     0.112742
     25 H                     0.083346
     26 H                     0.081973
     27 H                     0.074561
     28 H                     0.071469
     29 H                     0.076030
     30 H                     0.072842
     31 H                     0.082189
     32 O                    -0.198662
     33 C                    -0.128597
     34 C                     0.024589
     35 C                    -0.145171
     36 C                    -0.143014
     37 C                     0.030253
     38 O                    -0.183958
     39 H                     0.085022
     40 H                     0.086246
     41 H                     0.089742
     42 H                     0.093601
     43 H                     0.077760
     44 H                     0.075397
     45 H                     0.078924
     46 H                     0.076783
     47 H                     0.087354
     48 H                     0.094422
     49 H                     0.090315
     50 H                     0.087537
     51 H                     0.088424
     52 H                     0.086368
     53 H                     0.081310
     54 H                     0.092334
     55 H                     0.085528
     56 H                     0.084385
  ----------------------------------------
  Sum of atomic charges =    -0.000000

                    Cartesian Multipole Moments
 -----------------------------------------------------------------
    Charge (ESU x 10^10)
                 0.0000
    Dipole Moment (Debye)
         X      -0.1028      Y       3.0566      Z      -2.8056
       Tot       4.1502
    Quadrupole Moments (Debye-Ang)
        XX    -166.4005     XY       4.4083     YY    -154.3629
        XZ       4.7515     YZ       3.0624     ZZ    -155.2390

 Total job time:  69.84s(wall), 3326.70s(cpu)
        *  Thank you very much for using Q-Chem.  Have a nice day.  *
