 Q-Chem 5.0, Q-Chem, Inc., Pleasanton, CA (2017)
 Q-Chem 5.0.1 for Intel X86 EM64T Linux

User input:
--------------------------------------------------------------
$molecule
0  1
O -3.94934 -3.66094 2.70899
C -3.26408 -4.56952 2.26188
C -3.36658 -6.02376 2.66595
C -4.66266 -6.76517 2.29943
C -5.63801 -6.02118 1.41441
O -6.7344 -6.79971 1.17517
C -7.26586 -7.40311 2.35953
C -6.15732 -7.61153 3.3861
O -6.7272 -7.79023 4.69231
C -6.38873 -8.94177 5.32361
C -7.49926 -9.96515 5.31623
C -8.24477 -10.12101 6.64972
C -8.02618 -9.01475 7.66219
O -8.90607 -8.33489 8.17027
O -2.35042 -4.23246 1.30693
O -6.75785 -8.86897 8.1287
O -5.29843 -9.11194 5.84822
C -6.37652 -7.94555 9.07961
C -8.76628 -9.73567 4.43561
C -9.43195 -11.07414 4.1063
C -10.03235 -11.42472 5.44484
C -9.71285 -10.14439 6.21969
O -9.72697 -9.12781 5.26008
H -7.03732 -10.90707 4.94446
H -7.93797 -11.05531 7.16987
H -8.60006 -9.23808 3.50176
H -10.26501 -10.85377 3.39926
H -8.7769 -11.85071 3.65614
H -11.12977 -11.55798 5.31835
H -9.59302 -12.31633 5.94286
H -10.41539 -10.0261 7.07376
O -5.3317 -5.13072 0.63596
C -2.15275 -2.95613 0.82198
C -2.28387 -6.82501 1.8493
C -2.05181 -8.24113 2.39969
C -3.25753 -8.95124 1.81702
C -4.01523 -7.75359 1.21701
O -2.95205 -7.03507 0.64141
H -3.02944 -5.87803 3.75501
H -4.14906 -7.27659 3.2062
H -1.84356 -2.27743 1.64535
H -1.3033 -6.30465 1.78373
H -1.1323 -8.70754 1.98161
H -1.99944 -8.22008 3.51004
H -2.91556 -9.56487 0.9519
H -3.79868 -9.61815 2.51834
H -4.74002 -8.14733 0.46764
H -3.0853 -2.57738 0.35164
H -1.35023 -2.97846 0.05657
H -5.28799 -8.04618 9.26775
H -6.92238 -8.12621 10.03022
H -6.58312 -6.91614 8.71633
H -5.68352 -8.61419 3.12382
H -6.05163 -6.55232 3.85945
H -7.65713 -8.36683 1.99958
H -8.09075 -6.76828 2.75233
$end

$opt
CONSTRAINT
tors           1           2           3           4     +66.316
tors           3           4           5           6    -180.000
tors           4           5           6           7     +47.368
tors           5           6           7           8     -28.421
tors           6           7           8           9    +161.053
tors           7           8           9          10    +123.158
tors           8           9          10          11    -104.211
tors           9          10          11          12    -104.211
tors          11          12          13          14    +123.158
ENDCONSTRAINT
$end

$rem
JOBTYPE                   OPT
METHOD                    B3LYP
DFT_D                     d3_op
BASIS                     STO-3G
GEOM_OPT_MAX_CYCLES       100
GEOM_OPT_TOL_GRADIENT     300
GEOM_OPT_TOL_DISPLACEMENT 1200
GEOM_OPT_TOL_ENERGY       100
SYMMETRY                  False
THRESH                    12
SCF_CONVERGENCE           8
MAX_SUB_FILE_NUM          128
MEM_STATIC                400
MEM_TOTAL                 4000
$end
--------------------------------------------------------------

   16   -1509.8317237692      5.05E-09 Convergence criterion met
 Total energy in the final basis set = -1509.83172377
   15   -1509.9430871496      4.90E-09 Convergence criterion met
 Total energy in the final basis set = -1509.94308715
   14   -1510.0220779808      3.92E-09 Convergence criterion met
 Total energy in the final basis set = -1510.02207798
   14   -1510.0780766340      3.59E-09 Convergence criterion met
 Total energy in the final basis set = -1510.07807663
   13   -1510.1197823797      9.62E-09 Convergence criterion met
 Total energy in the final basis set = -1510.11978238
   13   -1510.1512080930      8.14E-09 Convergence criterion met
 Total energy in the final basis set = -1510.15120809
   13   -1510.1750526471      6.53E-09 Convergence criterion met
 Total energy in the final basis set = -1510.17505265
   13   -1510.1928942467      7.55E-09 Convergence criterion met
   11   -1510.2240751071      4.85E-09 Convergence criterion met
 Total energy in the final basis set = -1510.22407511
   10   -1510.2240798656      9.72E-09 Convergence criterion met
 Total energy in the final basis set = -1510.22407987
   10   -1510.2240828112      5.07E-09 Convergence criterion met
 Total energy in the final basis set = -1510.22408281
    9   -1510.2240858002      8.24E-09 Convergence criterion met
 Total energy in the final basis set = -1510.22408580
    9   -1510.2240871004      4.82E-09 Convergence criterion met
 Total energy in the final basis set = -1510.22408710
    9   -1510.2240881504      3.21E-09 Convergence criterion met
 Total energy in the final basis set = -1510.22408815

             Standard Nuclear Orientation (Angstroms)
    I     Atom           X                Y                Z
 ----------------------------------------------------------------
    1      O      -4.6016105380     1.4902288245     1.8252061954
    2      C      -4.9894380967     0.8399967405     0.8297005958
    3      C      -4.2644108761     0.7694229203    -0.5684353967
    4      C      -2.8552356213     0.0464938605    -0.5319333263
    5      C      -2.6784666788    -0.8195565538     0.7771372117
    6      O      -1.4795718525    -1.5647570327     1.0271567289
    7      C      -0.1045738858    -1.0304110770     0.8822700107
    8      C       0.2909127058     0.1226804786    -0.1242693506
    9      O       1.5880615855     0.6978616039     0.3203774243
   10      C       2.5772367831     0.6144174913    -0.7550896884
   11      C       3.6803955052    -0.5092972018    -0.6111171748
   12      C       5.1245718198     0.0107140784    -0.1669352259
   13      C       5.1956137726     1.5022773736     0.3306495507
   14      O       5.6187383389     1.8995237386     1.4377692204
   15      O      -6.2223111242     0.1143929430     0.7686851513
   16      O       4.7640944715     2.3686882686    -0.7197685320
   17      O       2.4826947345     1.3446148287    -1.7646403809
   18      C       4.8091981406     3.7791667317    -0.2700326190
   19      C       3.4264046585    -1.6142617771     0.4984735999
   20      C       4.2768863446    -2.8899493183     0.1160484814
   21      C       5.7283037297    -2.4070963159     0.4858549777
   22      C       5.4343106463    -0.9600658850     1.0435323453
   23      O       4.1118870388    -1.0913480771     1.6993533536
   24      H       3.7556425332    -0.9686498403    -1.6140705896
   25      H       5.8446765907    -0.1090022070    -0.9975174990
   26      H       2.3652966278    -1.8124630307     0.7229124858
   27      H       3.9692647780    -3.7502454173     0.7316473612
   28      H       4.1734510790    -3.1608217096    -0.9468453697
   29      H       6.1794574043    -3.0392141710     1.2667909075
   30      H       6.4027133939    -2.3845704761    -0.3851578638
   31      H       6.1772587586    -0.5526762907     1.7565311589
   32      O      -3.6540902553    -1.1048967081     1.5124801996
   33      C      -6.8779820115     0.1328961915     2.0948459380
   34      C      -5.0082840783    -0.0650616968    -1.6974266615
   35      C      -4.4892199160     0.4548891640    -3.0954501411
   36      C      -3.0260709550    -0.1249224045    -3.1042646490
   37      C      -3.0141960664    -0.9544035926    -1.7589021575
   38      O      -4.4109771484    -1.4188029315    -1.6064781882
   39      H      -4.1203780998     1.8135897952    -0.9015911327
   40      H      -2.0425131163     0.7670525845    -0.6872969832
   41      H      -7.0900232270     1.1677281080     2.4337499321
   42      H      -6.1068843777    -0.1179191076    -1.5770653207
   43      H      -5.0938072030     0.0287489946    -3.9119464208
   44      H      -4.5140068796     1.5536915025    -3.1716232176
   45      H      -2.8563355077    -0.7881824915    -3.9672821236
   46      H      -2.2568385990     0.6643380744    -3.1101042251
   47      H      -2.3142696115    -1.8129211097    -1.7392664289
   48      H      -6.2497626043    -0.3683867999     2.8592035314
   49      H      -7.8274016641    -0.4206294522     1.9739132335
   50      H       4.4594042614     4.3814212670    -1.1284548592
   51      H       5.8381015273     4.0865850688     0.0079276918
   52      H       4.1424256681     3.9497172956     0.5997274379
   53      H       0.3071122520    -0.2404534861    -1.1726689508
   54      H      -0.4472257415     0.9470666161    -0.0541003044
   55      H       0.4915294853    -1.9349209256     0.6414068715
   56      H       0.2195958237    -0.6770499754     1.8887380145
 ----------------------------------------------------------------

    9   -1510.2240891101      2.80E-09 Convergence criterion met
 Total energy in the final basis set = -1510.22408911
 Final energy is   -1510.22408911007
 **  OPTIMIZATION CONVERGED  **

                    Orbital Energies (a.u.)
 --------------------------------------------------------------

 Alpha MOs
 -- Occupied --
-18.939 -18.931 -18.922 -18.913 -18.911 -18.893 -18.890 -18.889
-18.879 -18.855 -10.117 -10.110 -10.103 -10.090 -10.086 -10.083
-10.066 -10.066 -10.066 -10.062 -10.058 -10.053 -10.047 -10.044
-10.042 -10.034 -10.026 -10.025 -10.025 -10.021  -1.019  -1.013
 -1.011  -0.996  -0.976  -0.972  -0.946  -0.940  -0.937  -0.922
 -0.768  -0.764  -0.729  -0.724  -0.718  -0.710  -0.708  -0.666
 -0.652  -0.624  -0.605  -0.590  -0.554  -0.547  -0.544  -0.539
 -0.522  -0.513  -0.493  -0.480  -0.470  -0.467  -0.460  -0.446
 -0.441  -0.437  -0.432  -0.417  -0.411  -0.409  -0.405  -0.400
 -0.397  -0.393  -0.384  -0.375  -0.366  -0.355  -0.354  -0.354
 -0.349  -0.342  -0.338  -0.335  -0.333  -0.331  -0.321  -0.318
 -0.314  -0.312  -0.310  -0.305  -0.299  -0.291  -0.283  -0.280
 -0.274  -0.258  -0.250  -0.244  -0.239  -0.238  -0.233  -0.181
 -0.178  -0.169  -0.164  -0.163  -0.157  -0.156  -0.149  -0.147
 -0.137

          Ground-State Mulliken Net Atomic Charges

     Atom                 Charge (a.u.)
  ----------------------------------------
      1 O                    -0.224758
      2 C                     0.215745
      3 C                    -0.080225
      4 C                    -0.083326
      5 C                     0.216651
      6 O                    -0.177427
      7 C                    -0.048889
      8 C                    -0.051335
      9 O                    -0.191750
     10 C                     0.218259
     11 C                    -0.081296
     12 C                    -0.077085
     13 C                     0.207408
     14 O                    -0.209396
     15 O                    -0.170368
     16 O                    -0.168261
     17 O                    -0.175791
     18 C                    -0.127709
     19 C                     0.022685
     20 C                    -0.143905
     21 C                    -0.144636
     22 C                     0.024043
     23 O                    -0.187096
     24 H                     0.085598
     25 H                     0.086079
     26 H                     0.080445
     27 H                     0.079227
     28 H                     0.072416
     29 H                     0.079866
     30 H                     0.073777
     31 H                     0.092425
     32 O                    -0.184586
     33 C                    -0.126827
     34 C                     0.024257
     35 C                    -0.143280
     36 C                    -0.145136
     37 C                     0.022643
     38 O                    -0.187590
     39 H                     0.080988
     40 H                     0.080842
     41 H                     0.086144
     42 H                     0.094478
     43 H                     0.078412
     44 H                     0.073722
     45 H                     0.078303
     46 H                     0.072358
     47 H                     0.080711
     48 H                     0.093922
     49 H                     0.087747
     50 H                     0.093450
     51 H                     0.089446
     52 H                     0.091470
     53 H                     0.082111
     54 H                     0.085144
     55 H                     0.084623
     56 H                     0.095276
  ----------------------------------------
  Sum of atomic charges =     0.000000

                    Cartesian Multipole Moments
 -----------------------------------------------------------------
    Charge (ESU x 10^10)
                 0.0000
    Dipole Moment (Debye)
         X       2.0547      Y      -0.1043      Z      -3.8096
       Tot       4.3297
    Quadrupole Moments (Debye-Ang)
        XX    -154.5031     XY     -12.0602     YY    -158.4077
        XZ      -2.1633     YZ      -0.6222     ZZ    -166.9134

 Total job time:  94.37s(wall), 4495.16s(cpu)
        *  Thank you very much for using Q-Chem.  Have a nice day.  *
