 Q-Chem 5.0, Q-Chem, Inc., Pleasanton, CA (2017)
 Q-Chem 5.0.1 for Intel X86 EM64T Linux

User input:
--------------------------------------------------------------
$molecule
0  1
O -4.601610538 1.4902288245 1.8252061954
C -4.9894380967 0.8399967405 0.8297005958
C -4.2644108761 0.7694229203 -0.5684353967
C -2.8552356213 0.0464938605 -0.5319333263
C -2.6784666788 -0.8195565538 0.7771372117
O -1.4795718525 -1.5647570327 1.0271567289
C -0.1045738858 -1.030411077 0.8822700107
C 0.2909127058 0.1226804786 -0.1242693506
O 1.5880615855 0.6978616039 0.3203774243
C 2.5772367831 0.6144174913 -0.7550896884
C 3.6803955052 -0.5092972018 -0.6111171748
C 5.1245718198 0.0107140784 -0.1669352259
C 5.1956137726 1.5022773736 0.3306495507
O 5.6187383389 1.8995237386 1.4377692204
O -6.2223111242 0.114392943 0.7686851513
O 4.7640944715 2.3686882686 -0.719768532
O 2.4826947345 1.3446148287 -1.7646403809
C 4.8091981406 3.7791667317 -0.270032619
C 3.4264046585 -1.6142617771 0.4984735999
C 4.2768863446 -2.8899493183 0.1160484814
C 5.7283037297 -2.4070963159 0.4858549777
C 5.4343106463 -0.960065885 1.0435323453
O 4.1118870388 -1.0913480771 1.6993533536
H 3.7556425332 -0.9686498403 -1.6140705896
H 5.8446765907 -0.109002207 -0.997517499
H 2.3652966278 -1.8124630307 0.7229124858
H 3.969264778 -3.7502454173 0.7316473612
H 4.173451079 -3.1608217096 -0.9468453697
H 6.1794574043 -3.039214171 1.2667909075
H 6.4027133939 -2.3845704761 -0.3851578638
H 6.1772587586 -0.5526762907 1.7565311589
O -3.6540902553 -1.1048967081 1.5124801996
C -6.8779820115 0.1328961915 2.094845938
C -5.0082840783 -0.0650616968 -1.6974266615
C -4.489219916 0.454889164 -3.0954501411
C -3.026070955 -0.1249224045 -3.104264649
C -3.0141960664 -0.9544035926 -1.7589021575
O -4.4109771484 -1.4188029315 -1.6064781882
H -4.1203780998 1.8135897952 -0.9015911327
H -2.0425131163 0.7670525845 -0.6872969832
H -7.090023227 1.167728108 2.4337499321
H -6.1068843777 -0.1179191076 -1.5770653207
H -5.093807203 0.0287489946 -3.9119464208
H -4.5140068796 1.5536915025 -3.1716232176
H -2.8563355077 -0.7881824915 -3.9672821236
H -2.256838599 0.6643380744 -3.1101042251
H -2.3142696115 -1.8129211097 -1.7392664289
H -6.2497626043 -0.3683867999 2.8592035314
H -7.8274016641 -0.4206294522 1.9739132335
H 4.4594042614 4.381421267 -1.1284548592
H 5.8381015273 4.0865850688 0.0079276918
H 4.1424256681 3.9497172956 0.5997274379
H 0.307112252 -0.2404534861 -1.1726689508
H -0.4472257415 0.9470666161 -0.0541003044
H 0.4915294853 -1.9349209256 0.6414068715
H 0.2195958237 -0.6770499754 1.8887380145
$end

$rem
JOBTYPE                   OPT
METHOD                    B3LYP
DFT_D                     d3_op
BASIS                     STO-3G
GEOM_OPT_MAX_CYCLES       100
GEOM_OPT_TOL_GRADIENT     300
GEOM_OPT_TOL_DISPLACEMENT 1200
GEOM_OPT_TOL_ENERGY       100
SYMMETRY                  False
THRESH                    12
SCF_CONVERGENCE           8
MAX_SUB_FILE_NUM          128
MEM_STATIC                400
MEM_TOTAL                 4000
$end
--------------------------------------------------------------

   16   -1510.2238741184      6.07E-09 Convergence criterion met
 Total energy in the final basis set = -1510.22387412
   14   -1510.2287930515      4.53E-09 Convergence criterion met
 Total energy in the final basis set = -1510.22879305
   14   -1510.2344410108      2.28E-09 Convergence criterion met
 Total energy in the final basis set = -1510.23444101
   14   -1510.2224252166      3.27E-09 Convergence criterion met
 Total energy in the final basis set = -1510.22242522
   14   -1510.2367812612      2.09E-09 Convergence criterion met
 Total energy in the final basis set = -1510.23678126
   14   -1510.2446301896      6.53E-09 Convergence criterion met
 Total energy in the final basis set = -1510.24463019
   13   -1510.2499869372      6.65E-09 Convergence criterion met
 Total energy in the final basis set = -1510.24998694
   14   -1510.2529129485      6.23E-09 Convergence criterion met
   12   -1510.2987379781      2.87E-09 Convergence criterion met
 Total energy in the final basis set = -1510.29873798
   11   -1510.2987418996      6.49E-09 Convergence criterion met
 Total energy in the final basis set = -1510.29874190
   12   -1510.2987431427      3.16E-09 Convergence criterion met
 Total energy in the final basis set = -1510.29874314
   12   -1510.2987364851      3.80E-09 Convergence criterion met
 Total energy in the final basis set = -1510.29873649
   11   -1510.2987332816      4.11E-09 Convergence criterion met
 Total energy in the final basis set = -1510.29873328
    9   -1510.2987344864      5.54E-09 Convergence criterion met
 Total energy in the final basis set = -1510.29873449

             Standard Nuclear Orientation (Angstroms)
    I     Atom           X                Y                Z
 ----------------------------------------------------------------
    1      O      -0.9252697484     1.8498567714    -0.1624890181
    2      C      -2.0820927544     1.5766834166     0.2506817894
    3      C      -3.3691902418     1.4538655674    -0.6537060606
    4      C      -3.2459595361     0.3574675828    -1.8005707713
    5      C      -1.8664081976    -0.3788085022    -1.7889807652
    6      O      -1.1542100178    -0.0017321912    -2.9768627137
    7      C       0.2524541364    -0.4612583510    -2.8852653996
    8      C       1.0885599346     0.5642151189    -2.0243306933
    9      O       1.9681191669    -0.1782292515    -1.0930674000
   10      C       3.3498052206     0.1163219723    -1.3236534956
   11      C       4.1728251170    -0.6796625509    -0.2583735160
   12      C       3.5633151392    -0.5650635454     1.2013639537
   13      C       2.3433485441     0.4206025296     1.3179465308
   14      O       1.2240401454     0.1553834061     1.8145762368
   15      O      -2.4280503272     1.3790196145     1.6061351784
   16      O       2.7640432707     1.6996743539     0.8504011575
   17      O       3.7791488649     0.8603541625    -2.2319844112
   18      C       1.6846426412     2.7080350097     0.9912124248
   19      C       4.0453435203    -2.2488737557    -0.4950684565
   20      C       5.1119880105    -2.9849798275     0.4111818925
   21      C       4.4313225044    -2.8884280456     1.8281577328
   22      C       3.1321511276    -2.0642769191     1.4791250823
   23      O       2.7527145318    -2.5785929205     0.1424084932
   24      H       5.2215366453    -0.3377754013    -0.3002929931
   25      H       4.3377522371    -0.2310582054     1.9164685762
   26      H       4.0431331024    -2.5538726052    -1.5597036369
   27      H       5.2312989980    -4.0318743143     0.0897540748
   28      H       6.0964462389    -2.4914948334     0.3764459649
   29      H       4.1638768699    -3.8846618948     2.2149999173
   30      H       5.0633558840    -2.3772602177     2.5717271672
   31      H       2.2844015018    -2.1620204079     2.1848891536
   32      O      -1.4268853288    -1.1572290778    -0.9157908328
   33      C      -1.2597660799     1.5481211542     2.5083579414
   34      C      -4.6407386003     0.9225962431     0.1282529523
   35      C      -5.9230513330     1.2078438697    -0.7515412062
   36      C      -5.7968640277     0.0892989572    -1.8511001234
   37      C      -4.4493449013    -0.6087467697    -1.4169586574
   38      O      -4.4882364264    -0.5490125225     0.0611529620
   39      H      -3.5503248966     2.4509837694    -1.0970494198
   40      H      -3.3850034055     0.8116885608    -2.7970422739
   41      H      -1.0150041223     2.6246375491     2.6129019642
   42      H      -4.6970340190     1.2590953554     1.1803881553
   43      H      -6.8375255772     1.0822055221    -0.1503064917
   44      H      -5.9162280330     2.2244591119    -1.1762211933
   45      H      -6.6332154473    -0.6257371039    -1.7981092696
   46      H      -5.7448696647     0.4974592015    -2.8731638111
   47      H      -4.3238886411    -1.6542971132    -1.7589283874
   48      H      -0.3536964418     0.9916418230     2.1573472660
   49      H      -1.5910826901     1.1580599513     3.4877550373
   50      H       2.0354585189     3.5971496845     0.4363579174
   51      H       1.5453321123     2.9804021154     2.0572323794
   52      H       0.7120463837     2.3534628037     0.5726745289
   53      H       1.7107461135     1.2273893595    -2.6611368882
   54      H       0.3766597546     1.1660827161    -1.4101555924
   55      H       0.6262200064    -0.5270943671    -3.9258293754
   56      H       0.3057045180    -1.4596756382    -2.3986472494
 ----------------------------------------------------------------

    9   -1510.2987347049      3.34E-09 Convergence criterion met
 Total energy in the final basis set = -1510.29873470
 Final energy is   -1510.29873470490
 **  OPTIMIZATION CONVERGED  **

                    Orbital Energies (a.u.)
 --------------------------------------------------------------

 Alpha MOs
 -- Occupied --
-18.946 -18.930 -18.926 -18.926 -18.886 -18.884 -18.884 -18.875
-18.871 -18.871 -10.112 -10.102 -10.095 -10.093 -10.061 -10.059
-10.058 -10.057 -10.053 -10.048 -10.044 -10.043 -10.041 -10.036
-10.035 -10.033 -10.020 -10.019 -10.018 -10.016  -1.019  -1.012
 -1.005  -1.000  -0.968  -0.966  -0.943  -0.934  -0.933  -0.929
 -0.763  -0.760  -0.724  -0.721  -0.709  -0.702  -0.687  -0.660
 -0.650  -0.613  -0.594  -0.577  -0.545  -0.542  -0.535  -0.534
 -0.512  -0.506  -0.483  -0.475  -0.462  -0.454  -0.448  -0.442
 -0.436  -0.430  -0.427  -0.418  -0.408  -0.405  -0.398  -0.394
 -0.381  -0.377  -0.376  -0.367  -0.361  -0.357  -0.351  -0.345
 -0.342  -0.334  -0.332  -0.328  -0.326  -0.323  -0.316  -0.308
 -0.307  -0.304  -0.301  -0.297  -0.290  -0.286  -0.283  -0.275
 -0.271  -0.260  -0.247  -0.240  -0.237  -0.231  -0.230  -0.184
 -0.178  -0.175  -0.164  -0.157  -0.155  -0.147  -0.146  -0.142
 -0.139

          Ground-State Mulliken Net Atomic Charges

     Atom                 Charge (a.u.)
  ----------------------------------------
      1 O                    -0.224720
      2 C                     0.224777
      3 C                    -0.076953
      4 C                    -0.080152
      5 C                     0.205768
      6 O                    -0.174005
      7 C                    -0.054786
      8 C                    -0.068045
      9 O                    -0.169977
     10 C                     0.213362
     11 C                    -0.078191
     12 C                    -0.077135
     13 C                     0.226784
     14 O                    -0.216567
     15 O                    -0.160140
     16 O                    -0.173914
     17 O                    -0.215184
     18 C                    -0.147378
     19 C                     0.025799
     20 C                    -0.144118
     21 C                    -0.143785
     22 C                     0.025169
     23 O                    -0.184497
     24 H                     0.085016
     25 H                     0.083062
     26 H                     0.081409
     27 H                     0.077623
     28 H                     0.073242
     29 H                     0.077995
     30 H                     0.072386
     31 H                     0.091865
     32 O                    -0.205071
     33 C                    -0.147394
     34 C                     0.024071
     35 C                    -0.144580
     36 C                    -0.143830
     37 C                     0.026022
     38 O                    -0.185418
     39 H                     0.084526
     40 H                     0.085967
     41 H                     0.074897
     42 H                     0.093112
     43 H                     0.077983
     44 H                     0.072219
     45 H                     0.078146
     46 H                     0.073471
     47 H                     0.084934
     48 H                     0.126053
     49 H                     0.086765
     50 H                     0.084330
     51 H                     0.074602
     52 H                     0.114961
     53 H                     0.094102
     54 H                     0.107473
     55 H                     0.085889
     56 H                     0.102058
  ----------------------------------------
  Sum of atomic charges =    -0.000000

                    Cartesian Multipole Moments
 -----------------------------------------------------------------
    Charge (ESU x 10^10)
                 0.0000
    Dipole Moment (Debye)
         X      -0.2224      Y       1.5280      Z       0.1896
       Tot       1.5557
    Quadrupole Moments (Debye-Ang)
        XX    -144.8189     XY     -13.3267     YY    -157.0021
        XZ      12.2642     YZ       4.8619     ZZ    -154.8723

 Total job time:  190.08s(wall), 9061.54s(cpu)
        *  Thank you very much for using Q-Chem.  Have a nice day.  *
