 Q-Chem 5.0, Q-Chem, Inc., Pleasanton, CA (2017)
 Q-Chem 5.0.1 for Intel X86 EM64T Linux

User input:
--------------------------------------------------------------
$molecule
0  1
O -3.94934 -3.66094 2.70899
C -3.26408 -4.56952 2.26188
C -3.36658 -6.02376 2.66595
C -4.41631 -6.88207 1.94122
C -5.12384 -6.23632 0.77054
O -5.31972 -7.15744 -0.2187
C -4.74751 -6.76828 -1.47185
C -3.27691 -7.16906 -1.52525
O -3.04045 -8.01213 -2.66376
C -1.74646 -8.11095 -3.05745
C -1.19198 -6.81036 -3.58817
C -0.64027 -5.85721 -2.51794
C -0.39486 -6.46759 -1.15269
O -1.00349 -7.41716 -0.68102
O -2.29175 -4.27576 1.35903
O 0.5383 -5.8529 -0.37784
O -1.25931 -9.19729 -3.33081
C 1.18869 -6.45248 0.67943
C 0.0453 -6.99424 -4.49395
C 0.19314 -5.78712 -5.41733
C 0.62018 -4.73038 -4.42506
C 0.74688 -5.58322 -3.15668
O 1.13715 -6.84797 -3.62711
H -1.99454 -6.34381 -4.20427
H -1.19014 -4.89861 -2.39123
H 0.0224 -7.92559 -5.10071
H 1.04748 -6.0015 -6.09917
H -0.70344 -5.53458 -6.02336
H 1.61337 -4.33839 -4.73877
H -0.09437 -3.89063 -4.28467
H 1.46181 -5.08932 -2.46386
O -5.72064 -5.17059 0.80994
C -2.04267 -3.01487 0.86141
C -2.13298 -6.91901 2.5998
C -2.22095 -8.01793 3.65972
C -3.33487 -8.87556 3.08693
C -3.58334 -8.16426 1.74745
O -2.31217 -7.65593 1.4244
H -3.61411 -5.94146 3.74982
H -5.25857 -7.09071 2.6386
H -1.76755 -2.32454 1.68712
H -1.19517 -6.34274 2.71572
H -1.26773 -8.59201 3.61081
H -2.38082 -7.67022 4.70303
H -2.93297 -9.89947 2.91853
H -4.25721 -8.93076 3.70457
H -4.04861 -8.88303 1.0404
H -2.93975 -2.63 0.33097
H -1.19887 -3.06924 0.14302
H 1.86796 -5.71607 1.15529
H 1.79213 -7.30865 0.30994
H 0.47328 -6.82418 1.42998
H -2.80197 -6.18347 -1.48017
H -3.15905 -7.86086 -0.69772
H -4.96739 -5.71977 -1.78033
H -5.28051 -7.39742 -2.21717
$end

$opt
CONSTRAINT
tors           1           2           3           4     +85.263
tors           3           4           5           6    +142.105
tors           4           5           6           7    -123.158
tors           5           6           7           8     +85.263
tors           6           7           8           9    +123.158
tors           7           8           9          10    +161.053
tors           8           9          10          11     -66.316
tors           9          10          11          12     +85.263
tors          11          12          13          14     -28.421
ENDCONSTRAINT
$end

$rem
JOBTYPE                   OPT
METHOD                    B3LYP
DFT_D                     d3_op
BASIS                     STO-3G
GEOM_OPT_MAX_CYCLES       100
GEOM_OPT_TOL_GRADIENT     300
GEOM_OPT_TOL_DISPLACEMENT 1200
GEOM_OPT_TOL_ENERGY       100
SYMMETRY                  False
THRESH                    12
SCF_CONVERGENCE           8
MAX_SUB_FILE_NUM          128
MEM_STATIC                400
MEM_TOTAL                 4000
$end
--------------------------------------------------------------

   15   -1510.0831772994      6.96E-09 Convergence criterion met
 Total energy in the final basis set = -1510.08317730
   14   -1510.1570059017      7.67E-09 Convergence criterion met
 Total energy in the final basis set = -1510.15700590
   14   -1510.2019287394      8.81E-09 Convergence criterion met
 Total energy in the final basis set = -1510.20192874
   14   -1510.2253363330      5.92E-09 Convergence criterion met
 Total energy in the final basis set = -1510.22533633
   13   -1510.2376188719      9.35E-09 Convergence criterion met
 Total energy in the final basis set = -1510.23761887
   14   -1510.2439450310      4.20E-09 Convergence criterion met
 Total energy in the final basis set = -1510.24394503
   13   -1510.2472570738      2.67E-09 Convergence criterion met
 Total energy in the final basis set = -1510.24725707
   13   -1510.2489589421      3.01E-09 Convergence criterion met
   11   -1510.2497297675      5.04E-09 Convergence criterion met
 Total energy in the final basis set = -1510.24972977
   11   -1510.2497505262      5.72E-09 Convergence criterion met
 Total energy in the final basis set = -1510.24975053
   11   -1510.2497643750      5.41E-09 Convergence criterion met
 Total energy in the final basis set = -1510.24976438
   10   -1510.2497774669      9.46E-09 Convergence criterion met
 Total energy in the final basis set = -1510.24977747
   11   -1510.2497788936      3.33E-09 Convergence criterion met
 Total energy in the final basis set = -1510.24977889
   11   -1510.2497862393      2.72E-09 Convergence criterion met
 Total energy in the final basis set = -1510.24978624

             Standard Nuclear Orientation (Angstroms)
    I     Atom           X                Y                Z
 ----------------------------------------------------------------
    1      O      -3.6261124021    -1.8210981578     2.2834005950
    2      C      -3.0130036875    -1.4988297481     1.2437875279
    3      C      -3.5871508492    -0.7345372819    -0.0016048845
    4      C      -3.5829461239     0.8528495050     0.1075037099
    5      C      -2.8795875180     1.3992410047     1.4174106913
    6      O      -2.1124192558     2.6103244917     1.1821355348
    7      C      -0.7141825677     2.3539321567     1.6138354804
    8      C       0.1640882021     1.6691683965     0.4907390625
    9      O       1.3282088629     2.5387550323     0.2578282144
   10      C       2.4457050840     1.8813511309    -0.4062647127
   11      C       3.1578366443     0.7352212806     0.4394964302
   12      C       2.4951804936    -0.6958623416     0.3393996197
   13      C       1.6787741272    -0.7813140065    -1.0041744489
   14      O       1.1482071283     0.1907530520    -1.5919765892
   15      O      -1.6068929647    -1.7086196544     1.0459734166
   16      O       1.5419906304    -2.1327530245    -1.4281124578
   17      O       2.9880248786     2.4544781595    -1.3750119975
   18      C       0.7367961798    -2.1854523682    -2.6725652085
   19      C       4.6455178535     0.4124703487    -0.0067759437
   20      C       5.4012263742    -0.1202466734     1.2702095219
   21      C       4.6903587282    -1.5125198442     1.4673277381
   22      C       3.7906390786    -1.5924919760     0.1696159283
   23      O       4.5352570372    -0.8059330927    -0.8450843145
   24      H       3.1412868932     1.0795820277     1.4901962326
   25      H       1.8625330276    -0.9643032584     1.2047113623
   26      H       5.1401955829     1.2278696713    -0.5695874527
   27      H       6.4745470415    -0.2462332278     1.0551750305
   28      H       5.2879423197     0.5462526243     2.1400036107
   29      H       5.4138948072    -2.3425182367     1.4927836431
   30      H       4.0823709844    -1.5482402673     2.3859618171
   31      H       3.5823537371    -2.6127020213    -0.2060717048
   32      O      -2.9229085196     0.8451943235     2.5363090796
   33      C      -1.0227646404    -2.3660351985     2.2356371103
   34      C      -2.7471495378    -0.9361562739    -1.3351977471
   35      C      -3.6920159290    -0.6139135360    -2.5580097519
   36      C      -3.7880960775     0.9543007359    -2.4573950878
   37      C      -2.8384351920     1.2456387675    -1.2298713014
   38      O      -1.7935220627     0.1989917612    -1.3432516893
   39      H      -4.6251045994    -1.0873407482    -0.1389837339
   40      H      -4.6229006667     1.2316119541     0.1033939985
   41      H      -1.4619403154    -3.3700237911     2.4070957272
   42      H      -2.2033572067    -1.8982018453    -1.3906961985
   43      H      -3.2201761380    -0.9291305700    -3.5023967089
   44      H      -4.6720224967    -1.1091292215    -2.4693799532
   45      H      -3.4002161693     1.4431819573    -3.3651098502
   46      H      -4.8166938762     1.3065560371    -2.2783864162
   47      H      -2.3835009227     2.2542725340    -1.2043953527
   48      H      -1.1715667419    -1.7570902039     3.1510168490
   49      H       0.0581941687    -2.4697940594     2.0268406734
   50      H       0.4653169154    -3.2470882501    -2.8183346705
   51      H       1.3266629868    -1.8310828404    -3.5425729128
   52      H      -0.1757033956    -1.5615910668    -2.5865303164
   53      H       0.4572823747     0.6649064614     0.8570206101
   54      H      -0.4266890113     1.5064079974    -0.4365066011
   55      H      -0.7018971419     1.7500650455     2.5456685094
   56      H      -0.2750215348     3.3502165124     1.8330558401
 ----------------------------------------------------------------

   10   -1510.2497860587      4.64E-09 Convergence criterion met
 Total energy in the final basis set = -1510.24978606
 Final energy is   -1510.24978605875
 **  OPTIMIZATION CONVERGED  **

                    Orbital Energies (a.u.)
 --------------------------------------------------------------

 Alpha MOs
 -- Occupied --
-18.948 -18.937 -18.915 -18.899 -18.896 -18.895 -18.890 -18.886
-18.879 -18.868 -10.109 -10.108 -10.103 -10.090 -10.069 -10.069
-10.067 -10.065 -10.064 -10.061 -10.057 -10.054 -10.045 -10.044
-10.043 -10.030 -10.026 -10.025 -10.023 -10.020  -1.023  -1.017
 -1.010  -0.986  -0.978  -0.970  -0.945  -0.941  -0.938  -0.920
 -0.769  -0.763  -0.727  -0.725  -0.714  -0.705  -0.693  -0.667
 -0.666  -0.611  -0.598  -0.579  -0.551  -0.548  -0.544  -0.538
 -0.517  -0.509  -0.487  -0.480  -0.474  -0.462  -0.457  -0.447
 -0.439  -0.433  -0.423  -0.418  -0.417  -0.413  -0.410  -0.400
 -0.386  -0.382  -0.377  -0.376  -0.371  -0.358  -0.353  -0.349
 -0.345  -0.342  -0.338  -0.336  -0.334  -0.327  -0.318  -0.317
 -0.313  -0.311  -0.307  -0.300  -0.296  -0.288  -0.286  -0.282
 -0.273  -0.260  -0.259  -0.247  -0.242  -0.235  -0.222  -0.185
 -0.182  -0.168  -0.165  -0.162  -0.155  -0.152  -0.147  -0.145
 -0.135

          Ground-State Mulliken Net Atomic Charges

     Atom                 Charge (a.u.)
  ----------------------------------------
      1 O                    -0.203963
      2 C                     0.209376
      3 C                    -0.081163
      4 C                    -0.078605
      5 C                     0.214741
      6 O                    -0.185594
      7 C                    -0.052443
      8 C                    -0.054589
      9 O                    -0.193846
     10 C                     0.218867
     11 C                    -0.086985
     12 C                    -0.078741
     13 C                     0.218717
     14 O                    -0.198328
     15 O                    -0.174335
     16 O                    -0.165909
     17 O                    -0.197472
     18 C                    -0.129370
     19 C                     0.022853
     20 C                    -0.141939
     21 C                    -0.145612
     22 C                     0.022475
     23 O                    -0.192079
     24 H                     0.078607
     25 H                     0.081843
     26 H                     0.092287
     27 H                     0.078581
     28 H                     0.073701
     29 H                     0.078334
     30 H                     0.071624
     31 H                     0.088836
     32 O                    -0.191878
     33 C                    -0.129353
     34 C                     0.024233
     35 C                    -0.143580
     36 C                    -0.143958
     37 C                     0.021770
     38 O                    -0.192111
     39 H                     0.085378
     40 H                     0.087330
     41 H                     0.089270
     42 H                     0.085283
     43 H                     0.077689
     44 H                     0.074561
     45 H                     0.081193
     46 H                     0.074983
     47 H                     0.095964
     48 H                     0.092635
     49 H                     0.085220
     50 H                     0.090074
     51 H                     0.092200
     52 H                     0.099815
     53 H                     0.070209
     54 H                     0.104089
     55 H                     0.084602
     56 H                     0.094509
  ----------------------------------------
  Sum of atomic charges =     0.000000

                    Cartesian Multipole Moments
 -----------------------------------------------------------------
    Charge (ESU x 10^10)
                 0.0000
    Dipole Moment (Debye)
         X      -1.0449      Y      -3.2138      Z       0.2877
       Tot       3.3916
    Quadrupole Moments (Debye-Ang)
        XX    -158.5757     XY      -5.9219     YY    -164.0893
        XZ      22.7029     YZ       5.6999     ZZ    -161.8074

 Total job time:  53.79s(wall), 2559.02s(cpu)
        *  Thank you very much for using Q-Chem.  Have a nice day.  *
