 Q-Chem 5.0, Q-Chem, Inc., Pleasanton, CA (2017)
 Q-Chem 5.0.1 for Intel X86 EM64T Linux

User input:
--------------------------------------------------------------
$molecule
0  1
O -3.6261124021 -1.8210981578 2.283400595
C -3.0130036875 -1.4988297481 1.2437875279
C -3.5871508492 -0.7345372819 -0.0016048845
C -3.5829461239 0.852849505 0.1075037099
C -2.879587518 1.3992410047 1.4174106913
O -2.1124192558 2.6103244917 1.1821355348
C -0.7141825677 2.3539321567 1.6138354804
C 0.1640882021 1.6691683965 0.4907390625
O 1.3282088629 2.5387550323 0.2578282144
C 2.445705084 1.8813511309 -0.4062647127
C 3.1578366443 0.7352212806 0.4394964302
C 2.4951804936 -0.6958623416 0.3393996197
C 1.6787741272 -0.7813140065 -1.0041744489
O 1.1482071283 0.190753052 -1.5919765892
O -1.6068929647 -1.7086196544 1.0459734166
O 1.5419906304 -2.1327530245 -1.4281124578
O 2.9880248786 2.4544781595 -1.3750119975
C 0.7367961798 -2.1854523682 -2.6725652085
C 4.6455178535 0.4124703487 -0.0067759437
C 5.4012263742 -0.1202466734 1.2702095219
C 4.6903587282 -1.5125198442 1.4673277381
C 3.7906390786 -1.592491976 0.1696159283
O 4.5352570372 -0.8059330927 -0.8450843145
H 3.1412868932 1.0795820277 1.4901962326
H 1.8625330276 -0.9643032584 1.2047113623
H 5.1401955829 1.2278696713 -0.5695874527
H 6.4745470415 -0.2462332278 1.0551750305
H 5.2879423197 0.5462526243 2.1400036107
H 5.4138948072 -2.3425182367 1.4927836431
H 4.0823709844 -1.5482402673 2.3859618171
H 3.5823537371 -2.6127020213 -0.2060717048
O -2.9229085196 0.8451943235 2.5363090796
C -1.0227646404 -2.3660351985 2.2356371103
C -2.7471495378 -0.9361562739 -1.3351977471
C -3.692015929 -0.613913536 -2.5580097519
C -3.7880960775 0.9543007359 -2.4573950878
C -2.838435192 1.2456387675 -1.2298713014
O -1.7935220627 0.1989917612 -1.3432516893
H -4.6251045994 -1.0873407482 -0.1389837339
H -4.6229006667 1.2316119541 0.1033939985
H -1.4619403154 -3.3700237911 2.4070957272
H -2.2033572067 -1.8982018453 -1.3906961985
H -3.220176138 -0.92913057 -3.5023967089
H -4.6720224967 -1.1091292215 -2.4693799532
H -3.4002161693 1.4431819573 -3.3651098502
H -4.8166938762 1.3065560371 -2.2783864162
H -2.3835009227 2.254272534 -1.2043953527
H -1.1715667419 -1.7570902039 3.151016849
H 0.0581941687 -2.4697940594 2.0268406734
H 0.4653169154 -3.2470882501 -2.8183346705
H 1.3266629868 -1.8310828404 -3.5425729128
H -0.1757033956 -1.5615910668 -2.5865303164
H 0.4572823747 0.6649064614 0.8570206101
H -0.4266890113 1.5064079974 -0.4365066011
H -0.7018971419 1.7500650455 2.5456685094
H -0.2750215348 3.3502165124 1.8330558401
$end

$rem
JOBTYPE                   OPT
METHOD                    B3LYP
DFT_D                     d3_op
BASIS                     STO-3G
GEOM_OPT_MAX_CYCLES       100
GEOM_OPT_TOL_GRADIENT     300
GEOM_OPT_TOL_DISPLACEMENT 1200
GEOM_OPT_TOL_ENERGY       100
SYMMETRY                  False
THRESH                    12
SCF_CONVERGENCE           8
MAX_SUB_FILE_NUM          128
MEM_STATIC                400
MEM_TOTAL                 4000
$end
--------------------------------------------------------------

   16   -1510.2497352769      4.49E-09 Convergence criterion met
 Total energy in the final basis set = -1510.24973528
   14   -1510.2566278229      6.73E-09 Convergence criterion met
 Total energy in the final basis set = -1510.25662782
   14   -1510.2610668948      3.25E-09 Convergence criterion met
 Total energy in the final basis set = -1510.26106689
   14   -1510.2686260549      6.12E-09 Convergence criterion met
 Total energy in the final basis set = -1510.26862605
   15   -1510.2733378463      4.86E-09 Convergence criterion met
 Total energy in the final basis set = -1510.27333785
   14   -1510.2767346014      6.35E-09 Convergence criterion met
 Total energy in the final basis set = -1510.27673460
   13   -1510.2788780232      9.12E-09 Convergence criterion met
 Total energy in the final basis set = -1510.27887802
   13   -1510.2808553769      5.81E-09 Convergence criterion met
   12   -1510.2861257975      3.72E-09 Convergence criterion met
 Total energy in the final basis set = -1510.28612580
   11   -1510.2861259576      7.13E-09 Convergence criterion met
 Total energy in the final basis set = -1510.28612596
   11   -1510.2861319720      3.53E-09 Convergence criterion met
 Total energy in the final basis set = -1510.28613197
   11   -1510.2861481290      6.02E-09 Convergence criterion met
 Total energy in the final basis set = -1510.28614813
   11   -1510.2861461601      2.68E-09 Convergence criterion met
 Total energy in the final basis set = -1510.28614616
    9   -1510.2861476153      4.36E-09 Convergence criterion met
 Total energy in the final basis set = -1510.28614762

             Standard Nuclear Orientation (Angstroms)
    I     Atom           X                Y                Z
 ----------------------------------------------------------------
    1      O      -2.4646050462    -1.0622008450     3.1622933045
    2      C      -2.0103226529    -0.8377697608     2.0206939476
    3      C      -2.7799260228    -1.0459750621     0.6715599790
    4      C      -3.2212797654     0.2996727433    -0.0560520959
    5      C      -2.5132853700     1.5436065529     0.5955685461
    6      O      -1.9389320927     2.3704148443    -0.4168523588
    7      C      -0.9679284926     3.3094915427     0.1961034278
    8      C       0.3743603754     2.5555246547     0.5378685362
    9      O       1.3304264819     2.8381945606    -0.5513231136
   10      C       2.4657815351     1.9448926556    -0.6298522990
   11      C       2.5460235739     0.7323059632     0.3882547814
   12      C       1.7539429380    -0.5711393371    -0.0366858061
   13      C       1.2610763786    -0.4915502130    -1.5229178039
   14      O       1.1529071789     0.5439277762    -2.2167210447
   15      O      -0.6540123504    -0.3948967293     1.7913005403
   16      O       0.9800830842    -1.8129266757    -1.9909154036
   17      O       3.3769829671     2.2521678186    -1.4273021870
   18      C       0.4339960336    -1.7512085236    -3.3654095478
   19      C       4.0232823467     0.1567233608     0.5059801608
   20      C       4.1318918668    -0.5780347766     1.9001651384
   21      C       3.2518341607    -1.8553963379     1.6313833824
   22      C       2.8890797272    -1.6651732158     0.1047575596
   23      O       4.0665728004    -0.9643379294    -0.4606644260
   24      H       2.2123344853     1.0826997443     1.3787664098
   25      H       0.8707630954    -0.7535747687     0.6132449483
   26      H       4.8192633608     0.8922437619     0.2797506973
   27      H       5.1789629680    -0.8489019185     2.1100802635
   28      H       3.7529787930     0.0367322418     2.7324053131
   29      H       3.8247502926    -2.7837665899     1.7828683785
   30      H       2.3508810140    -1.8899897980     2.2639423765
   31      H       2.6817073886    -2.5969055292    -0.4558862417
   32      O      -2.4149256665     1.7627686834     1.8248860137
   33      C      -0.0181170867    -0.1195338884     3.1025276606
   34      C      -1.9318940131    -1.7411570907    -0.4838628749
   35      C      -2.9496164713    -2.3975470439    -1.4941112541
   36      C      -3.5472934973    -1.1177964986    -2.1883093432
   37      C      -2.6914531215     0.0303899594    -1.5207019031
   38      O      -1.3808717167    -0.6060748232    -1.2561234098
   39      H      -3.6694172839    -1.6506636107     0.9225782241
   40      H      -4.3177570913     0.4348807308    -0.0125705391
   41      H      -0.0803950355    -0.9964638285     3.7771705467
   42      H      -1.1129348743    -2.3995749319    -0.1356909426
   43      H      -2.4111719123    -3.0332464666    -2.2151903174
   44      H      -3.7131248664    -3.0074348692    -0.9858120510
   45      H      -3.3896050865    -1.1348166850    -3.2782831474
   46      H      -4.6241025074    -0.9939148697    -1.9907497792
   47      H      -2.5580494437     0.9472210072    -2.1254037500
   48      H      -0.5006166817     0.7467345019     3.5990125196
   49      H       1.0403027437     0.1145949655     2.8930125112
   50      H       0.2915340338    -2.7993457022    -3.6865918578
   51      H       1.1282040521    -1.2365083479    -4.0601471592
   52      H      -0.5394839997    -1.2199138240    -3.3633417600
   53      H       0.7705599925     2.9282385110     1.5099385026
   54      H       0.1425482228     1.4738428332     0.6482469168
   55      H      -1.3962428546     3.7662581378     1.1133986560
   56      H      -0.7751379241     4.0928103019    -0.5640118299
 ----------------------------------------------------------------

    9   -1510.2861484059      1.72E-09 Convergence criterion met
 Total energy in the final basis set = -1510.28614841
 Final energy is   -1510.28614840587
 **  OPTIMIZATION CONVERGED  **

                    Orbital Energies (a.u.)
 --------------------------------------------------------------

 Alpha MOs
 -- Occupied --
-18.948 -18.945 -18.927 -18.913 -18.900 -18.889 -18.885 -18.880
-18.869 -18.853 -10.112 -10.111 -10.093 -10.086 -10.077 -10.074
-10.071 -10.069 -10.068 -10.056 -10.053 -10.052 -10.050 -10.048
-10.030 -10.029 -10.027 -10.024 -10.018 -10.017  -1.027  -1.019
 -1.005  -0.987  -0.982  -0.964  -0.949  -0.947  -0.929  -0.920
 -0.773  -0.756  -0.734  -0.721  -0.718  -0.702  -0.699  -0.672
 -0.655  -0.619  -0.593  -0.589  -0.556  -0.547  -0.543  -0.534
 -0.523  -0.504  -0.492  -0.482  -0.475  -0.461  -0.454  -0.448
 -0.443  -0.430  -0.425  -0.419  -0.419  -0.413  -0.406  -0.405
 -0.391  -0.384  -0.377  -0.374  -0.368  -0.361  -0.356  -0.355
 -0.346  -0.342  -0.339  -0.333  -0.327  -0.321  -0.318  -0.316
 -0.311  -0.308  -0.303  -0.301  -0.298  -0.289  -0.286  -0.278
 -0.274  -0.260  -0.257  -0.247  -0.242  -0.232  -0.228  -0.192
 -0.186  -0.170  -0.169  -0.162  -0.156  -0.153  -0.145  -0.138
 -0.131

          Ground-State Mulliken Net Atomic Charges

     Atom                 Charge (a.u.)
  ----------------------------------------
      1 O                    -0.203933
      2 C                     0.213946
      3 C                    -0.081726
      4 C                    -0.077200
      5 C                     0.211190
      6 O                    -0.166688
      7 C                    -0.047215
      8 C                    -0.051326
      9 O                    -0.172564
     10 C                     0.215623
     11 C                    -0.088285
     12 C                    -0.091656
     13 C                     0.222988
     14 O                    -0.206507
     15 O                    -0.176505
     16 O                    -0.173303
     17 O                    -0.207543
     18 C                    -0.128456
     19 C                     0.024519
     20 C                    -0.143723
     21 C                    -0.145962
     22 C                     0.022277
     23 O                    -0.190241
     24 H                     0.069788
     25 H                     0.099426
     26 H                     0.089274
     27 H                     0.077700
     28 H                     0.067816
     29 H                     0.076992
     30 H                     0.069442
     31 H                     0.088069
     32 O                    -0.217176
     33 C                    -0.130885
     34 C                     0.024635
     35 C                    -0.143029
     36 C                    -0.145652
     37 C                     0.023790
     38 O                    -0.191772
     39 H                     0.087755
     40 H                     0.088112
     41 H                     0.093541
     42 H                     0.088459
     43 H                     0.079437
     44 H                     0.075813
     45 H                     0.078948
     46 H                     0.075564
     47 H                     0.098973
     48 H                     0.096437
     49 H                     0.086415
     50 H                     0.084355
     51 H                     0.091297
     52 H                     0.093217
     53 H                     0.074855
     54 H                     0.094046
     55 H                     0.093590
     56 H                     0.103058
  ----------------------------------------
  Sum of atomic charges =    -0.000000

                    Cartesian Multipole Moments
 -----------------------------------------------------------------
    Charge (ESU x 10^10)
                 0.0000
    Dipole Moment (Debye)
         X      -3.4002      Y      -2.2254      Z       1.7912
       Tot       4.4410
    Quadrupole Moments (Debye-Ang)
        XX    -164.6619     XY      -2.9747     YY    -158.5189
        XZ      20.4885     YZ       9.5754     ZZ    -162.8115

 Total job time:  118.89s(wall), 5672.81s(cpu)
        *  Thank you very much for using Q-Chem.  Have a nice day.  *
