 Q-Chem 5.0, Q-Chem, Inc., Pleasanton, CA (2017)
 Q-Chem 5.0.1 for Intel X86 EM64T Linux

User input:
--------------------------------------------------------------
$molecule
0  1
O -1.7253295 -2.8442442668 0.5930188863
C -2.5330249969 -2.0055671727 0.1352047324
C -2.5720078401 -0.4711018036 0.4729229641
C -1.9932753202 0.4611867401 -0.6738306561
C -1.2840722881 -0.3013205228 -1.8521195182
O -0.1115915154 0.4413052408 -2.3121040334
C 1.0749837726 -0.2722112588 -1.7700006701
C 2.2895301149 0.2114508897 -2.6491787366
O 3.6515053172 0.4706475497 -2.1124283634
C 3.8349119772 0.8841846031 -0.746196044
C 3.5018029342 -0.0570004054 0.5014997924
C 2.8593545868 0.6897661521 1.7564678433
C 2.1634397174 2.0583629718 1.4046702607
O 2.7122495239 3.102853739 0.9942675703
O -3.6436924272 -2.3356548839 -0.7027225351
O 0.744274076 1.9452153316 1.5946777373
O 4.5556623594 1.890785223 -0.5568891553
C 0.0919007627 3.2342594861 1.2708950985
C 2.6558934227 -1.39344704 0.4595281502
C 3.1771573177 -2.337809111 1.6093980264
C 2.6099576544 -1.6131773448 2.8852294375
C 1.8228241109 -0.4103711302 2.2344537419
O 1.3193531165 -0.9752493504 0.9553163172
H 4.5259169052 -0.3475999271 0.8094501675
H 3.632406284 0.890889655 2.519190221
H 2.5852591742 -1.8816037554 -0.5286997369
H 2.7436586502 -3.3440324807 1.4935914596
H 4.2754949316 -2.4229814699 1.6158487634
H 1.9221852709 -2.2645791359 3.4472229055
H 3.4039585681 -1.2650254707 3.565159878
H 0.9809934173 -0.0143056599 2.8323756092
O -1.6209136466 -1.3961933731 -2.3472630156
C -3.5833909385 -3.7654406136 -1.0793758199
C -4.0596648915 0.0741024751 0.5567112022
C -4.0366172645 1.5288885389 1.1796152029
C -3.5666856593 2.3864348753 -0.0533719715
C -3.3062606129 1.2536510869 -1.119157605
O -4.4069121083 0.3003302917 -0.8662281637
H -2.0083474699 -0.3221989734 1.4110701297
H -1.2454106953 1.1579292574 -0.2574156336
H -3.5162787245 -4.4228205555 -0.1884998593
H -4.7796330009 -0.6260090959 1.0220864877
H -5.0421120875 1.8228718658 1.5198332875
H -3.3412198524 1.5984392281 2.0315190188
H -4.3649656382 3.06099556 -0.4025825768
H -2.6658181105 2.9841419107 0.1542230096
H -3.3120649136 1.5862603188 -2.1754196982
H -2.7132533896 -3.96698046 -1.7371604454
H -4.5184365139 -3.9754056529 -1.6303836492
H -0.95937758 3.1338320094 1.5978554532
H 0.1234086989 3.4420535353 0.1812929126
H 0.5695335791 4.0817735958 1.8024967867
H 2.4551334709 -0.5205656891 -3.4669503762
H 1.9485261625 1.161332754 -3.1248939564
H 0.9506250525 -1.3707118669 -1.8798819072
H 1.1679560325 -0.0597798152 -0.6777980143
$end

$rem
JOBTYPE                   OPT
METHOD                    B3LYP
DFT_D                     d3_op
BASIS                     STO-3G
GEOM_OPT_MAX_CYCLES       100
GEOM_OPT_TOL_GRADIENT     300
GEOM_OPT_TOL_DISPLACEMENT 1200
GEOM_OPT_TOL_ENERGY       100
SYMMETRY                  False
THRESH                    12
SCF_CONVERGENCE           8
MAX_SUB_FILE_NUM          128
MEM_STATIC                400
MEM_TOTAL                 4000
$end
--------------------------------------------------------------

   16   -1510.2238649948      6.73E-09 Convergence criterion met
 Total energy in the final basis set = -1510.22386499
   15   -1510.2184289313      7.19E-09 Convergence criterion met
 Total energy in the final basis set = -1510.21842893
   14   -1510.2232386535      4.44E-09 Convergence criterion met
 Total energy in the final basis set = -1510.22323865
   15   -1510.2268339643      7.30E-09 Convergence criterion met
 Total energy in the final basis set = -1510.22683396
   15   -1510.2345689177      3.62E-09 Convergence criterion met
 Total energy in the final basis set = -1510.23456892
   14   -1510.2392915366      9.76E-09 Convergence criterion met
 Total energy in the final basis set = -1510.23929154
   14   -1510.2432697939      4.37E-09 Convergence criterion met
 Total energy in the final basis set = -1510.24326979
   14   -1510.2487060124      3.86E-09 Convergence criterion met
   11   -1510.2911732209      4.95E-09 Convergence criterion met
 Total energy in the final basis set = -1510.29117322
    9   -1510.2911771611      9.45E-09 Convergence criterion met
 Total energy in the final basis set = -1510.29117716
    9   -1510.2911824745      7.16E-09 Convergence criterion met
 Total energy in the final basis set = -1510.29118247
    9   -1510.2911877643      8.99E-09 Convergence criterion met
 Total energy in the final basis set = -1510.29118776
    9   -1510.2911932466      7.42E-09 Convergence criterion met
 Total energy in the final basis set = -1510.29119325
    9   -1510.2911917221      1.95E-09 Convergence criterion met
 Total energy in the final basis set = -1510.29119172

             Standard Nuclear Orientation (Angstroms)
    I     Atom           X                Y                Z
 ----------------------------------------------------------------
    1      O      -2.0617734563     0.6494221463     2.4118823276
    2      C      -3.0079530544     0.5954188012     1.5882386129
    3      C      -3.4366255080     1.7322028191     0.5830320843
    4      C      -2.5694321931     1.7532588174    -0.7453421608
    5      C      -1.5387148124     0.5806509574    -0.7881107692
    6      O      -0.4799723950     0.9060083278    -1.6840540184
    7      C       0.5584756322    -0.1569404745    -1.6144251619
    8      C       1.8025960124     0.3260896611    -2.4431638430
    9      O       2.9621472338    -0.4767177974    -1.9847311269
   10      C       3.5112598019     0.1156826803    -0.7974572472
   11      C       4.1882582008    -0.9864192926     0.0969964090
   12      C       3.6487059266    -0.8945211831     1.5932825105
   13      C       2.7689047313     0.3660881608     1.9054650664
   14      O       3.0970040575     1.3220500380     2.6425860411
   15      O      -3.9371476262    -0.4845457706     1.5220636518
   16      O       1.4831698995     0.2368242984     1.2771498993
   17      O       3.4034706524     1.3280244976    -0.5080909469
   18      C       0.6580160606     1.4443080250     1.5428575814
   19      C       3.7018058702    -2.4392308977    -0.3014468476
   20      C       4.5473407669    -3.5096435627     0.4954246524
   21      C       3.8916022093    -3.4223020512     1.9230831546
   22      C       2.8434923799    -2.2639397874     1.6996198798
   23      O       2.3581961157    -2.5039328837     0.3214285103
   24      H       5.2875855922    -0.8751644428     0.0616714104
   25      H       4.4933716368    -0.8749010245     2.3039240111
   26      H       3.6291625359    -2.6030692959    -1.3929288852
   27      H       4.4209346281    -4.5094764066     0.0510755969
   28      H       5.6209509656    -3.2620648000     0.5049275754
   29      H       3.3760829948    -4.3594936201     2.1871642356
   30      H       4.6187925783    -3.1822819241     2.7149624783
   31      H       1.9946101818    -2.2447259079     2.4100317347
   32      O      -1.6058408560    -0.4859250026    -0.1335931587
   33      C      -3.4819629769    -1.5917361163     2.3934638660
   34      C      -4.8931483717     1.5317182786    -0.0147208033
   35      C      -5.3589255013     2.8993325829    -0.6551325539
   36      C      -4.4958421995     2.9309571813    -1.9697661569
   37      C      -3.7045629431     1.5699412118    -1.8466184171
   38      O      -4.6684196675     0.6592159827    -1.1915275159
   39      H      -3.3440305145     2.6953475304     1.1165564197
   40      H      -2.0305913397     2.7079465556    -0.8780488774
   41      H      -3.3709217623    -1.2646887755     3.4474445361
   42      H      -5.6132895870     1.0626086517     0.6819123746
   43      H      -6.4365863727     2.8688220356    -0.8815091287
   44      H      -5.1613354931     3.7578688018     0.0064805050
   45      H      -5.1297953646     2.9267141018    -2.8706894618
   46      H      -3.8204579542     3.8000058590    -2.0173571371
   47      H      -3.3488002127     1.1415948612    -2.8038760400
   48      H      -2.5118016268    -1.9974877759     2.0407945563
   49      H      -4.2605047625    -2.3734787719     2.3244158287
   50      H      -0.3531984912     1.1257601413     1.8965170487
   51      H       0.5644700903     2.0234467448     0.6026270108
   52      H       1.1665487511     2.0653181902     2.3054595529
   53      H       1.6810152212     0.1364418007    -3.5276657220
   54      H       1.9796382533     1.4085956377    -2.2641591886
   55      H       0.1669510841    -1.1179286820    -2.0105074864
   56      H       0.8741129623    -0.3094737111    -0.5516254756
 ----------------------------------------------------------------

    8   -1510.2911911340      6.47E-09 Convergence criterion met
 Total energy in the final basis set = -1510.29119113
 Final energy is   -1510.29119113400
 **  OPTIMIZATION CONVERGED  **

                    Orbital Energies (a.u.)
 --------------------------------------------------------------

 Alpha MOs
 -- Occupied --
-18.937 -18.932 -18.932 -18.923 -18.889 -18.886 -18.883 -18.880
-18.868 -18.867 -10.104 -10.102 -10.100 -10.093 -10.072 -10.063
-10.059 -10.059 -10.058 -10.057 -10.057 -10.040 -10.039 -10.037
-10.035 -10.028 -10.022 -10.020 -10.020 -10.018  -1.018  -1.014
 -1.005  -0.999  -0.971  -0.969  -0.943  -0.937  -0.930  -0.926
 -0.764  -0.762  -0.726  -0.722  -0.713  -0.706  -0.693  -0.655
 -0.642  -0.616  -0.595  -0.576  -0.547  -0.544  -0.538  -0.536
 -0.515  -0.509  -0.486  -0.475  -0.465  -0.458  -0.448  -0.444
 -0.434  -0.433  -0.431  -0.411  -0.409  -0.405  -0.400  -0.395
 -0.393  -0.380  -0.370  -0.362  -0.360  -0.356  -0.352  -0.347
 -0.344  -0.336  -0.332  -0.329  -0.326  -0.324  -0.320  -0.311
 -0.310  -0.305  -0.304  -0.299  -0.293  -0.285  -0.279  -0.278
 -0.272  -0.258  -0.252  -0.246  -0.237  -0.234  -0.232  -0.183
 -0.176  -0.170  -0.163  -0.160  -0.156  -0.148  -0.147  -0.143
 -0.142

          Ground-State Mulliken Net Atomic Charges

     Atom                 Charge (a.u.)
  ----------------------------------------
      1 O                    -0.225842
      2 C                     0.221822
      3 C                    -0.080631
      4 C                    -0.079651
      5 C                     0.212250
      6 O                    -0.174151
      7 C                    -0.060097
      8 C                    -0.050353
      9 O                    -0.175011
     10 C                     0.213794
     11 C                    -0.078048
     12 C                    -0.080775
     13 C                     0.212139
     14 O                    -0.211195
     15 O                    -0.163444
     16 O                    -0.176923
     17 O                    -0.207648
     18 C                    -0.155256
     19 C                     0.023256
     20 C                    -0.145146
     21 C                    -0.143353
     22 C                     0.025452
     23 O                    -0.189481
     24 H                     0.085949
     25 H                     0.085068
     26 H                     0.092093
     27 H                     0.077811
     28 H                     0.073118
     29 H                     0.077899
     30 H                     0.074044
     31 H                     0.086778
     32 O                    -0.206712
     33 C                    -0.126530
     34 C                     0.025892
     35 C                    -0.144377
     36 C                    -0.143689
     37 C                     0.025688
     38 O                    -0.186710
     39 H                     0.083663
     40 H                     0.086437
     41 H                     0.087996
     42 H                     0.090365
     43 H                     0.078109
     44 H                     0.073462
     45 H                     0.078321
     46 H                     0.074168
     47 H                     0.083757
     48 H                     0.096976
     49 H                     0.089781
     50 H                     0.110138
     51 H                     0.074062
     52 H                     0.095318
     53 H                     0.088996
     54 H                     0.099497
     55 H                     0.086903
     56 H                     0.114020
  ----------------------------------------
  Sum of atomic charges =     0.000000

                    Cartesian Multipole Moments
 -----------------------------------------------------------------
    Charge (ESU x 10^10)
                 0.0000
    Dipole Moment (Debye)
         X      -0.3034      Y      -0.3343      Z      -1.0359
       Tot       1.1300
    Quadrupole Moments (Debye-Ang)
        XX    -150.7088     XY     -17.7628     YY    -154.4724
        XZ      -4.2923     YZ      -8.1589     ZZ    -157.7761

 Total job time:  127.94s(wall), 6105.30s(cpu)
        *  Thank you very much for using Q-Chem.  Have a nice day.  *
