 Q-Chem 5.0, Q-Chem, Inc., Pleasanton, CA (2017)
 Q-Chem 5.0.1 for Intel X86 EM64T Linux

User input:
--------------------------------------------------------------
$molecule
0  1
O -3.94934 -3.66094 2.70899
C -3.26408 -4.56952 2.26188
C -3.36658 -6.02376 2.66595
C -4.06137 -6.97914 1.68189
C -4.41791 -6.40938 0.32677
O -5.62324 -6.90466 -0.08227
C -6.69188 -5.96044 0.04315
C -7.86775 -6.37788 -0.8339
O -9.10477 -6.09498 -0.16111
C -9.0508 -6.12062 1.19372
C -8.19373 -5.01848 1.76937
C -7.35889 -5.42036 2.99404
C -7.22332 -6.90934 3.24159
O -8.13513 -7.66215 3.55213
O -2.37863 -4.26996 1.27322
O -6.03016 -7.23061 3.79518
O -9.93627 -6.67333 1.83321
C -5.77665 -8.40582 4.48034
C -7.50691 -3.67372 1.39341
C -7.85719 -2.52699 2.35544
C -7.13283 -2.97845 3.61544
C -6.42578 -4.25724 3.11757
O -6.16864 -3.92128 1.76902
H -9.11297 -4.54096 2.18232
H -8.01393 -5.27132 3.88571
H -7.69205 -3.36484 0.34191
H -7.35954 -1.60775 1.97153
H -8.94213 -2.32149 2.48013
H -6.37297 -2.20834 3.8758
H -7.78754 -3.14924 4.49708
H -5.63342 -4.54417 3.83171
O -3.66153 -5.81881 -0.42929
C -2.18569 -3.00621 0.75563
C -1.96367 -6.64502 2.77272
C -1.99818 -7.92453 3.60744
C -2.63994 -8.87722 2.62233
C -2.86612 -7.94117 1.43452
O -1.73065 -7.11152 1.47083
H -3.86441 -6.037 3.65638
H -4.86391 -7.63449 2.01711
H -1.84475 -2.31345 1.55439
H -1.21046 -5.93703 3.1843
H -0.95509 -8.26359 3.79753
H -2.52483 -7.79535 4.57522
H -1.87807 -9.63232 2.32339
H -3.55135 -9.40283 2.9717
H -2.98727 -8.54503 0.50661
H -3.12996 -2.62891 0.30771
H -1.40866 -3.05191 -0.03458
H -4.7346 -8.4002 4.84864
H -5.92426 -9.27962 3.81019
H -6.44934 -8.49091 5.36031
H -7.82805 -5.90788 -1.83907
H -7.83776 -7.48081 -0.97648
H -6.3285 -4.96597 -0.28719
H -6.7561 -6.43219 0.98663
$end

$opt
CONSTRAINT
tors           1           2           3           4    +104.211
tors           3           4           5           6    -142.105
tors           4           5           6           7    +104.211
tors           5           6           7           8    +161.053
tors           6           7           8           9    +142.105
tors           7           8           9          10     -28.421
tors           8           9          10          11     +66.316
tors           9          10          11          12    -142.105
tors          11          12          13          14     -66.316
ENDCONSTRAINT
$end

$rem
JOBTYPE                   OPT
METHOD                    B3LYP
DFT_D                     d3_op
BASIS                     STO-3G
GEOM_OPT_MAX_CYCLES       100
GEOM_OPT_TOL_GRADIENT     300
GEOM_OPT_TOL_DISPLACEMENT 1200
GEOM_OPT_TOL_ENERGY       100
SYMMETRY                  False
THRESH                    12
SCF_CONVERGENCE           8
MAX_SUB_FILE_NUM          128
MEM_STATIC                400
MEM_TOTAL                 4000
$end
--------------------------------------------------------------

   16   -1509.9376965571      3.25E-09 Convergence criterion met
 Total energy in the final basis set = -1509.93769656
   15   -1510.0094888918      8.12E-09 Convergence criterion met
 Total energy in the final basis set = -1510.00948889
   14   -1510.0798353428      8.60E-09 Convergence criterion met
 Total energy in the final basis set = -1510.07983534
   14   -1510.1250791456      6.38E-09 Convergence criterion met
 Total energy in the final basis set = -1510.12507915
   14   -1510.1562695809      1.58E-09 Convergence criterion met
 Total energy in the final basis set = -1510.15626958
   13   -1510.1781484984      8.85E-09 Convergence criterion met
 Total energy in the final basis set = -1510.17814850
   13   -1510.1936686573      7.59E-09 Convergence criterion met
 Total energy in the final basis set = -1510.19366866
   13   -1510.2041953331      7.22E-09 Convergence criterion met
   11   -1510.2239695772      7.50E-09 Convergence criterion met
 Total energy in the final basis set = -1510.22396958
   11   -1510.2239766894      6.46E-09 Convergence criterion met
 Total energy in the final basis set = -1510.22397669
   11   -1510.2239877799      4.19E-09 Convergence criterion met
 Total energy in the final basis set = -1510.22398778
   11   -1510.2239986647      2.46E-09 Convergence criterion met
 Total energy in the final basis set = -1510.22399866
   11   -1510.2240081426      2.44E-09 Convergence criterion met
 Total energy in the final basis set = -1510.22400814
    9   -1510.2240098953      4.48E-09 Convergence criterion met
 Total energy in the final basis set = -1510.22400990

             Standard Nuclear Orientation (Angstroms)
    I     Atom           X                Y                Z
 ----------------------------------------------------------------
    1      O      -1.7253295000    -2.8442442668     0.5930188863
    2      C      -2.5330249969    -2.0055671727     0.1352047324
    3      C      -2.5720078401    -0.4711018036     0.4729229641
    4      C      -1.9932753202     0.4611867401    -0.6738306561
    5      C      -1.2840722881    -0.3013205228    -1.8521195182
    6      O      -0.1115915154     0.4413052408    -2.3121040334
    7      C       1.0749837726    -0.2722112588    -1.7700006701
    8      C       2.2895301149     0.2114508897    -2.6491787366
    9      O       3.6515053172     0.4706475497    -2.1124283634
   10      C       3.8349119772     0.8841846031    -0.7461960440
   11      C       3.5018029342    -0.0570004054     0.5014997924
   12      C       2.8593545868     0.6897661521     1.7564678433
   13      C       2.1634397174     2.0583629718     1.4046702607
   14      O       2.7122495239     3.1028537390     0.9942675703
   15      O      -3.6436924272    -2.3356548839    -0.7027225351
   16      O       0.7442740760     1.9452153316     1.5946777373
   17      O       4.5556623594     1.8907852230    -0.5568891553
   18      C       0.0919007627     3.2342594861     1.2708950985
   19      C       2.6558934227    -1.3934470400     0.4595281502
   20      C       3.1771573177    -2.3378091110     1.6093980264
   21      C       2.6099576544    -1.6131773448     2.8852294375
   22      C       1.8228241109    -0.4103711302     2.2344537419
   23      O       1.3193531165    -0.9752493504     0.9553163172
   24      H       4.5259169052    -0.3475999271     0.8094501675
   25      H       3.6324062840     0.8908896550     2.5191902210
   26      H       2.5852591742    -1.8816037554    -0.5286997369
   27      H       2.7436586502    -3.3440324807     1.4935914596
   28      H       4.2754949316    -2.4229814699     1.6158487634
   29      H       1.9221852709    -2.2645791359     3.4472229055
   30      H       3.4039585681    -1.2650254707     3.5651598780
   31      H       0.9809934173    -0.0143056599     2.8323756092
   32      O      -1.6209136466    -1.3961933731    -2.3472630156
   33      C      -3.5833909385    -3.7654406136    -1.0793758199
   34      C      -4.0596648915     0.0741024751     0.5567112022
   35      C      -4.0366172645     1.5288885389     1.1796152029
   36      C      -3.5666856593     2.3864348753    -0.0533719715
   37      C      -3.3062606129     1.2536510869    -1.1191576050
   38      O      -4.4069121083     0.3003302917    -0.8662281637
   39      H      -2.0083474699    -0.3221989734     1.4110701297
   40      H      -1.2454106953     1.1579292574    -0.2574156336
   41      H      -3.5162787245    -4.4228205555    -0.1884998593
   42      H      -4.7796330009    -0.6260090959     1.0220864877
   43      H      -5.0421120875     1.8228718658     1.5198332875
   44      H      -3.3412198524     1.5984392281     2.0315190188
   45      H      -4.3649656382     3.0609955600    -0.4025825768
   46      H      -2.6658181105     2.9841419107     0.1542230096
   47      H      -3.3120649136     1.5862603188    -2.1754196982
   48      H      -2.7132533896    -3.9669804600    -1.7371604454
   49      H      -4.5184365139    -3.9754056529    -1.6303836492
   50      H      -0.9593775800     3.1338320094     1.5978554532
   51      H       0.1234086989     3.4420535353     0.1812929126
   52      H       0.5695335791     4.0817735958     1.8024967867
   53      H       2.4551334709    -0.5205656891    -3.4669503762
   54      H       1.9485261625     1.1613327540    -3.1248939564
   55      H       0.9506250525    -1.3707118669    -1.8798819072
   56      H       1.1679560325    -0.0597798152    -0.6777980143
 ----------------------------------------------------------------

    9   -1510.2240099866      7.14E-09 Convergence criterion met
 Total energy in the final basis set = -1510.22400999
 Final energy is   -1510.22400998657
 **  OPTIMIZATION CONVERGED  **

                    Orbital Energies (a.u.)
 --------------------------------------------------------------

 Alpha MOs
 -- Occupied --
-18.942 -18.926 -18.919 -18.905 -18.904 -18.895 -18.890 -18.887
-18.884 -18.864 -10.107 -10.106 -10.105 -10.091 -10.073 -10.071
-10.071 -10.069 -10.063 -10.060 -10.058 -10.055 -10.048 -10.043
-10.036 -10.035 -10.029 -10.028 -10.023 -10.022  -1.020  -1.009
 -1.003  -1.000  -0.984  -0.971  -0.943  -0.937  -0.930  -0.926
 -0.771  -0.762  -0.729  -0.724  -0.716  -0.710  -0.697  -0.670
 -0.653  -0.612  -0.600  -0.588  -0.557  -0.550  -0.546  -0.539
 -0.516  -0.512  -0.485  -0.482  -0.469  -0.457  -0.451  -0.444
 -0.439  -0.435  -0.427  -0.420  -0.416  -0.410  -0.406  -0.403
 -0.389  -0.383  -0.382  -0.370  -0.363  -0.355  -0.353  -0.346
 -0.344  -0.342  -0.338  -0.337  -0.332  -0.328  -0.326  -0.321
 -0.317  -0.310  -0.308  -0.301  -0.298  -0.292  -0.285  -0.282
 -0.278  -0.264  -0.248  -0.246  -0.242  -0.235  -0.229  -0.186
 -0.175  -0.169  -0.168  -0.159  -0.157  -0.148  -0.145  -0.143
 -0.141

          Ground-State Mulliken Net Atomic Charges

     Atom                 Charge (a.u.)
  ----------------------------------------
      1 O                    -0.218015
      2 C                     0.208447
      3 C                    -0.079337
      4 C                    -0.082786
      5 C                     0.220906
      6 O                    -0.201279
      7 C                    -0.067894
      8 C                    -0.051952
      9 O                    -0.181122
     10 C                     0.208352
     11 C                    -0.086413
     12 C                    -0.078746
     13 C                     0.204065
     14 O                    -0.201552
     15 O                    -0.161758
     16 O                    -0.173394
     17 O                    -0.180245
     18 C                    -0.130470
     19 C                     0.020368
     20 C                    -0.141999
     21 C                    -0.144006
     22 C                     0.024484
     23 O                    -0.187741
     24 H                     0.086523
     25 H                     0.089775
     26 H                     0.086723
     27 H                     0.082711
     28 H                     0.075988
     29 H                     0.081940
     30 H                     0.075299
     31 H                     0.092836
     32 O                    -0.181097
     33 C                    -0.126698
     34 C                     0.027020
     35 C                    -0.145204
     36 C                    -0.143011
     37 C                     0.026125
     38 O                    -0.182546
     39 H                     0.085978
     40 H                     0.086312
     41 H                     0.086601
     42 H                     0.085538
     43 H                     0.078054
     44 H                     0.071659
     45 H                     0.078646
     46 H                     0.071207
     47 H                     0.084395
     48 H                     0.091190
     49 H                     0.089752
     50 H                     0.087481
     51 H                     0.089981
     52 H                     0.094216
     53 H                     0.088463
     54 H                     0.089874
     55 H                     0.077116
     56 H                     0.099241
  ----------------------------------------
  Sum of atomic charges =     0.000000

                    Cartesian Multipole Moments
 -----------------------------------------------------------------
    Charge (ESU x 10^10)
                 0.0000
    Dipole Moment (Debye)
         X      -0.8854      Y      -0.7973      Z       3.0861
       Tot       3.3081
    Quadrupole Moments (Debye-Ang)
        XX    -169.7643     XY     -16.5862     YY    -160.3153
        XZ       1.9127     YZ       2.9090     ZZ    -157.5934

 Total job time:  84.35s(wall), 4019.91s(cpu)
        *  Thank you very much for using Q-Chem.  Have a nice day.  *
