 Q-Chem 5.0, Q-Chem, Inc., Pleasanton, CA (2017)
 Q-Chem 5.0.1 for Intel X86 EM64T Linux

User input:
--------------------------------------------------------------
$molecule
0  1
O -3.94934 -3.66094 2.70899
C -3.26408 -4.56952 2.26188
C -3.36658 -6.02376 2.66595
C -2.76261 -7.06348 1.7078
C -1.9673 -6.5228 0.54022
O -0.70425 -7.04221 0.5589
C 0.06746 -6.60596 1.68291
C 0.72905 -5.266 1.37805
O 1.97129 -5.47899 0.68932
C 2.25784 -4.58251 -0.28708
C 3.72414 -4.22604 -0.34666
C 4.67824 -5.32709 0.13878
C 4.07751 -6.71246 0.26758
O 4.54593 -7.62972 0.9262
O -2.34996 -4.17314 1.33963
O 3.24343 -7.09071 -0.74711
O 1.41393 -3.88166 -0.83195
C 2.70939 -8.35344 -0.9042
C 4.24629 -4.03114 -1.78868
C 5.49324 -3.1479 -1.76333
C 6.49486 -4.09356 -1.1314
C 5.65072 -5.37128 -1.05474
O 4.7822 -5.27625 -2.1565
H 3.84327 -3.26067 0.19484
H 5.18225 -5.08308 1.09956
H 3.48901 -3.60272 -2.48084
H 5.78706 -2.9768 -2.82407
H 5.38124 -2.1663 -1.25467
H 7.34907 -4.21984 -1.83299
H 6.86439 -3.79345 -0.12686
H 6.30445 -6.27146 -1.02878
O -2.49024 -6.14033 -0.49624
C -2.20089 -2.87898 0.87428
C -3.00022 -6.566 4.05898
C -3.92692 -7.73575 4.40846
C -3.40182 -8.80938 3.46026
C -2.23226 -8.06211 2.79643
O -1.79088 -7.24804 3.86643
H -4.47158 -6.13635 2.56652
H -3.57267 -7.61213 1.17363
H -1.92821 -2.20016 1.71029
H -3.01349 -5.78325 4.84707
H -3.70191 -8.04567 5.45405
H -5.01306 -7.51669 4.32241
H -3.00604 -9.64882 4.07464
H -4.14024 -9.20398 2.72978
H -1.50187 -8.79105 2.38479
H -3.14369 -2.53289 0.39933
H -1.39563 -2.8496 0.11257
H 2.06373 -8.36457 -1.80601
H 2.09246 -8.61871 -0.01922
H 3.5208 -9.10053 -1.03636
H 0.03391 -4.54674 0.9099
H 1.03313 -4.81565 2.35225
H 0.76901 -7.38217 2.05506
H -0.53799 -6.22334 2.49173
$end

$opt
CONSTRAINT
tors           1           2           3           4    +161.053
tors           3           4           5           6    +123.158
tors           4           5           6           7     -66.316
tors           5           6           7           8     -85.263
tors           6           7           8           9     -85.263
tors           7           8           9          10    +142.105
tors           8           9          10          11    +142.105
tors           9          10          11          12     +28.421
tors          11          12          13          14    -161.053
ENDCONSTRAINT
$end

$rem
JOBTYPE                   OPT
METHOD                    B3LYP
DFT_D                     d3_op
BASIS                     STO-3G
GEOM_OPT_MAX_CYCLES       100
GEOM_OPT_TOL_GRADIENT     300
GEOM_OPT_TOL_DISPLACEMENT 1200
GEOM_OPT_TOL_ENERGY       100
SYMMETRY                  False
THRESH                    12
SCF_CONVERGENCE           8
MAX_SUB_FILE_NUM          128
MEM_STATIC                400
MEM_TOTAL                 4000
$end
--------------------------------------------------------------

   15   -1510.0921478254      9.59E-09 Convergence criterion met
 Total energy in the final basis set = -1510.09214783
   14   -1510.1688019713      6.23E-09 Convergence criterion met
 Total energy in the final basis set = -1510.16880197
   14   -1510.2124401651      2.29E-09 Convergence criterion met
 Total energy in the final basis set = -1510.21244017
   14   -1510.2358588821      5.33E-09 Convergence criterion met
 Total energy in the final basis set = -1510.23585888
   13   -1510.2470067421      9.19E-09 Convergence criterion met
 Total energy in the final basis set = -1510.24700674
   13   -1510.2527584602      6.31E-09 Convergence criterion met
 Total energy in the final basis set = -1510.25275846
   13   -1510.2555145366      4.24E-09 Convergence criterion met
 Total energy in the final basis set = -1510.25551454
   14   -1510.2564651094      1.84E-09 Convergence criterion met
   11   -1510.2584973013      4.31E-09 Convergence criterion met
 Total energy in the final basis set = -1510.25849730
   11   -1510.2585036302      3.87E-09 Convergence criterion met
 Total energy in the final basis set = -1510.25850363
    9   -1510.2585063334      9.62E-09 Convergence criterion met
 Total energy in the final basis set = -1510.25850633
   10   -1510.2585087657      4.54E-09 Convergence criterion met
 Total energy in the final basis set = -1510.25850877
    9   -1510.2585108349      7.00E-09 Convergence criterion met
 Total energy in the final basis set = -1510.25851083
    9   -1510.2585123850      5.53E-09 Convergence criterion met
 Total energy in the final basis set = -1510.25851239

             Standard Nuclear Orientation (Angstroms)
    I     Atom           X                Y                Z
 ----------------------------------------------------------------
    1      O       4.5276482455    -2.9578616635     0.3771530341
    2      C       3.9263834482    -1.9031954246     0.0702406796
    3      C       4.6150321748    -0.5200441153    -0.1697833884
    4      C       3.8305542741     0.5981068798    -0.9763560472
    5      C       2.3846871945     0.2065516741    -1.5409338660
    6      O       1.2800643964     1.0397572687    -1.1268543139
    7      C       0.9862570904     0.9498943110     0.3251860826
    8      C       0.0391268868    -0.2639021050     0.6362285813
    9      O      -1.3575043529     0.1811143024     0.4394149998
   10      C      -2.1529297093    -0.8686694278    -0.1559338471
   11      C      -3.5938730774    -0.8617187774     0.4705025810
   12      C      -4.0800062681     0.5512472890     0.9792593865
   13      C      -3.3543962746     1.7373602395     0.2440642457
   14      O      -3.2688558638     2.9238063492     0.6286247382
   15      O       2.5032412862    -1.7922923605     0.0011245596
   16      O      -3.0004885159     1.2898138753    -1.0754999091
   17      O      -1.6983550053    -1.7236246035    -0.9451822668
   18      C      -2.1496475149     2.2872737371    -1.7608219761
   19      C      -4.7905374636    -1.3000191209    -0.4754423231
   20      C      -5.9115877868    -1.9049365607     0.4565379390
   21      C      -6.3985604872    -0.6056978124     1.2030714528
   22      C      -5.5812033687     0.5175723981     0.4450714361
   23      O      -5.4040575524    -0.0274231531    -0.9218493576
   24      H      -3.5359735669    -1.5601335182     1.3278582181
   25      H      -4.0038488602     0.6824423981     2.0720849650
   26      H      -4.4902738258    -1.9195191616    -1.3428504820
   27      H      -6.7189249937    -2.3430699836    -0.1519706101
   28      H      -5.5236853014    -2.6754595010     1.1417646831
   29      H      -7.4813310694    -0.4461902320     1.0785414378
   30      H      -6.1678532791    -0.6244086829     2.2803814271
   31      H      -6.0728293236     1.5092774364     0.4061652047
   32      O       2.2468135828    -0.5476383468    -2.5274942390
   33      C       1.8721566970    -3.1227920713     0.1817088793
   34      C       4.8588484671     0.2418468788     1.2169596952
   35      C       6.0520657521     1.2518049669     1.0142343565
   36      C       5.3668486057     2.3517295578     0.1210915313
   37      C       3.8885664189     1.8090615039     0.0346779691
   38      O       3.6887783775     1.1432599865     1.3497432409
   39      H       5.5860846366    -0.7367448330    -0.6491751640
   40      H       4.4087519473     0.8424481656    -1.8871802089
   41      H       1.2544488850    -3.1103325179     1.1006791572
   42      H       4.9426560417    -0.4210113824     2.1002245370
   43      H       6.3722560438     1.6634183458     1.9848546919
   44      H       6.9194784821     0.7795505048     0.5260822546
   45      H       5.3863123155     3.3391266906     0.6086998326
   46      H       5.8315920717     2.4402338818    -0.8738409644
   47      H       3.1134951910     2.5799402960    -0.1350043747
   48      H       2.6660562022    -3.8910775360     0.2732825097
   49      H       1.2265089481    -3.3267265322    -0.6947728674
   50      H      -2.4861696459     2.3565934545    -2.8124762840
   51      H      -1.0918890093     1.9480601846    -1.7312659652
   52      H      -2.2436976998     3.2718203643    -1.2602223272
   53      H       0.2672487327    -1.1094907265    -0.0426238947
   54      H       0.1728662797    -0.5862354288     1.6932251252
   55      H       0.4654658373     1.8921983091     0.5937506381
   56      H       1.9247506445     0.8544383234     0.9282045959
 ----------------------------------------------------------------

    9   -1510.2585130621      5.55E-09 Convergence criterion met
 Total energy in the final basis set = -1510.25851306
 Final energy is   -1510.25851306212
 **  OPTIMIZATION CONVERGED  **

                    Orbital Energies (a.u.)
 --------------------------------------------------------------

 Alpha MOs
 -- Occupied --
-18.947 -18.922 -18.912 -18.911 -18.907 -18.884 -18.883 -18.881
-18.872 -18.865 -10.111 -10.102 -10.096 -10.092 -10.076 -10.072
-10.064 -10.059 -10.057 -10.055 -10.053 -10.050 -10.045 -10.042
-10.033 -10.033 -10.032 -10.032 -10.018 -10.017  -1.022  -1.006
 -0.998  -0.993  -0.989  -0.966  -0.946  -0.934  -0.927  -0.923
 -0.774  -0.760  -0.732  -0.722  -0.717  -0.702  -0.692  -0.667
 -0.646  -0.610  -0.599  -0.582  -0.558  -0.548  -0.542  -0.534
 -0.523  -0.506  -0.489  -0.476  -0.469  -0.464  -0.448  -0.443
 -0.432  -0.427  -0.422  -0.420  -0.412  -0.405  -0.404  -0.400
 -0.392  -0.384  -0.377  -0.367  -0.365  -0.359  -0.350  -0.348
 -0.346  -0.340  -0.334  -0.330  -0.328  -0.326  -0.320  -0.318
 -0.315  -0.310  -0.309  -0.301  -0.299  -0.293  -0.285  -0.280
 -0.271  -0.259  -0.256  -0.240  -0.230  -0.229  -0.227  -0.184
 -0.176  -0.169  -0.166  -0.157  -0.154  -0.148  -0.146  -0.142
 -0.138

          Ground-State Mulliken Net Atomic Charges

     Atom                 Charge (a.u.)
  ----------------------------------------
      1 O                    -0.213229
      2 C                     0.211434
      3 C                    -0.081254
      4 C                    -0.084653
      5 C                     0.221865
      6 O                    -0.191288
      7 C                    -0.063946
      8 C                    -0.054318
      9 O                    -0.187306
     10 C                     0.221721
     11 C                    -0.077629
     12 C                    -0.076772
     13 C                     0.220086
     14 O                    -0.219304
     15 O                    -0.171249
     16 O                    -0.166512
     17 O                    -0.212303
     18 C                    -0.134552
     19 C                     0.025576
     20 C                    -0.142159
     21 C                    -0.145126
     22 C                     0.024222
     23 O                    -0.187318
     24 H                     0.079523
     25 H                     0.084897
     26 H                     0.089913
     27 H                     0.077742
     28 H                     0.072065
     29 H                     0.077815
     30 H                     0.072786
     31 H                     0.083171
     32 O                    -0.193350
     33 C                    -0.136853
     34 C                     0.026533
     35 C                    -0.141884
     36 C                    -0.143706
     37 C                     0.021033
     38 O                    -0.190081
     39 H                     0.089906
     40 H                     0.086366
     41 H                     0.085733
     42 H                     0.087254
     43 H                     0.081115
     44 H                     0.078027
     45 H                     0.081355
     46 H                     0.077596
     47 H                     0.091012
     48 H                     0.105121
     49 H                     0.097843
     50 H                     0.087329
     51 H                     0.094135
     52 H                     0.095776
     53 H                     0.100846
     54 H                     0.074486
     55 H                     0.085202
     56 H                     0.105308
  ----------------------------------------
  Sum of atomic charges =     0.000000

                    Cartesian Multipole Moments
 -----------------------------------------------------------------
    Charge (ESU x 10^10)
                 0.0000
    Dipole Moment (Debye)
         X       2.2066      Y       0.0218      Z       2.9033
       Tot       3.6467
    Quadrupole Moments (Debye-Ang)
        XX    -143.4677     XY      15.7390     YY    -162.6446
        XZ      -6.2074     YZ      -7.3875     ZZ    -164.1565

 Total job time:  94.01s(wall), 4478.64s(cpu)
        *  Thank you very much for using Q-Chem.  Have a nice day.  *
