 Q-Chem 5.0, Q-Chem, Inc., Pleasanton, CA (2017)
 Q-Chem 5.0.1 for Intel X86 EM64T Linux

User input:
--------------------------------------------------------------
$molecule
0  1
O 4.5276482455 -2.9578616635 0.3771530341
C 3.9263834482 -1.9031954246 0.0702406796
C 4.6150321748 -0.5200441153 -0.1697833884
C 3.8305542741 0.5981068798 -0.9763560472
C 2.3846871945 0.2065516741 -1.540933866
O 1.2800643964 1.0397572687 -1.1268543139
C 0.9862570904 0.949894311 0.3251860826
C 0.0391268868 -0.263902105 0.6362285813
O -1.3575043529 0.1811143024 0.4394149998
C -2.1529297093 -0.8686694278 -0.1559338471
C -3.5938730774 -0.8617187774 0.470502581
C -4.0800062681 0.551247289 0.9792593865
C -3.3543962746 1.7373602395 0.2440642457
O -3.2688558638 2.9238063492 0.6286247382
O 2.5032412862 -1.7922923605 0.0011245596
O -3.0004885159 1.2898138753 -1.0754999091
O -1.6983550053 -1.7236246035 -0.9451822668
C -2.1496475149 2.2872737371 -1.7608219761
C -4.7905374636 -1.3000191209 -0.4754423231
C -5.9115877868 -1.9049365607 0.456537939
C -6.3985604872 -0.6056978124 1.2030714528
C -5.5812033687 0.5175723981 0.4450714361
O -5.4040575524 -0.0274231531 -0.9218493576
H -3.5359735669 -1.5601335182 1.3278582181
H -4.0038488602 0.6824423981 2.072084965
H -4.4902738258 -1.9195191616 -1.342850482
H -6.7189249937 -2.3430699836 -0.1519706101
H -5.5236853014 -2.675459501 1.1417646831
H -7.4813310694 -0.446190232 1.0785414378
H -6.1678532791 -0.6244086829 2.2803814271
H -6.0728293236 1.5092774364 0.4061652047
O 2.2468135828 -0.5476383468 -2.527494239
C 1.872156697 -3.1227920713 0.1817088793
C 4.8588484671 0.2418468788 1.2169596952
C 6.0520657521 1.2518049669 1.0142343565
C 5.3668486057 2.3517295578 0.1210915313
C 3.8885664189 1.8090615039 0.0346779691
O 3.6887783775 1.1432599865 1.3497432409
H 5.5860846366 -0.736744833 -0.649175164
H 4.4087519473 0.8424481656 -1.8871802089
H 1.254448885 -3.1103325179 1.1006791572
H 4.9426560417 -0.4210113824 2.100224537
H 6.3722560438 1.6634183458 1.9848546919
H 6.9194784821 0.7795505048 0.5260822546
H 5.3863123155 3.3391266906 0.6086998326
H 5.8315920717 2.4402338818 -0.8738409644
H 3.113495191 2.579940296 -0.1350043747
H 2.6660562022 -3.891077536 0.2732825097
H 1.2265089481 -3.3267265322 -0.6947728674
H -2.4861696459 2.3565934545 -2.812476284
H -1.0918890093 1.9480601846 -1.7312659652
H -2.2436976998 3.2718203643 -1.2602223272
H 0.2672487327 -1.1094907265 -0.0426238947
H 0.1728662797 -0.5862354288 1.6932251252
H 0.4654658373 1.8921983091 0.5937506381
H 1.9247506445 0.8544383234 0.9282045959
$end

$rem
JOBTYPE                   OPT
METHOD                    B3LYP
DFT_D                     d3_op
BASIS                     STO-3G
GEOM_OPT_MAX_CYCLES       100
GEOM_OPT_TOL_GRADIENT     300
GEOM_OPT_TOL_DISPLACEMENT 1200
GEOM_OPT_TOL_ENERGY       100
SYMMETRY                  False
THRESH                    12
SCF_CONVERGENCE           8
MAX_SUB_FILE_NUM          128
MEM_STATIC                400
MEM_TOTAL                 4000
$end
--------------------------------------------------------------

   16   -1510.2584433279      6.04E-09 Convergence criterion met
 Total energy in the final basis set = -1510.25844333
   15   -1510.2661990706      3.02E-09 Convergence criterion met
 Total energy in the final basis set = -1510.26619907
   14   -1510.2249125341      5.83E-09 Convergence criterion met
 Total energy in the final basis set = -1510.22491253
   14   -1510.2643319282      7.02E-09 Convergence criterion met
 Total energy in the final basis set = -1510.26433193
   14   -1510.2676128600      7.09E-09 Convergence criterion met
 Total energy in the final basis set = -1510.26761286
   14   -1510.2711181641      5.65E-09 Convergence criterion met
 Total energy in the final basis set = -1510.27111816
   14   -1510.2713101295      6.32E-09 Convergence criterion met
 Total energy in the final basis set = -1510.27131013
   15   -1510.2741038036      2.69E-09 Convergence criterion met
   11   -1510.2828161409      7.41E-09 Convergence criterion met
 Total energy in the final basis set = -1510.28281614
   12   -1510.2828803822      6.29E-09 Convergence criterion met
 Total energy in the final basis set = -1510.28288038
   11   -1510.2829007057      7.29E-09 Convergence criterion met
 Total energy in the final basis set = -1510.28290071
   11   -1510.2829150293      8.52E-09 Convergence criterion met
 Total energy in the final basis set = -1510.28291503
   11   -1510.2829234728      5.58E-09 Convergence criterion met
 Total energy in the final basis set = -1510.28292347
   11   -1510.2829244961      1.93E-09 Convergence criterion met
 Total energy in the final basis set = -1510.28292450

             Standard Nuclear Orientation (Angstroms)
    I     Atom           X                Y                Z
 ----------------------------------------------------------------
    1      O       4.4259053285    -2.0414701122    -1.9501404721
    2      C       3.8637358299    -1.2178496786    -1.1952004730
    3      C       4.5120524336     0.0610540420    -0.5741483745
    4      C       3.5826923736     1.3520041034    -0.5221297801
    5      C       2.1258958569     1.1175273454    -1.1373320931
    6      O       0.9297631678     1.0546946464    -0.3465955678
    7      C       1.0226557716     0.5017712380     1.0276833337
    8      C       0.0263603886    -0.6937437391     1.1757376823
    9      O      -1.3433555804    -0.1490954167     1.3406995880
   10      C      -2.3170226396    -1.1650498292     1.0588018355
   11      C      -3.7439337698    -0.5501006987     1.2937081845
   12      C      -4.0358387794     0.7472502870     0.4294281032
   13      C      -2.8477974877     1.1427445900    -0.5135732699
   14      O      -2.3148616934     2.2679086255    -0.6258544411
   15      O       2.5048838530    -1.3215257136    -0.7590902796
   16      O      -2.4806896735    -0.0142333187    -1.2670617647
   17      O      -2.0368292379    -2.3405332671     0.7425333913
   18      C      -1.3035533680     0.2834839940    -2.1200357329
   19      C      -4.8804672673    -1.5271917201     0.7823732591
   20      C      -6.2520364175    -1.0725581196     1.4174426471
   21      C      -6.5524293658     0.2288548514     0.5825091153
   22      C      -5.3087237317     0.2619686767    -0.3926232517
   23      O      -5.0281029295    -1.1681006738    -0.6472805388
   24      H      -3.8495057175    -0.3321464802     2.3726506885
   25      H      -4.2682597866     1.6178840530     1.0669377845
   26      H      -4.6282254565    -2.6004368441     0.8864217586
   27      H      -7.0246545078    -1.8411851713     1.2572904682
   28      H      -6.1668581987    -0.8757713965     2.4981682481
   29      H      -7.4883048436     0.1332812319     0.0090914016
   30      H      -6.6138722119     1.1328488615     1.2094036208
   31      H      -5.4734528630     0.8002730613    -1.3463529053
   32      O       1.9660093855     1.1491196941    -2.3788720228
   33      C       1.8276651655    -2.4635105548    -1.4183833498
   34      C       4.8999107086    -0.1002830273     0.9632094599
   35      C       6.0290856959     0.9511352268     1.2821041750
   36      C       5.2081340870     2.2943261758     1.2333897272
   37      C       3.7406266311     1.7644286004     0.9965929772
   38      O       3.7366426401     0.4525039156     1.6990164717
   39      H       5.4223223662     0.2632037402    -1.1655503703
   40      H       4.0155652405     2.1342792230    -1.1717621849
   41      H       1.4452388631    -3.1525909462    -0.6403068780
   42      H       5.1048918664    -1.1386517286     1.2887598357
   43      H       6.4454381231     0.7712054857     2.2861883734
   44      H       6.8486117935     0.9216537767     0.5462374340
   45      H       5.2703026263     2.8418174121     2.1870923451
   46      H       5.5366097713     2.9623879750     0.4213453003
   47      H       2.9406326751     2.4190412451     1.3906223480
   48      H       2.5519684282    -2.9897200042    -2.0720194469
   49      H       0.9805114943    -2.0745622112    -2.0166297369
   50      H      -1.0749263322    -0.6590986536    -2.6496746296
   51      H      -0.4314777037     0.6048139270    -1.4990987455
   52      H      -1.5364440126     1.0719537346    -2.8632336951
   53      H       0.0756125559    -1.3618709376     0.2924700516
   54      H       0.3055418807    -1.2903160715     2.0733517016
   55      H       0.7149559069     1.3042682611     1.7331102479
   56      H       2.0623449899     0.1717001676     1.2811278546
 ----------------------------------------------------------------

    9   -1510.2829244968      6.16E-09 Convergence criterion met
 Total energy in the final basis set = -1510.28292450
 Final energy is   -1510.28292449681
 **  OPTIMIZATION CONVERGED  **

                    Orbital Energies (a.u.)
 --------------------------------------------------------------

 Alpha MOs
 -- Occupied --
-18.949 -18.933 -18.923 -18.922 -18.913 -18.892 -18.879 -18.871
-18.865 -18.855 -10.115 -10.106 -10.092 -10.084 -10.081 -10.081
-10.066 -10.065 -10.057 -10.054 -10.052 -10.050 -10.050 -10.038
-10.037 -10.029 -10.026 -10.025 -10.014 -10.013  -1.026  -1.007
 -1.003  -0.997  -0.989  -0.961  -0.950  -0.937  -0.926  -0.916
 -0.781  -0.755  -0.737  -0.724  -0.719  -0.703  -0.694  -0.669
 -0.636  -0.612  -0.601  -0.577  -0.566  -0.554  -0.538  -0.530
 -0.529  -0.503  -0.495  -0.480  -0.471  -0.458  -0.455  -0.446
 -0.429  -0.426  -0.423  -0.422  -0.420  -0.407  -0.401  -0.393
 -0.389  -0.384  -0.376  -0.373  -0.360  -0.356  -0.354  -0.350
 -0.350  -0.340  -0.336  -0.329  -0.326  -0.324  -0.322  -0.320
 -0.316  -0.310  -0.302  -0.300  -0.297  -0.289  -0.283  -0.279
 -0.267  -0.263  -0.259  -0.245  -0.238  -0.228  -0.226  -0.187
 -0.177  -0.172  -0.169  -0.166  -0.155  -0.147  -0.145  -0.135
 -0.132

          Ground-State Mulliken Net Atomic Charges

     Atom                 Charge (a.u.)
  ----------------------------------------
      1 O                    -0.206198
      2 C                     0.212581
      3 C                    -0.081868
      4 C                    -0.082707
      5 C                     0.217051
      6 O                    -0.173649
      7 C                    -0.064152
      8 C                    -0.048838
      9 O                    -0.178204
     10 C                     0.215851
     11 C                    -0.078205
     12 C                    -0.079507
     13 C                     0.210296
     14 O                    -0.215722
     15 O                    -0.173462
     16 O                    -0.173402
     17 O                    -0.217322
     18 C                    -0.146411
     19 C                     0.024493
     20 C                    -0.144150
     21 C                    -0.144060
     22 C                     0.025889
     23 O                    -0.186117
     24 H                     0.081417
     25 H                     0.082134
     26 H                     0.088489
     27 H                     0.076736
     28 H                     0.071607
     29 H                     0.076551
     30 H                     0.072627
     31 H                     0.082146
     32 O                    -0.208350
     33 C                    -0.136761
     34 C                     0.026790
     35 C                    -0.141232
     36 C                    -0.143145
     37 C                     0.021589
     38 O                    -0.186531
     39 H                     0.091019
     40 H                     0.090987
     41 H                     0.091252
     42 H                     0.089312
     43 H                     0.082441
     44 H                     0.079551
     45 H                     0.082681
     46 H                     0.079269
     47 H                     0.090647
     48 H                     0.105545
     49 H                     0.094998
     50 H                     0.076344
     51 H                     0.113028
     52 H                     0.080341
     53 H                     0.095418
     54 H                     0.081067
     55 H                     0.081360
     56 H                     0.118487
  ----------------------------------------
  Sum of atomic charges =    -0.000000

                    Cartesian Multipole Moments
 -----------------------------------------------------------------
    Charge (ESU x 10^10)
                -0.0000
    Dipole Moment (Debye)
         X       3.0835      Y       0.8039      Z       3.4946
       Tot       4.7293
    Quadrupole Moments (Debye-Ang)
        XX    -137.5781     XY       4.4807     YY    -164.2831
        XZ       0.6779     YZ       0.4432     ZZ    -162.9577

 Total job time:  126.60s(wall), 6035.52s(cpu)
        *  Thank you very much for using Q-Chem.  Have a nice day.  *
