 Q-Chem 5.0, Q-Chem, Inc., Pleasanton, CA (2017)
 Q-Chem 5.0.1 for Intel X86 EM64T Linux

User input:
--------------------------------------------------------------
$molecule
0  1
O -3.94934 -3.66094 2.70899
C -3.26408 -4.56952 2.26188
C -3.36658 -6.02376 2.66595
C -2.40867 -7.01244 1.98128
C -1.33566 -6.41165 1.10049
O -1.57098 -5.0775 0.92698
C -2.9294 -4.78541 0.58257
C -3.40062 -5.71439 -0.53147
O -3.0439 -7.07066 -0.22139
C -3.67263 -7.60779 0.85348
C -5.03805 -7.00988 1.09591
C -5.9291 -6.90442 -0.15036
C -5.48536 -7.71643 -1.35054
O -5.56355 -7.35825 -2.5168
O -2.01107 -4.13506 2.79134
O -5.15502 -9.01879 -1.13504
O -3.6674 -8.8529 0.90715
C -4.73668 -9.89667 -2.11366
C -5.9567 -7.86324 2.02159
C -7.05167 -6.9945 2.64139
C -7.92116 -6.74131 1.42902
C -7.19903 -7.60792 0.3896
O -6.68513 -8.67493 1.14121
H -5.16917 -5.92622 1.29902
H -6.27235 -5.89586 -0.49115
H -5.39722 -8.40901 2.80918
H -7.61514 -7.63871 3.35387
H -6.70549 -6.08265 3.17255
H -8.93691 -7.14563 1.63638
H -7.99346 -5.67982 1.10781
H -7.90145 -7.89001 -0.4268
O -0.29465 -6.9544 0.7558
C -1.48341 -2.8473 2.79781
C -2.91855 -6.08807 4.17754
C -3.30189 -7.39406 4.88863
C -2.2712 -8.30636 4.30178
C -1.55774 -7.3139 3.34303
O -1.54194 -6.15187 4.09831
H -4.37168 -6.20304 3.07893
H -1.99907 -8.11311 2.01991
H -1.33687 -2.51342 3.84407
H -3.3035 -5.23078 4.78081
H -3.10231 -7.2906 5.979
H -4.35887 -7.69763 4.74288
H -1.55572 -8.58958 5.10729
H -2.6679 -9.22868 3.82418
H -0.49142 -7.67481 3.20777
H -2.14057 -2.12317 2.26763
H -0.49993 -2.85568 2.2819
H -4.53226 -10.88433 -1.65218
H -3.80158 -9.52284 -2.5835
H -5.52504 -10.01737 -2.88669
H -4.35155 -5.42414 -0.96462
H -2.76327 -5.50128 -1.42211
H -2.7012 -3.89948 -0.07113
H -3.19029 -3.71325 0.23255
$end

$opt
CONSTRAINT
tors           1           2           3           4    -180.000
tors           3           4           5           6      -9.474
tors           4           5           6           7     -47.368
tors           5           6           7           8     -47.368
tors           6           7           8           9     +47.368
tors           7           8           9          10     +66.316
tors           8           9          10          11     +28.421
tors           9          10          11          12     +47.368
tors          11          12          13          14    -142.105
ENDCONSTRAINT
$end

$rem
JOBTYPE                   OPT
METHOD                    B3LYP
DFT_D                     d3_op
BASIS                     STO-3G
GEOM_OPT_MAX_CYCLES       100
GEOM_OPT_TOL_GRADIENT     300
GEOM_OPT_TOL_DISPLACEMENT 1200
GEOM_OPT_TOL_ENERGY       100
SYMMETRY                  False
THRESH                    12
SCF_CONVERGENCE           8
MAX_SUB_FILE_NUM          128
MEM_STATIC                400
MEM_TOTAL                 4000
$end
--------------------------------------------------------------

   18   -1509.3635965967      5.57E-09 Convergence criterion met
 Total energy in the final basis set = -1509.36359660
   15   -1509.4947535480      2.59E-09 Convergence criterion met
 Total energy in the final basis set = -1509.49475355
   15   -1509.5953621138      2.54E-09 Convergence criterion met
 Total energy in the final basis set = -1509.59536211
   14   -1509.6734359180      9.08E-09 Convergence criterion met
 Total energy in the final basis set = -1509.67343592
   13   -1509.7325435923      9.62E-09 Convergence criterion met
 Total energy in the final basis set = -1509.73254359
   14   -1509.7773974860      7.64E-09 Convergence criterion met
 Total energy in the final basis set = -1509.77739749
   13   -1509.8136182717      8.62E-09 Convergence criterion met
 Total energy in the final basis set = -1509.81361827
   13   -1509.8451751408      8.65E-09 Convergence criterion met
   10   -1510.2352480685      8.77E-09 Convergence criterion met
 Total energy in the final basis set = -1510.23524807
   11   -1510.2352763657      3.05E-09 Convergence criterion met
 Total energy in the final basis set = -1510.23527637
   11   -1510.2353020993      4.83E-09 Convergence criterion met
 Total energy in the final basis set = -1510.23530210
   10   -1510.2353141226      4.96E-09 Convergence criterion met
 Total energy in the final basis set = -1510.23531412
    9   -1510.2353200043      7.65E-09 Convergence criterion met
 Total energy in the final basis set = -1510.23532000
    9   -1510.2353213447      9.23E-09 Convergence criterion met
 Total energy in the final basis set = -1510.23532134

             Standard Nuclear Orientation (Angstroms)
    I     Atom           X                Y                Z
 ----------------------------------------------------------------
    1      O       1.8084605990    -1.8760359404     1.9012129377
    2      C       2.0711836640    -0.9236095008     1.1253657009
    3      C       1.7045210019    -0.8940688889    -0.3966380489
    4      C       2.0752787561     0.3514869223    -1.3026537663
    5      C       2.3105845207     1.8500407170    -0.8183273247
    6      O       2.0490071585     2.3863149217     0.4873075381
    7      C       0.8103014989     2.1828328413     1.2546306573
    8      C      -0.6240503282     2.3802871764     0.5782345168
    9      O      -0.9773160108     1.8009162136    -0.7259106486
   10      C      -1.0421422569     0.3647253148    -0.7729207131
   11      C      -1.4149814343    -0.4512078373     0.5327724125
   12      C      -2.6613862756     0.0191887135     1.3854759857
   13      C      -3.5681426136     1.0584542366     0.6411877530
   14      O      -4.1529527758     2.0473858294     1.1346905789
   15      O       2.9645078661     0.1402788934     1.4499902940
   16      O      -3.6221020556     0.6856190147    -0.7374468924
   17      O      -0.8694516813    -0.1732657412    -1.8903883250
   18      C      -4.4111646255     1.6705245978    -1.5115272291
   19      C      -1.7967542444    -1.9566987883     0.1996227771
   20      C      -1.4265776414    -2.8108076128     1.4710957388
   21      C      -2.5417485433    -2.3222731625     2.4714857415
   22      C      -3.4129790930    -1.3781229494     1.5428514964
   23      O      -3.2767245460    -1.9684075246     0.1949665102
   24      H      -0.5265113836    -0.4403177792     1.1868076930
   25      H      -2.3718802825     0.4359856313     2.3654944056
   26      H      -1.4033914000    -2.3150675820    -0.7718313928
   27      H      -1.5287503457    -3.8858567067     1.2534025845
   28      H      -0.3966687206    -2.6115880400     1.8204793929
   29      H      -3.1503550407    -3.1613638934     2.8436067857
   30      H      -2.1285655708    -1.7774687767     3.3356545293
   31      H      -4.4800500155    -1.2919109889     1.8267724238
   32      O       2.9360472489     2.6237776781    -1.5811277183
   33      C       3.4315894567     0.0252285971     2.8514506415
   34      C       2.6689569265    -1.9836652223    -1.0688242800
   35      C       2.1817883382    -2.2771557556    -2.5448214102
   36      C       2.7824058321    -1.0463281866    -3.3181783439
   37      C       3.3374150779    -0.1964778662    -2.1123792716
   38      O       3.9294769523    -1.2286927929    -1.2323126000
   39      H       0.6601963893    -1.1970163331    -0.5317583468
   40      H       1.2333105182     0.4445328392    -2.0183738426
   41      H       4.5376298914     0.0611347187     2.8516943751
   42      H       2.8268179395    -2.8828157433    -0.4412018522
   43      H       2.5919575821    -3.2325737346    -2.9080335074
   44      H       1.0821422677    -2.3155064218    -2.6082159376
   45      H       3.6074468383    -1.3507803416    -3.9822541171
   46      H       2.0293407345    -0.5014999307    -3.9093612191
   47      H       4.0764841540     0.5870491527    -2.3693674328
   48      H       3.0734702532    -0.9321746846     3.2812302367
   49      H       3.0362233802     0.8783350880     3.4376001156
   50      H      -4.4090586786     1.3066006696    -2.5552941785
   51      H      -3.9502147579     2.6784383617    -1.4683715395
   52      H      -5.4541295241     1.7381796802    -1.1406801373
   53      H      -1.3498094502     2.0944462892     1.3669008973
   54      H      -0.7549834851     3.4680247619     0.3995077989
   55      H       0.8621327561     2.9450178441     2.0602859033
   56      H       0.8277556795     1.1813949246     1.7402672457
 ----------------------------------------------------------------

    9   -1510.2353220983      2.77E-09 Convergence criterion met
 Total energy in the final basis set = -1510.23532210
 Final energy is   -1510.23532209834
 **  OPTIMIZATION CONVERGED  **

                    Orbital Energies (a.u.)
 --------------------------------------------------------------

 Alpha MOs
 -- Occupied --
-18.949 -18.947 -18.946 -18.923 -18.897 -18.892 -18.887 -18.885
-18.881 -18.875 -10.118 -10.109 -10.109 -10.104 -10.088 -10.086
-10.070 -10.069 -10.065 -10.065 -10.060 -10.055 -10.050 -10.047
-10.039 -10.031 -10.026 -10.020 -10.017 -10.015  -1.026  -1.022
 -1.017  -1.001  -0.979  -0.971  -0.954  -0.946  -0.945  -0.931
 -0.775  -0.762  -0.729  -0.724  -0.721  -0.712  -0.700  -0.667
 -0.666  -0.625  -0.604  -0.599  -0.559  -0.547  -0.541  -0.536
 -0.522  -0.516  -0.499  -0.485  -0.480  -0.468  -0.451  -0.444
 -0.439  -0.429  -0.429  -0.426  -0.421  -0.417  -0.415  -0.411
 -0.406  -0.396  -0.383  -0.378  -0.376  -0.365  -0.358  -0.354
 -0.348  -0.346  -0.338  -0.333  -0.329  -0.327  -0.322  -0.319
 -0.311  -0.309  -0.308  -0.304  -0.302  -0.300  -0.295  -0.284
 -0.270  -0.263  -0.255  -0.250  -0.242  -0.233  -0.227  -0.190
 -0.185  -0.183  -0.169  -0.166  -0.165  -0.159  -0.152  -0.147
 -0.143

          Ground-State Mulliken Net Atomic Charges

     Atom                 Charge (a.u.)
  ----------------------------------------
      1 O                    -0.224809
      2 C                     0.201163
      3 C                    -0.089306
      4 C                    -0.090558
      5 C                     0.217699
      6 O                    -0.177926
      7 C                    -0.044509
      8 C                    -0.058333
      9 O                    -0.169677
     10 C                     0.218844
     11 C                    -0.088112
     12 C                    -0.082469
     13 C                     0.205346
     14 O                    -0.212943
     15 O                    -0.160328
     16 O                    -0.162972
     17 O                    -0.201605
     18 C                    -0.126498
     19 C                     0.024100
     20 C                    -0.148158
     21 C                    -0.144730
     22 C                     0.026528
     23 O                    -0.184816
     24 H                     0.078733
     25 H                     0.081826
     26 H                     0.090505
     27 H                     0.078433
     28 H                     0.086418
     29 H                     0.079602
     30 H                     0.073122
     31 H                     0.084255
     32 O                    -0.195938
     33 C                    -0.135606
     34 C                     0.025675
     35 C                    -0.145985
     36 C                    -0.141657
     37 C                     0.026314
     38 O                    -0.191596
     39 H                     0.090715
     40 H                     0.096032
     41 H                     0.093302
     42 H                     0.082997
     43 H                     0.077564
     44 H                     0.078462
     45 H                     0.077537
     46 H                     0.078959
     47 H                     0.092416
     48 H                     0.101530
     49 H                     0.084645
     50 H                     0.096540
     51 H                     0.091732
     52 H                     0.090852
     53 H                     0.085729
     54 H                     0.094462
     55 H                     0.095572
     56 H                     0.070925
  ----------------------------------------
  Sum of atomic charges =    -0.000000

                    Cartesian Multipole Moments
 -----------------------------------------------------------------
    Charge (ESU x 10^10)
                -0.0000
    Dipole Moment (Debye)
         X      -1.6946      Y      -0.9204      Z       2.6464
       Tot       3.2745
    Quadrupole Moments (Debye-Ang)
        XX    -170.3668     XY      -5.7991     YY    -166.9155
        XZ       3.8629     YZ       3.4322     ZZ    -154.7168

 Total job time:  143.17s(wall), 6826.70s(cpu)
        *  Thank you very much for using Q-Chem.  Have a nice day.  *
