 Q-Chem 5.0, Q-Chem, Inc., Pleasanton, CA (2017)
 Q-Chem 5.0.1 for Intel X86 EM64T Linux

User input:
--------------------------------------------------------------
$molecule
0  1
O 1.808460599 -1.8760359404 1.9012129377
C 2.071183664 -0.9236095008 1.1253657009
C 1.7045210019 -0.8940688889 -0.3966380489
C 2.0752787561 0.3514869223 -1.3026537663
C 2.3105845207 1.850040717 -0.8183273247
O 2.0490071585 2.3863149217 0.4873075381
C 0.8103014989 2.1828328413 1.2546306573
C -0.6240503282 2.3802871764 0.5782345168
O -0.9773160108 1.8009162136 -0.7259106486
C -1.0421422569 0.3647253148 -0.7729207131
C -1.4149814343 -0.4512078373 0.5327724125
C -2.6613862756 0.0191887135 1.3854759857
C -3.5681426136 1.0584542366 0.641187753
O -4.1529527758 2.0473858294 1.1346905789
O 2.9645078661 0.1402788934 1.449990294
O -3.6221020556 0.6856190147 -0.7374468924
O -0.8694516813 -0.1732657412 -1.890388325
C -4.4111646255 1.6705245978 -1.5115272291
C -1.7967542444 -1.9566987883 0.1996227771
C -1.4265776414 -2.8108076128 1.4710957388
C -2.5417485433 -2.3222731625 2.4714857415
C -3.412979093 -1.3781229494 1.5428514964
O -3.276724546 -1.9684075246 0.1949665102
H -0.5265113836 -0.4403177792 1.186807693
H -2.3718802825 0.4359856313 2.3654944056
H -1.4033914 -2.315067582 -0.7718313928
H -1.5287503457 -3.8858567067 1.2534025845
H -0.3966687206 -2.61158804 1.8204793929
H -3.1503550407 -3.1613638934 2.8436067857
H -2.1285655708 -1.7774687767 3.3356545293
H -4.4800500155 -1.2919109889 1.8267724238
O 2.9360472489 2.6237776781 -1.5811277183
C 3.4315894567 0.0252285971 2.8514506415
C 2.6689569265 -1.9836652223 -1.06882428
C 2.1817883382 -2.2771557556 -2.5448214102
C 2.7824058321 -1.0463281866 -3.3181783439
C 3.3374150779 -0.1964778662 -2.1123792716
O 3.9294769523 -1.2286927929 -1.2323126
H 0.6601963893 -1.1970163331 -0.5317583468
H 1.2333105182 0.4445328392 -2.0183738426
H 4.5376298914 0.0611347187 2.8516943751
H 2.8268179395 -2.8828157433 -0.4412018522
H 2.5919575821 -3.2325737346 -2.9080335074
H 1.0821422677 -2.3155064218 -2.6082159376
H 3.6074468383 -1.3507803416 -3.9822541171
H 2.0293407345 -0.5014999307 -3.9093612191
H 4.076484154 0.5870491527 -2.3693674328
H 3.0734702532 -0.9321746846 3.2812302367
H 3.0362233802 0.878335088 3.4376001156
H -4.4090586786 1.3066006696 -2.5552941785
H -3.9502147579 2.6784383617 -1.4683715395
H -5.4541295241 1.7381796802 -1.1406801373
H -1.3498094502 2.0944462892 1.3669008973
H -0.7549834851 3.4680247619 0.3995077989
H 0.8621327561 2.9450178441 2.0602859033
H 0.8277556795 1.1813949246 1.7402672457
$end

$rem
JOBTYPE                   OPT
METHOD                    B3LYP
DFT_D                     d3_op
BASIS                     STO-3G
GEOM_OPT_MAX_CYCLES       100
GEOM_OPT_TOL_GRADIENT     300
GEOM_OPT_TOL_DISPLACEMENT 1200
GEOM_OPT_TOL_ENERGY       100
SYMMETRY                  False
THRESH                    12
SCF_CONVERGENCE           8
MAX_SUB_FILE_NUM          128
MEM_STATIC                400
MEM_TOTAL                 4000
$end
--------------------------------------------------------------

   16   -1510.2354757126      6.03E-09 Convergence criterion met
 Total energy in the final basis set = -1510.23547571
   14   -1510.2345761207      7.01E-09 Convergence criterion met
 Total energy in the final basis set = -1510.23457612
   14   -1510.2442284886      4.43E-09 Convergence criterion met
 Total energy in the final basis set = -1510.24422849
   14   -1510.2510050579      8.80E-09 Convergence criterion met
 Total energy in the final basis set = -1510.25100506
   14   -1510.2547503737      4.29E-09 Convergence criterion met
 Total energy in the final basis set = -1510.25475037
   13   -1510.2582343423      6.67E-09 Convergence criterion met
 Total energy in the final basis set = -1510.25823434
   13   -1510.2610614580      4.04E-09 Convergence criterion met
 Total energy in the final basis set = -1510.26106146
   13   -1510.2635187156      9.09E-09 Convergence criterion met
   11   -1510.2744558165      6.87E-09 Convergence criterion met
 Total energy in the final basis set = -1510.27445582
   12   -1510.2744483683      3.96E-09 Convergence criterion met
 Total energy in the final basis set = -1510.27444837
   11   -1510.2744515849      9.13E-09 Convergence criterion met
 Total energy in the final basis set = -1510.27445158
   12   -1510.2744638418      7.41E-09 Convergence criterion met
 Total energy in the final basis set = -1510.27446384
   12   -1510.2744742759      3.55E-09 Convergence criterion met
 Total energy in the final basis set = -1510.27447428
   10   -1510.2744623666      5.57E-09 Convergence criterion met
 Total energy in the final basis set = -1510.27446237

             Standard Nuclear Orientation (Angstroms)
    I     Atom           X                Y                Z
 ----------------------------------------------------------------
    1      O      -2.4432898606    -2.0958455011    -1.8404305093
    2      C      -2.9727152434    -1.1350249959    -1.2337638096
    3      C      -2.5072116377    -0.5283762178     0.1274565206
    4      C      -2.1323221440     1.0150819286     0.0604672136
    5      C      -2.3805866792     1.6943813737    -1.3375261158
    6      O      -1.4941312202     1.3733291220    -2.4413140228
    7      C      -0.3122018692     0.5486385105    -2.1269275774
    8      C       0.8200820249     1.3041591388    -1.3092110778
    9      O       0.7247254645     1.0940617774     0.1537471256
   10      C       1.0571277244    -0.2502616180     0.6033285487
   11      C       2.0926049715    -1.0896509250    -0.2447787106
   12      C       3.5274063155    -0.4187534357    -0.3574796914
   13      C       3.6122032560     0.9700260569     0.3609016422
   14      O       4.0442047108     2.0439040828    -0.1106476011
   15      O      -4.0961605315    -0.3937799422    -1.7122096344
   16      O       3.0868409680     0.8139283163     1.6823142670
   17      O       0.4956001720    -0.6523111279     1.6433171965
   18      C       2.9891842473     2.1281382553     2.3573949353
   19      C       2.4444282799    -2.4359915210     0.5158654868
   20      C       3.1470896615    -3.4115477055    -0.5060105646
   21      C       4.5706405404    -2.7503232947    -0.6258775788
   22      C       4.4214264857    -1.5241470945     0.3600382909
   23      O       3.5398000211    -2.0376091155     1.4296885420
   24      H       1.6683194504    -1.2965641897    -1.2430178468
   25      H       3.8319357032    -0.2751518090    -1.4091435427
   26      H       1.5970872832    -2.8586144313     1.0899136082
   27      H       3.2078943947    -4.4280574947    -0.0861883709
   28      H       2.6155473136    -3.4581475842    -1.4698529602
   29      H       5.3633859865    -3.4304055207    -0.2757881058
   30      H       4.8074548024    -2.4301319607    -1.6531531313
   31      H       5.3692920740    -1.1409700424     0.7852705210
   32      O      -3.2785248437     2.5258964637    -1.5848614972
   33      C      -4.5164979615    -0.8816983759    -3.0468900793
   34      C      -3.6577098186    -0.5046256353     1.2275325174
   35      C      -2.9639913817    -0.3127521390     2.6345480716
   36      C      -2.5708719422     1.2101236093     2.5705565538
   37      C      -3.1205318284     1.6075628584     1.1435102242
   38      O      -4.3424744029     0.7827936626     0.9942846011
   39      H      -1.6458234996    -1.1245528811     0.4764673769
   40      H      -1.0661538675     1.1622306447     0.3394009312
   41      H      -5.5754597452    -1.2008554446    -2.9926045270
   42      H      -4.3746218619    -1.3459262926     1.1612213485
   43      H      -3.6797340266    -0.5141945063     3.4473558289
   44      H      -2.0864500648    -0.9674743717     2.7579106517
   45      H      -3.0737734595     1.7932588116     3.3583036749
   46      H      -1.4824210865     1.3625489598     2.6499180543
   47      H      -3.3616666451     2.6781191482     0.9974961608
   48      H      -3.8736430051    -1.7332567160    -3.3485228239
   49      H      -4.4189393412    -0.0512680572    -3.7734177839
   50      H       2.6820659316     1.9144779798     3.3973549274
   51      H       2.2244728117     2.7652825335     1.8672169111
   52      H       3.9602903762     2.6627107262     2.3514301405
   53      H       1.8158444173     1.0188117857    -1.7033911161
   54      H       0.6984072351     2.3979881924    -1.4509549499
   55      H       0.1026098040     0.2861946380    -3.1221550883
   56      H      -0.5738290904    -0.3994800059    -1.6120795794
 ----------------------------------------------------------------

   10   -1510.2744616655      6.11E-09 Convergence criterion met
 Total energy in the final basis set = -1510.27446167
 Final energy is   -1510.27446166550
 **  OPTIMIZATION CONVERGED  **

                    Orbital Energies (a.u.)
 --------------------------------------------------------------

 Alpha MOs
 -- Occupied --
-18.951 -18.949 -18.935 -18.925 -18.902 -18.900 -18.889 -18.879
-18.873 -18.870 -10.123 -10.112 -10.099 -10.093 -10.090 -10.083
-10.073 -10.071 -10.070 -10.055 -10.055 -10.054 -10.053 -10.048
-10.032 -10.031 -10.029 -10.016 -10.010 -10.009  -1.030  -1.020
 -1.012  -0.999  -0.982  -0.961  -0.959  -0.949  -0.936  -0.931
 -0.778  -0.755  -0.735  -0.720  -0.717  -0.714  -0.696  -0.669
 -0.655  -0.625  -0.608  -0.591  -0.563  -0.549  -0.544  -0.529
 -0.525  -0.506  -0.497  -0.485  -0.478  -0.465  -0.458  -0.447
 -0.442  -0.428  -0.423  -0.423  -0.420  -0.416  -0.411  -0.407
 -0.398  -0.393  -0.389  -0.379  -0.371  -0.365  -0.358  -0.351
 -0.348  -0.343  -0.342  -0.333  -0.331  -0.324  -0.322  -0.317
 -0.315  -0.308  -0.306  -0.302  -0.298  -0.297  -0.288  -0.285
 -0.276  -0.268  -0.255  -0.247  -0.245  -0.236  -0.226  -0.193
 -0.188  -0.174  -0.173  -0.165  -0.164  -0.158  -0.155  -0.142
 -0.135

          Ground-State Mulliken Net Atomic Charges

     Atom                 Charge (a.u.)
  ----------------------------------------
      1 O                    -0.224509
      2 C                     0.202299
      3 C                    -0.085440
      4 C                    -0.104856
      5 C                     0.207030
      6 O                    -0.176978
      7 C                    -0.056617
      8 C                    -0.057055
      9 O                    -0.177940
     10 C                     0.218448
     11 C                    -0.085035
     12 C                    -0.083220
     13 C                     0.205640
     14 O                    -0.210250
     15 O                    -0.161424
     16 O                    -0.163623
     17 O                    -0.191909
     18 C                    -0.127680
     19 C                     0.026577
     20 C                    -0.144201
     21 C                    -0.143709
     22 C                     0.027280
     23 O                    -0.182954
     24 H                     0.082082
     25 H                     0.083302
     26 H                     0.093196
     27 H                     0.081380
     28 H                     0.074652
     29 H                     0.080775
     30 H                     0.074398
     31 H                     0.085735
     32 O                    -0.197032
     33 C                    -0.135185
     34 C                     0.027264
     35 C                    -0.144015
     36 C                    -0.144289
     37 C                     0.025378
     38 O                    -0.186089
     39 H                     0.081769
     40 H                     0.104839
     41 H                     0.087628
     42 H                     0.080677
     43 H                     0.075312
     44 H                     0.079663
     45 H                     0.074888
     46 H                     0.077979
     47 H                     0.087507
     48 H                     0.099233
     49 H                     0.091422
     50 H                     0.096443
     51 H                     0.092202
     52 H                     0.092756
     53 H                     0.088019
     54 H                     0.101340
     55 H                     0.091105
     56 H                     0.085794
  ----------------------------------------
  Sum of atomic charges =     0.000000

                    Cartesian Multipole Moments
 -----------------------------------------------------------------
    Charge (ESU x 10^10)
                -0.0000
    Dipole Moment (Debye)
         X       3.8280      Y      -2.0158      Z      -0.7427
       Tot       4.3896
    Quadrupole Moments (Debye-Ang)
        XX    -167.3392     XY       5.6513     YY    -164.1630
        XZ      -5.5191     YZ       9.5906     ZZ    -159.1996

 Total job time:  126.97s(wall), 6057.56s(cpu)
        *  Thank you very much for using Q-Chem.  Have a nice day.  *
