 Q-Chem 5.0, Q-Chem, Inc., Pleasanton, CA (2017)
 Q-Chem 5.0.1 for Intel X86 EM64T Linux

User input:
--------------------------------------------------------------
$molecule
0  1
O -3.5293947652 -2.8307080641 1.0728454253
C -3.0068700997 -1.9013092357 0.4743539652
C -2.9708423294 -0.4649580542 0.9478411094
C -1.8985568557 0.4503759374 0.3344575844
C -1.0972404545 -0.1242180456 -0.8126325789
O -0.0223775802 0.67663486 -1.0748049159
C 0.330733725 0.7090529868 -2.4617057452
C 1.4898705945 -0.2447643407 -2.7314168102
O 1.9331531636 -0.8367798717 -1.5001924883
C 3.2593415406 -0.7206348362 -1.2415986593
C 3.5553598292 -0.4865542544 0.220677566
C 3.0351114741 0.8450957822 0.7813540342
C 2.0119769183 1.5668644415 -0.0724164593
O 1.7774889403 1.3311353987 -1.2488559865
O -2.1318908374 -2.3970928502 -0.4350154502
O 1.4697457203 2.6781326059 0.4970721692
O 4.1278831405 -0.8121579401 -2.0987136325
C 0.7127084423 3.6211993819 -0.1658279011
C 2.87789167 -1.4973881891 1.161459666
C 3.6388389125 -1.5583842645 2.484223139
C 3.28128787 -0.2104779453 3.0774432567
C 2.2937253208 0.3028789889 2.0229285955
O 1.6787437717 -0.8664653681 1.5356873621
H 4.6612541666 -0.552632283 0.3375997609
H 3.8393940383 1.569634757 1.0365335159
H 2.7829525748 -2.5124225552 0.7173502353
H 3.1612180439 -2.3552429643 3.098402644
H 4.727275828 -1.7651396448 2.3981472353
H 2.7642401505 -0.3819715259 4.0477442571
H 4.1330039806 0.4900614128 3.2165742982
H 1.6098739227 1.0538043903 2.4763439231
O -1.7264940932 -0.5963890385 -1.7589099337
C -2.0119587419 -3.7111891595 -0.8517669913
C -4.2507586591 0.2941621913 0.5628886368
C -4.4379107812 1.5013294862 1.4825506152
C -3.3511917756 2.4221919183 0.9659524967
C -2.8042966183 1.5835789287 -0.1923280851
O -3.9350483432 0.8934449241 -0.6685782175
H -2.8729874271 -0.5085214251 2.0561296064
H -1.1744053871 0.8041728726 1.1035990274
H -2.9647695433 -4.0548567491 -1.3066255904
H -5.1584868037 -0.3482719495 0.5780637205
H -5.4268164689 1.954808773 1.2452839197
H -4.3894492387 1.270384494 2.568450157
H -3.8316551634 3.3448847636 0.5707411178
H -2.5624232233 2.6907897278 1.701605157
H -2.2929362869 2.2332068318 -0.9337723997
H -1.7447781598 -4.3650943926 0.0048390007
H -1.2062819534 -3.7784078995 -1.6110490722
H 0.4132789984 4.4144995245 0.5491297877
H -0.2043145681 3.1671804717 -0.5828329113
H 1.307365764 4.0786683447 -0.9851271235
H 1.1001539455 -1.082946485 -3.3493267132
H 2.2797691116 0.2402095435 -3.3548066745
H 0.4405601125 1.7536092295 -2.871632872
H -0.468829241 0.4604451819 -3.1942632719
$end

$rem
JOBTYPE                   OPT
METHOD                    B3LYP
DFT_D                     d3_op
BASIS                     STO-3G
GEOM_OPT_MAX_CYCLES       100
GEOM_OPT_TOL_GRADIENT     300
GEOM_OPT_TOL_DISPLACEMENT 1200
GEOM_OPT_TOL_ENERGY       100
SYMMETRY                  False
THRESH                    12
SCF_CONVERGENCE           8
MAX_SUB_FILE_NUM          128
MEM_STATIC                400
MEM_TOTAL                 4000
$end
--------------------------------------------------------------

   16   -1510.0029062973      2.70E-09 Convergence criterion met
 Total energy in the final basis set = -1510.00290630
   15   -1510.1046290744      2.96E-09 Convergence criterion met
 Total energy in the final basis set = -1510.10462907
   14   -1510.1717213450      6.85E-09 Convergence criterion met
 Total energy in the final basis set = -1510.17172135
   14   -1510.2113415294      8.08E-09 Convergence criterion met
 Total energy in the final basis set = -1510.21134153
   14   -1510.2367131348      9.20E-09 Convergence criterion met
 Total energy in the final basis set = -1510.23671313
   14   -1510.2542793863      8.83E-09 Convergence criterion met
 Total energy in the final basis set = -1510.25427939
   14   -1510.2655260888      6.48E-09 Convergence criterion met
 Total energy in the final basis set = -1510.26552609
   14   -1510.2740092039      3.95E-09 Convergence criterion met
   11   -1510.3023083799      3.94E-09 Convergence criterion met
 Total energy in the final basis set = -1510.30230838
   11   -1510.3023215864      7.25E-09 Convergence criterion met
 Total energy in the final basis set = -1510.30232159
   10   -1510.3023223345      7.16E-09 Convergence criterion met
 Total energy in the final basis set = -1510.30232233
    9   -1510.3023252760      6.85E-09 Convergence criterion met
 Total energy in the final basis set = -1510.30232528
   10   -1510.3023294937      9.25E-09 Convergence criterion met
 Total energy in the final basis set = -1510.30232949
    9   -1510.3023320490      6.50E-09 Convergence criterion met
 Total energy in the final basis set = -1510.30233205

             Standard Nuclear Orientation (Angstroms)
    I     Atom           X                Y                Z
 ----------------------------------------------------------------
    1      O      -3.1371531697    -2.6141459699    -0.4851334081
    2      C      -2.1638155080    -1.9715613004    -0.0424508132
    3      C      -2.1718431253    -0.6165774753     0.7474422842
    4      C      -1.5114358776     0.5974566954    -0.0198633128
    5      C      -1.1904678130     0.2421960244    -1.5011320689
    6      O      -0.4015696774     1.2909786824    -2.0903907405
    7      C       0.2929835539     0.7954488328    -3.3031343609
    8      C       1.1469895737    -0.4985539847    -2.9749726555
    9      O       1.2552016749    -0.5987951526    -1.5004547823
   10      C       2.6265449424    -0.6483559443    -1.0872499341
   11      C       2.7045895982    -0.5400619694     0.4749858617
   12      C       2.8175701851     0.9538875812     1.0088446569
   13      C       2.2458512084     1.9489362556    -0.0728344289
   14      O       2.5152516765     1.9205340562    -1.2957359029
   15      O      -0.8051033197    -2.4685298229    -0.0551797520
   16      O       1.3155760900     2.8517225417     0.5152975777
   17      O       3.5885663430    -0.8117595204    -1.8695947854
   18      C       0.6095734532     3.6023842414    -0.5552831256
   19      C       1.4319698539    -1.0506992308     1.2942153466
   20      C       1.9742764492    -1.5276329056     2.6942895958
   21      C       2.4167270773    -0.1510338358     3.3241435388
   22      C       1.8613185448     0.8802325977     2.2609235213
   23      O       0.6963854906     0.1828571236     1.6728223593
   24      H       3.6030775623    -1.1056810610     0.7788237142
   25      H       3.8612175835     1.2228116755     1.2554933174
   26      H       0.7297664107    -1.7300279272     0.7512163837
   27      H       1.1638066078    -1.9914905840     3.2795318273
   28      H       2.8046916787    -2.2462006047     2.6084978408
   29      H       1.9491952799     0.0167072612     4.3071005995
   30      H       3.5100658675    -0.0713352087     3.4366474108
   31      H       1.5618398844     1.8668606499     2.6625651750
   32      O      -1.5352688810    -0.7865314421    -2.1242331267
   33      C      -0.7168870249    -3.6861243352    -0.8865626265
   34      C      -3.6286575092    -0.0544296610     1.0189534184
   35      C      -3.5331908492     0.9346223423     2.2450313765
   36      C      -2.7812052070     2.1524421367     1.5882309164
   37      C      -2.6678588948     1.6736065476     0.0860158393
   38      O      -3.8867153438     0.8554364251    -0.1232863727
   39      H      -1.6235357826    -0.7773301548     1.6937410886
   40      H      -0.5643951940     0.8678652739     0.4993622305
   41      H      -0.9806231585    -3.4661382031    -1.9413747401
   42      H      -4.4166568586    -0.8301626050     1.0793306254
   43      H      -4.5402563247     1.2216896989     2.5879180075
   44      H      -2.9795951291     0.4990874751     3.0921509038
   45      H      -3.3718410097     3.0796868161     1.6567470919
   46      H      -1.7895673448     2.3281398749     2.0353501443
   47      H      -2.6122815474     2.4866217599    -0.6640721194
   48      H      -1.3871019290    -4.4874954853    -0.5135592198
   49      H       0.3342828216    -4.0243177871    -0.8302923930
   50      H      -0.1526516598     4.2135646731    -0.0391366470
   51      H       0.1298484031     2.8783898500    -1.2572379984
   52      H       1.3033789326     4.2643295468    -1.1112858304
   53      H       0.6318369740    -1.4064453878    -3.3494757122
   54      H       2.1670013256    -0.4381993006    -3.4103898739
   55      H       0.9517085658     1.6318078294    -3.6086319034
   56      H      -0.4301792023     0.5767712096    -4.1186515173
 ----------------------------------------------------------------

    9   -1510.3023324502      6.01E-09 Convergence criterion met
 Total energy in the final basis set = -1510.30233245
 Final energy is   -1510.30233245017
 **  OPTIMIZATION CONVERGED  **

                    Orbital Energies (a.u.)
 --------------------------------------------------------------

 Alpha MOs
 -- Occupied --
-18.938 -18.937 -18.931 -18.924 -18.896 -18.881 -18.878 -18.875
-18.873 -18.864 -10.103 -10.101 -10.101 -10.091 -10.075 -10.067
-10.065 -10.058 -10.053 -10.050 -10.050 -10.049 -10.043 -10.037
-10.024 -10.023 -10.021 -10.018 -10.014 -10.013  -1.022  -1.013
 -1.005  -0.998  -0.977  -0.962  -0.941  -0.937  -0.933  -0.926
 -0.766  -0.754  -0.727  -0.720  -0.711  -0.702  -0.691  -0.656
 -0.655  -0.617  -0.595  -0.577  -0.548  -0.540  -0.539  -0.531
 -0.513  -0.503  -0.483  -0.478  -0.469  -0.457  -0.447  -0.444
 -0.435  -0.431  -0.424  -0.414  -0.412  -0.405  -0.403  -0.402
 -0.388  -0.377  -0.372  -0.370  -0.362  -0.354  -0.350  -0.346
 -0.342  -0.336  -0.332  -0.330  -0.329  -0.325  -0.318  -0.311
 -0.309  -0.304  -0.301  -0.297  -0.293  -0.289  -0.277  -0.273
 -0.271  -0.261  -0.248  -0.246  -0.243  -0.234  -0.221  -0.183
 -0.179  -0.172  -0.167  -0.160  -0.153  -0.151  -0.150  -0.142
 -0.136

          Ground-State Mulliken Net Atomic Charges

     Atom                 Charge (a.u.)
  ----------------------------------------
      1 O                    -0.212813
      2 C                     0.219672
      3 C                    -0.082487
      4 C                    -0.092816
      5 C                     0.225066
      6 O                    -0.174137
      7 C                    -0.046613
      8 C                    -0.055657
      9 O                    -0.176199
     10 C                     0.215546
     11 C                    -0.082992
     12 C                    -0.076548
     13 C                     0.211523
     14 O                    -0.217620
     15 O                    -0.178953
     16 O                    -0.171251
     17 O                    -0.213506
     18 C                    -0.144137
     19 C                     0.009201
     20 C                    -0.142502
     21 C                    -0.145619
     22 C                     0.024843
     23 O                    -0.196651
     24 H                     0.083762
     25 H                     0.086520
     26 H                     0.113924
     27 H                     0.076481
     28 H                     0.073597
     29 H                     0.077524
     30 H                     0.074085
     31 H                     0.091067
     32 O                    -0.209529
     33 C                    -0.126987
     34 C                     0.023451
     35 C                    -0.142486
     36 C                    -0.144091
     37 C                     0.022921
     38 O                    -0.191863
     39 H                     0.087785
     40 H                     0.117770
     41 H                     0.092432
     42 H                     0.087189
     43 H                     0.075678
     44 H                     0.072882
     45 H                     0.074714
     46 H                     0.076652
     47 H                     0.079883
     48 H                     0.088082
     49 H                     0.085343
     50 H                     0.083168
     51 H                     0.113206
     52 H                     0.082162
     53 H                     0.089875
     54 H                     0.103613
     55 H                     0.096602
     56 H                     0.089236
  ----------------------------------------
  Sum of atomic charges =    -0.000000

                    Cartesian Multipole Moments
 -----------------------------------------------------------------
    Charge (ESU x 10^10)
                -0.0000
    Dipole Moment (Debye)
         X       2.0514      Y       0.8386      Z       2.2049
       Tot       3.1262
    Quadrupole Moments (Debye-Ang)
        XX    -174.6256     XY      -5.0624     YY    -153.4810
        XZ       1.8794     YZ      -1.7891     ZZ    -151.7071

 Total job time:  195.23s(wall), 9311.25s(cpu)
        *  Thank you very much for using Q-Chem.  Have a nice day.  *
