 Q-Chem 5.0, Q-Chem, Inc., Pleasanton, CA (2017)
 Q-Chem 5.0.1 for Intel X86 EM64T Linux

User input:
--------------------------------------------------------------
$molecule
0  1
O -3.5778267793 1.0610983183 1.7876876296
C -3.8053079428 1.2718522715 0.5765711344
C -4.2664093192 0.2260923429 -0.5012212558
C -3.0791879601 -0.6548561593 -1.0836591769
C -1.6932934419 -0.3121531953 -0.4033022815
O -0.8458640613 -1.4761263372 -0.2377978141
C -0.7698629747 -1.8425102751 1.1998875728
C 0.5780551247 -1.3081463593 1.8470870606
O 1.0885052739 -0.3041764129 0.8955697954
C 2.4103110892 0.162193772 1.3277970121
C 3.5627803068 -0.5321436059 0.5007339299
C 3.62231954 -0.2178039162 -1.0517683598
C 2.8568692349 1.0738998631 -1.5310138925
O 3.0838425482 1.7235056485 -2.5755398234
O -3.7297406135 2.5564967976 -0.0520982393
O 1.899635254 1.4435250116 -0.5496989567
O 2.5808758294 0.9477441499 2.2811597161
C 1.0591650567 2.589535436 -0.957167605
C 5.0295893673 -0.1322361433 0.9557076426
C 5.9788053154 -1.3425712041 0.6055350934
C 6.004760959 -1.2474316827 -0.9662281407
C 5.1743717411 0.073759063 -1.2138455243
O 5.4491130556 0.9048454088 -0.0163922411
H 3.4082584399 -1.6196983638 0.6320677137
H 3.2825613865 -1.0779599446 -1.6575005319
H 5.0923711968 0.2566625934 1.9908357383
H 6.9811422377 -1.1813139004 1.0336941236
H 5.5875844797 -2.3056311686 0.9707190243
H 7.0313264889 -1.1366719938 -1.3495741501
H 5.5403077173 -2.1209192417 -1.4517999097
H 5.4225334259 0.6287272544 -2.1398617699
O -1.3627490582 0.8400362054 -0.0475647052
C -3.1922658689 3.5501853507 0.9050862225
C -5.1776277984 -0.9082471451 0.1387714275
C -5.942042008 -1.6495424762 -1.0264840107
C -4.7780591126 -2.4989011628 -1.6591848138
C -3.5705665771 -2.1131901153 -0.7188388213
O -4.2012781707 -1.9196657249 0.608554773
H -4.7856158268 0.7707912047 -1.3091482397
H -2.9779472811 -0.5171499002 -2.1767500821
H -2.1706793896 3.272983374 1.2368517999
H -5.809287463 -0.5651580883 0.9808374364
H -6.734738198 -2.294863165 -0.6156823984
H -6.3948586781 -0.9458195294 -1.7429201161
H -4.9847987538 -3.5791397275 -1.59771212
H -4.582522581 -2.2365222928 -2.7111707068
H -2.7491428075 -2.852668982 -0.6612673226
H -3.8404311706 3.6504382858 1.7996308697
H -3.1582896877 4.5122463107 0.361659327
H 0.0114672423 2.302816356 -0.7283627569
H 1.1962463168 2.7983826676 -2.0368997339
H 1.3434098109 3.4844230893 -0.3682045217
H 0.3784091282 -0.8735707081 2.8533851502
H 1.2947297325 -2.1517849164 1.9731969594
H -0.7872738917 -2.9521892466 1.2350398542
H -1.6494447634 -1.4645595192 1.7623974621
$end

$rem
JOBTYPE                   OPT
METHOD                    B3LYP
DFT_D                     d3_op
BASIS                     STO-3G
GEOM_OPT_MAX_CYCLES       100
GEOM_OPT_TOL_GRADIENT     300
GEOM_OPT_TOL_DISPLACEMENT 1200
GEOM_OPT_TOL_ENERGY       100
SYMMETRY                  False
THRESH                    12
SCF_CONVERGENCE           8
MAX_SUB_FILE_NUM          128
MEM_STATIC                400
MEM_TOTAL                 4000
$end
--------------------------------------------------------------

   16   -1510.2401199359      3.29E-09 Convergence criterion met
 Total energy in the final basis set = -1510.24011994
   15   -1510.2427459293      2.79E-09 Convergence criterion met
 Total energy in the final basis set = -1510.24274593
   14   -1510.2466570420      3.82E-09 Convergence criterion met
 Total energy in the final basis set = -1510.24665704
   14   -1510.2518822288      5.39E-09 Convergence criterion met
 Total energy in the final basis set = -1510.25188223
   13   -1510.2572675415      9.22E-09 Convergence criterion met
 Total energy in the final basis set = -1510.25726754
   14   -1510.2627060940      6.39E-09 Convergence criterion met
 Total energy in the final basis set = -1510.26270609
   14   -1510.2676353599      6.95E-09 Convergence criterion met
 Total energy in the final basis set = -1510.26763536
   14   -1510.2724880788      1.71E-09 Convergence criterion met
   11   -1510.2991588147      6.41E-09 Convergence criterion met
 Total energy in the final basis set = -1510.29915881
    9   -1510.2991606397      5.61E-09 Convergence criterion met
 Total energy in the final basis set = -1510.29916064
   11   -1510.2991636044      2.72E-09 Convergence criterion met
 Total energy in the final basis set = -1510.29916360
   10   -1510.2991674305      8.96E-09 Convergence criterion met
 Total energy in the final basis set = -1510.29916743
    9   -1510.2991689250      7.09E-09 Convergence criterion met
 Total energy in the final basis set = -1510.29916893
    9   -1510.2991740299      8.06E-09 Convergence criterion met
 Total energy in the final basis set = -1510.29917403

             Standard Nuclear Orientation (Angstroms)
    I     Atom           X                Y                Z
 ----------------------------------------------------------------
    1      O      -4.5154735762     2.0756211037     0.7749591367
    2      C      -3.4453128572     1.7474083194     0.2243089833
    3      C      -3.2117261695     0.6061635010    -0.8332887459
    4      C      -2.3981114167    -0.6343023925    -0.2851081199
    5      C      -2.0851353346    -0.5072566062     1.2367035586
    6      O      -1.2614545306    -1.6075929968     1.6307277569
    7      C      -0.7461875691    -1.3913676212     3.0042035543
    8      C       0.4883911883    -0.4277298073     2.9496924359
    9      O       1.3946721951    -1.0199921660     1.9385490711
   10      C       2.5456687924    -0.1966777887     1.7209035750
   11      C       3.4211698255    -0.9448848047     0.6555542570
   12      C       2.6728870996    -1.2487588208    -0.7085134040
   13      C       1.2921447195    -0.5305131375    -0.8882750366
   14      O       0.2737257469    -1.0128438671    -1.4428385100
   15      O      -2.2149095427     2.4928158400     0.3479686497
   16      O       1.4159637611     0.8123609128    -0.4348197602
   17      O       2.7897033656     0.8648750785     2.3298267132
   18      C       0.2978269050     1.6631933459    -0.9120492067
   19      C       4.6622715359    -0.0959439450     0.1539329786
   20      C       5.7244261605    -1.1010073867    -0.4379709659
   21      C       5.0097604015    -1.5367685144    -1.7708731155
   22      C       3.7163882192    -0.6277125575    -1.7406482998
   23      O       4.1577649918     0.6043498625    -1.0509824451
   24      H       3.7551285191    -1.8933752085     1.1155293887
   25      H       2.5201220613    -2.3306434496    -0.8667011178
   26      H       5.0410575921     0.6335672541     0.8961871970
   27      H       6.6735943956    -0.5802145735    -0.6422057886
   28      H       5.9232224136    -1.9484096571     0.2374575738
   29      H       5.6237344874    -1.3069855212    -2.6561718387
   30      H       4.7573800155    -2.6091526418    -1.7853914049
   31      H       3.2888291257    -0.3866540644    -2.7334282259
   32      O      -2.4585658755     0.3960878347     2.0214864920
   33      C      -2.3454702686     3.5213245125     1.4003107761
   34      C      -4.5681766423    -0.0886184883    -1.2700028296
   35      C      -4.3072051820    -0.8476873731    -2.6293359881
   36      C      -3.4519515867    -2.0719852769    -2.1309746942
   37      C      -3.4238842207    -1.8120149317    -0.5725157466
   38      O      -4.7368294006    -1.1880234882    -0.2905444194
   39      H      -2.6947929064     1.0528791492    -1.7014002050
   40      H      -1.4293866259    -0.7808348377    -0.8210237232
   41      H      -2.4874229625     3.0530347961     2.3959928689
   42      H      -5.4493394673     0.5815906067    -1.2512664655
   43      H      -5.2590023533    -1.1762059226    -3.0763852538
   44      H      -3.7702238523    -0.2215941337    -3.3598006685
   45      H      -3.9464217261    -3.0304869680    -2.3553165079
   46      H      -2.4367521510    -2.0858981287    -2.5590878051
   47      H      -3.2730320317    -2.7126232550     0.0540496035
   48      H      -3.1995140414     4.2002268506     1.2022218470
   49      H      -1.4010079315     4.0960470531     1.3910312014
   50      H       0.7349137194     2.6631241434    -1.0929846107
   51      H      -0.5340150429     1.7647146317    -0.1744933872
   52      H      -0.1171763833     1.2633753278    -1.8576296921
   53      H       0.1687127059     0.5934831588     2.6474402202
   54      H       0.9782356654    -0.3605195932     3.9461682923
   55      H      -0.4384621175    -2.3897331160     3.3735210733
   56      H      -1.5300695709    -0.9644793122     3.6661368882
 ----------------------------------------------------------------

    9   -1510.2991743962      4.69E-09 Convergence criterion met
 Total energy in the final basis set = -1510.29917440
 Final energy is   -1510.29917439620
 **  OPTIMIZATION CONVERGED  **

                    Orbital Energies (a.u.)
 --------------------------------------------------------------

 Alpha MOs
 -- Occupied --
-18.941 -18.939 -18.932 -18.924 -18.891 -18.883 -18.881 -18.879
-18.878 -18.865 -10.108 -10.103 -10.101 -10.092 -10.079 -10.077
-10.064 -10.060 -10.057 -10.052 -10.051 -10.049 -10.042 -10.040
-10.028 -10.024 -10.022 -10.020 -10.013 -10.012  -1.022  -1.016
 -1.009  -0.999  -0.973  -0.963  -0.945  -0.941  -0.935  -0.927
 -0.767  -0.756  -0.730  -0.721  -0.712  -0.705  -0.693  -0.658
 -0.655  -0.619  -0.599  -0.578  -0.549  -0.541  -0.539  -0.530
 -0.518  -0.504  -0.489  -0.475  -0.466  -0.453  -0.450  -0.444
 -0.439  -0.434  -0.425  -0.414  -0.412  -0.409  -0.405  -0.400
 -0.390  -0.380  -0.372  -0.366  -0.362  -0.358  -0.352  -0.350
 -0.348  -0.339  -0.335  -0.332  -0.328  -0.326  -0.319  -0.312
 -0.308  -0.306  -0.300  -0.298  -0.296  -0.291  -0.280  -0.274
 -0.268  -0.260  -0.252  -0.247  -0.241  -0.237  -0.227  -0.183
 -0.181  -0.178  -0.167  -0.163  -0.158  -0.153  -0.146  -0.142
 -0.137

          Ground-State Mulliken Net Atomic Charges

     Atom                 Charge (a.u.)
  ----------------------------------------
      1 O                    -0.212920
      2 C                     0.219212
      3 C                    -0.083295
      4 C                    -0.095519
      5 C                     0.210989
      6 O                    -0.166973
      7 C                    -0.047537
      8 C                    -0.048917
      9 O                    -0.177539
     10 C                     0.216492
     11 C                    -0.077998
     12 C                    -0.076111
     13 C                     0.219845
     14 O                    -0.219811
     15 O                    -0.181289
     16 O                    -0.165591
     17 O                    -0.210122
     18 C                    -0.144605
     19 C                     0.024709
     20 C                    -0.143121
     21 C                    -0.144317
     22 C                     0.025401
     23 O                    -0.185794
     24 H                     0.084490
     25 H                     0.087041
     26 H                     0.090728
     27 H                     0.078614
     28 H                     0.073399
     29 H                     0.078653
     30 H                     0.074246
     31 H                     0.081724
     32 O                    -0.214962
     33 C                    -0.128142
     34 C                     0.024381
     35 C                    -0.143609
     36 C                    -0.144113
     37 C                     0.024896
     38 O                    -0.191599
     39 H                     0.081064
     40 H                     0.113529
     41 H                     0.092864
     42 H                     0.086983
     43 H                     0.076280
     44 H                     0.071963
     45 H                     0.075692
     46 H                     0.078947
     47 H                     0.083438
     48 H                     0.089381
     49 H                     0.087101
     50 H                     0.087830
     51 H                     0.108842
     52 H                     0.083706
     53 H                     0.092767
     54 H                     0.087858
     55 H                     0.092908
     56 H                     0.097917
  ----------------------------------------
  Sum of atomic charges =     0.000000

                    Cartesian Multipole Moments
 -----------------------------------------------------------------
    Charge (ESU x 10^10)
                 0.0000
    Dipole Moment (Debye)
         X       2.9244      Y      -1.5619      Z      -0.8365
       Tot       3.4193
    Quadrupole Moments (Debye-Ang)
        XX    -171.2340     XY      -8.3474     YY    -156.3795
        XZ       4.9469     YZ      -3.3758     ZZ    -151.4491

 Total job time:  199.09s(wall), 9500.98s(cpu)
        *  Thank you very much for using Q-Chem.  Have a nice day.  *
