 Q-Chem 5.0, Q-Chem, Inc., Pleasanton, CA (2017)
 Q-Chem 5.0.1 for Intel X86 EM64T Linux

User input:
--------------------------------------------------------------
$molecule
0  1
O -3.94934 -3.66094 2.70899
C -3.26408 -4.56952 2.26188
C -3.36658 -6.02376 2.66595
C -2.66599 -6.44199 3.96906
C -2.09194 -5.32648 4.81417
O -2.23077 -5.62931 6.13872
C -3.21616 -4.82812 6.79928
C -2.54295 -3.70133 7.57597
O -1.18816 -3.53918 7.12748
C -0.44517 -2.64627 7.82734
C 0.48536 -3.30383 8.8185
C 1.58152 -4.17983 8.19453
C 1.81184 -3.99153 6.70853
O 2.84248 -4.26532 6.11071
O -2.43733 -4.30298 1.21626
O 0.913 -3.36906 5.90119
O -0.59441 -1.43854 7.71148
C 1.08533 -3.07989 4.55932
C 1.33108 -2.30701 9.63583
C 1.78854 -2.96486 10.93651
C 2.80602 -3.95281 10.40828
C 2.805 -3.57825 8.9218
O 2.53065 -2.19872 8.91495
H -0.15659 -3.88428 9.51848
H 1.47913 -5.26922 8.39082
H 0.80431 -1.35399 9.85986
H 2.32293 -2.18579 11.52644
H 0.97927 -3.40392 11.55877
H 3.79135 -3.72101 10.87053
H 2.55462 -5.0246 10.562
H 3.77001 -3.88047 8.45836
O -1.85559 -4.18922 4.43565
C -2.24332 -3.04774 0.67889
C -4.81735 -6.4581 2.92224
C -4.95219 -7.9641 2.72021
C -4.21059 -8.47285 3.935
C -3.88258 -7.14929 4.63946
O -4.96708 -6.31644 4.31131
H -2.94655 -6.60865 1.81541
H -1.84152 -7.1723 3.81486
H -1.83294 -2.36159 1.45058
H -5.55578 -5.91741 2.2901
H -6.03121 -8.21748 2.82896
H -4.58139 -8.34343 1.74368
H -4.91995 -9.07238 4.54852
H -3.29794 -9.07021 3.72172
H -3.74651 -7.36773 5.71887
H -3.20253 -2.64499 0.28898
H -1.51889 -3.11835 -0.15817
H 0.18909 -2.54733 4.18187
H 1.21894 -4.01791 3.97931
H 1.96787 -2.41968 4.42022
H -3.13622 -2.76008 7.55993
H -2.4849 -4.05001 8.63146
H -3.90864 -5.433 7.42239
H -3.87339 -4.32371 6.04913
$end

$opt
CONSTRAINT
tors           1           2           3           4     -80.729
tors           3           4           5           6    +144.396
tors           4           5           6           7    -108.591
tors           5           6           7           8     -99.983
tors           6           7           8           9     +16.171
tors           7           8           9          10    -174.267
tors           8           9          10          11    +101.065
tors           9          10          11          12     +64.585
tors          11          12          13          14    +157.091
ENDCONSTRAINT
$end

$rem
JOBTYPE                   OPT
METHOD                    B3LYP
DFT_D                     d3_op
BASIS                     STO-3G
GEOM_OPT_MAX_CYCLES       100
GEOM_OPT_TOL_GRADIENT     300
GEOM_OPT_TOL_DISPLACEMENT 1200
GEOM_OPT_TOL_ENERGY       100
SYMMETRY                  False
THRESH                    12
SCF_CONVERGENCE           8
MAX_SUB_FILE_NUM          128
MEM_STATIC                400
MEM_TOTAL                 4000
$end
--------------------------------------------------------------

   15   -1510.0899573387      8.05E-09 Convergence criterion met
 Total energy in the final basis set = -1510.08995734
   14   -1510.1655999294      3.70E-09 Convergence criterion met
 Total energy in the final basis set = -1510.16559993
   14   -1510.2072928917      5.23E-09 Convergence criterion met
 Total energy in the final basis set = -1510.20729289
   14   -1510.2258617729      4.46E-09 Convergence criterion met
 Total energy in the final basis set = -1510.22586177
   14   -1510.2328616993      5.50E-09 Convergence criterion met
 Total energy in the final basis set = -1510.23286170
    2   -1510.2328616994      2.06E-09 Convergence criterion met
 Total energy in the final basis set = -1510.23286170
   13   -1510.2369442107      4.21E-09 Convergence criterion met
 Total energy in the final basis set = -1510.23694421
   13   -1510.2385769804      8.59E-09 Convergence criterion met
   11   -1510.2400471354      4.17E-09 Convergence criterion met
 Total energy in the final basis set = -1510.24004714
   11   -1510.2400882130      6.87E-09 Convergence criterion met
 Total energy in the final basis set = -1510.24008821
   11   -1510.2401212733      8.03E-09 Convergence criterion met
 Total energy in the final basis set = -1510.24012127
   11   -1510.2401387736      5.26E-09 Convergence criterion met
 Total energy in the final basis set = -1510.24013877
   10   -1510.2401437432      8.02E-09 Convergence criterion met
 Total energy in the final basis set = -1510.24014374
    9   -1510.2401470755      7.48E-09 Convergence criterion met
 Total energy in the final basis set = -1510.24014708

             Standard Nuclear Orientation (Angstroms)
    I     Atom           X                Y                Z
 ----------------------------------------------------------------
    1      O      -3.5778267793     1.0610983183     1.7876876296
    2      C      -3.8053079428     1.2718522715     0.5765711344
    3      C      -4.2664093192     0.2260923429    -0.5012212558
    4      C      -3.0791879601    -0.6548561593    -1.0836591769
    5      C      -1.6932934419    -0.3121531953    -0.4033022815
    6      O      -0.8458640613    -1.4761263372    -0.2377978141
    7      C      -0.7698629747    -1.8425102751     1.1998875728
    8      C       0.5780551247    -1.3081463593     1.8470870606
    9      O       1.0885052739    -0.3041764129     0.8955697954
   10      C       2.4103110892     0.1621937720     1.3277970121
   11      C       3.5627803068    -0.5321436059     0.5007339299
   12      C       3.6223195400    -0.2178039162    -1.0517683598
   13      C       2.8568692349     1.0738998631    -1.5310138925
   14      O       3.0838425482     1.7235056485    -2.5755398234
   15      O      -3.7297406135     2.5564967976    -0.0520982393
   16      O       1.8996352540     1.4435250116    -0.5496989567
   17      O       2.5808758294     0.9477441499     2.2811597161
   18      C       1.0591650567     2.5895354360    -0.9571676050
   19      C       5.0295893673    -0.1322361433     0.9557076426
   20      C       5.9788053154    -1.3425712041     0.6055350934
   21      C       6.0047609590    -1.2474316827    -0.9662281407
   22      C       5.1743717411     0.0737590630    -1.2138455243
   23      O       5.4491130556     0.9048454088    -0.0163922411
   24      H       3.4082584399    -1.6196983638     0.6320677137
   25      H       3.2825613865    -1.0779599446    -1.6575005319
   26      H       5.0923711968     0.2566625934     1.9908357383
   27      H       6.9811422377    -1.1813139004     1.0336941236
   28      H       5.5875844797    -2.3056311686     0.9707190243
   29      H       7.0313264889    -1.1366719938    -1.3495741501
   30      H       5.5403077173    -2.1209192417    -1.4517999097
   31      H       5.4225334259     0.6287272544    -2.1398617699
   32      O      -1.3627490582     0.8400362054    -0.0475647052
   33      C      -3.1922658689     3.5501853507     0.9050862225
   34      C      -5.1776277984    -0.9082471451     0.1387714275
   35      C      -5.9420420080    -1.6495424762    -1.0264840107
   36      C      -4.7780591126    -2.4989011628    -1.6591848138
   37      C      -3.5705665771    -2.1131901153    -0.7188388213
   38      O      -4.2012781707    -1.9196657249     0.6085547730
   39      H      -4.7856158268     0.7707912047    -1.3091482397
   40      H      -2.9779472811    -0.5171499002    -2.1767500821
   41      H      -2.1706793896     3.2729833740     1.2368517999
   42      H      -5.8092874630    -0.5651580883     0.9808374364
   43      H      -6.7347381980    -2.2948631650    -0.6156823984
   44      H      -6.3948586781    -0.9458195294    -1.7429201161
   45      H      -4.9847987538    -3.5791397275    -1.5977121200
   46      H      -4.5825225810    -2.2365222928    -2.7111707068
   47      H      -2.7491428075    -2.8526689820    -0.6612673226
   48      H      -3.8404311706     3.6504382858     1.7996308697
   49      H      -3.1582896877     4.5122463107     0.3616593270
   50      H       0.0114672423     2.3028163560    -0.7283627569
   51      H       1.1962463168     2.7983826676    -2.0368997339
   52      H       1.3434098109     3.4844230893    -0.3682045217
   53      H       0.3784091282    -0.8735707081     2.8533851502
   54      H       1.2947297325    -2.1517849164     1.9731969594
   55      H      -0.7872738917    -2.9521892466     1.2350398542
   56      H      -1.6494447634    -1.4645595192     1.7623974621
 ----------------------------------------------------------------

    8   -1510.2401471331      8.89E-09 Convergence criterion met
 Total energy in the final basis set = -1510.24014713
 Final energy is   -1510.24014713313
 **  OPTIMIZATION CONVERGED  **

                    Orbital Energies (a.u.)
 --------------------------------------------------------------

 Alpha MOs
 -- Occupied --
-18.938 -18.928 -18.909 -18.908 -18.890 -18.886 -18.883 -18.882
-18.870 -18.866 -10.114 -10.099 -10.098 -10.095 -10.071 -10.062
-10.061 -10.061 -10.058 -10.055 -10.053 -10.052 -10.041 -10.037
-10.036 -10.030 -10.024 -10.022 -10.018 -10.017  -1.015  -1.011
 -1.002  -0.990  -0.973  -0.966  -0.943  -0.934  -0.930  -0.919
 -0.765  -0.758  -0.725  -0.720  -0.710  -0.700  -0.693  -0.658
 -0.655  -0.605  -0.597  -0.578  -0.548  -0.541  -0.539  -0.534
 -0.514  -0.504  -0.481  -0.476  -0.460  -0.456  -0.452  -0.443
 -0.436  -0.428  -0.425  -0.412  -0.411  -0.405  -0.403  -0.397
 -0.392  -0.384  -0.372  -0.368  -0.363  -0.353  -0.350  -0.343
 -0.340  -0.338  -0.333  -0.332  -0.330  -0.326  -0.315  -0.311
 -0.311  -0.308  -0.305  -0.302  -0.294  -0.292  -0.280  -0.276
 -0.267  -0.251  -0.244  -0.238  -0.237  -0.230  -0.225  -0.172
 -0.170  -0.165  -0.162  -0.156  -0.148  -0.146  -0.145  -0.142
 -0.137

          Ground-State Mulliken Net Atomic Charges

     Atom                 Charge (a.u.)
  ----------------------------------------
      1 O                    -0.218957
      2 C                     0.209880
      3 C                    -0.082182
      4 C                    -0.080399
      5 C                     0.231199
      6 O                    -0.189964
      7 C                    -0.045767
      8 C                    -0.050120
      9 O                    -0.186359
     10 C                     0.232117
     11 C                    -0.082711
     12 C                    -0.075528
     13 C                     0.216350
     14 O                    -0.217282
     15 O                    -0.170238
     16 O                    -0.161128
     17 O                    -0.193780
     18 C                    -0.133063
     19 C                     0.021780
     20 C                    -0.142670
     21 C                    -0.145300
     22 C                     0.023677
     23 O                    -0.191681
     24 H                     0.076895
     25 H                     0.085824
     26 H                     0.088521
     27 H                     0.077511
     28 H                     0.071273
     29 H                     0.077941
     30 H                     0.072491
     31 H                     0.088407
     32 O                    -0.178817
     33 C                    -0.128642
     34 C                     0.025046
     35 C                    -0.143749
     36 C                    -0.144165
     37 C                     0.021000
     38 O                    -0.192865
     39 H                     0.085831
     40 H                     0.086758
     41 H                     0.094050
     42 H                     0.085741
     43 H                     0.078383
     44 H                     0.074339
     45 H                     0.078213
     46 H                     0.073941
     47 H                     0.089086
     48 H                     0.087565
     49 H                     0.088310
     50 H                     0.106273
     51 H                     0.096487
     52 H                     0.087334
     53 H                     0.078785
     54 H                     0.066047
     55 H                     0.083915
     56 H                     0.094396
  ----------------------------------------
  Sum of atomic charges =    -0.000000

                    Cartesian Multipole Moments
 -----------------------------------------------------------------
    Charge (ESU x 10^10)
                -0.0000
    Dipole Moment (Debye)
         X      -1.9804      Y      -2.8688      Z      -1.3651
       Tot       3.7437
    Quadrupole Moments (Debye-Ang)
        XX    -152.5258     XY     -12.3526     YY    -153.4358
        XZ       7.6073     YZ       0.5854     ZZ    -163.8807

 Total job time:  75.99s(wall), 3620.99s(cpu)
        *  Thank you very much for using Q-Chem.  Have a nice day.  *
