 Q-Chem 5.0, Q-Chem, Inc., Pleasanton, CA (2017)
 Q-Chem 5.0.1 for Intel X86 EM64T Linux

User input:
--------------------------------------------------------------
$molecule
0  1
O -3.7461264437 2.1316505265 1.2759667093
C -3.5330801214 1.6561383382 0.1420479086
C -4.4074959137 0.6217260914 -0.6546156957
C -3.736386069 -0.822550938 -0.6334555788
C -2.2949544728 -0.7949002294 -0.0212475666
O -1.3373541037 -0.9920131152 -1.0758708294
C -0.0581074396 -1.4548980896 -0.4862392091
C 1.098772119 -1.1658615658 -1.4985837336
O 2.2507555682 -1.978468115 -1.0442283525
C 3.4857420621 -1.4232918835 -1.5563419422
C 4.0268481099 -0.0537512543 -0.9584235895
C 3.3184978209 0.7440812184 0.2108627484
C 2.4980558354 -0.049831816 1.2971686717
O 2.2109921521 -1.2607350704 1.3831070757
O -2.3322368746 1.8803549167 -0.613305736
O 1.9804700308 0.9439885165 2.1967639251
O 4.1982541892 -2.108981387 -2.3211600877
C 1.0531116164 0.3170240441 3.1688286566
C 5.5320706179 -0.137471712 -0.4274759219
C 6.2415539949 1.2025598346 -0.8570831955
C 5.4680497438 2.2326251602 0.0482497152
C 4.6211547812 1.2663366343 0.9711496673
O 5.4226566964 0.0196739204 1.039639636
H 4.0285668205 0.6256301756 -1.8331437226
H 2.6890735181 1.5680474843 -0.1700726533
H 6.0607251946 -1.0735391131 -0.6928455094
H 7.3119635342 1.1657502429 -0.5975986619
H 6.1432544481 1.4120233485 -1.9341835605
H 6.1553356891 2.8456261832 0.6520730672
H 4.8198519552 2.9053446864 -0.5364680023
H 4.4100694106 1.651453568 1.987641015
O -1.9893627545 -0.6541946143 1.1844801561
C -1.3612494477 2.650643131 0.1974184567
C -5.7518376475 0.3319334196 0.1284748796
C -6.7017443363 -0.5444185452 -0.7804062609
C -6.024216253 -1.9607734502 -0.6583530704
C -4.7822681918 -1.6227264053 0.2567854322
O -5.3124214773 -0.6048418951 1.1899483551
H -4.5682165103 0.9801099273 -1.6871031999
H -3.6649852776 -1.2391160491 -1.6533252617
H -1.0742432897 2.0920876499 1.1125003815
H -6.2150016771 1.2307098777 0.5795780482
H -7.7264969592 -0.5486440351 -0.3764745403
H -6.7335830047 -0.1776622038 -1.8190240243
H -6.6856427971 -2.6824731353 -0.1530825832
H -5.725515046 -2.3774585673 -1.6333092001
H -4.3549463212 -2.4768140402 0.8171255684
H -1.7642682659 3.6391685404 0.4975639227
H -0.4714565282 2.7925745681 -0.4431222569
H 0.7850874951 1.1101572683 3.890709178
H 1.5281112724 -0.5301263935 3.7032741457
H 0.1309593515 -0.0515040427 2.6690834896
H 0.7878454424 -1.4746861081 -2.523250684
H 1.3243597071 -0.0779503609 -1.5200836437
H -0.1058861438 -2.5516692423 -0.3060389604
H 0.1284471795 -0.9598562153 0.4868427109
$end

$rem
JOBTYPE                   OPT
METHOD                    B3LYP
DFT_D                     d3_op
BASIS                     STO-3G
GEOM_OPT_MAX_CYCLES       100
GEOM_OPT_TOL_GRADIENT     300
GEOM_OPT_TOL_DISPLACEMENT 1200
GEOM_OPT_TOL_ENERGY       100
SYMMETRY                  False
THRESH                    12
SCF_CONVERGENCE           8
MAX_SUB_FILE_NUM          128
MEM_STATIC                400
MEM_TOTAL                 4000
$end
--------------------------------------------------------------

   16   -1510.2492379772      6.28E-09 Convergence criterion met
 Total energy in the final basis set = -1510.24923798
   15   -1510.2546573581      2.94E-09 Convergence criterion met
 Total energy in the final basis set = -1510.25465736
   14   -1510.2588285742      9.73E-09 Convergence criterion met
 Total energy in the final basis set = -1510.25882857
   14   -1510.2610384384      7.45E-09 Convergence criterion met
 Total energy in the final basis set = -1510.26103844
   14   -1510.2647279822      5.31E-09 Convergence criterion met
 Total energy in the final basis set = -1510.26472798
   14   -1510.2581706048      9.44E-09 Convergence criterion met
 Total energy in the final basis set = -1510.25817060
   14   -1510.2685298695      6.02E-09 Convergence criterion met
 Total energy in the final basis set = -1510.26852987
   14   -1510.2697342537      6.95E-09 Convergence criterion met
   12   -1510.2943775154      3.01E-09 Convergence criterion met
 Total energy in the final basis set = -1510.29437752
   11   -1510.2943868946      3.06E-09 Convergence criterion met
 Total energy in the final basis set = -1510.29438689
   11   -1510.2944006066      6.71E-09 Convergence criterion met
 Total energy in the final basis set = -1510.29440061
   11   -1510.2944076247      4.18E-09 Convergence criterion met
 Total energy in the final basis set = -1510.29440762
   10   -1510.2944087967      6.89E-09 Convergence criterion met
 Total energy in the final basis set = -1510.29440880
    9   -1510.2944093755      6.46E-09 Convergence criterion met
 Total energy in the final basis set = -1510.29440938

             Standard Nuclear Orientation (Angstroms)
    I     Atom           X                Y                Z
 ----------------------------------------------------------------
    1      O       2.2218568933    -2.2841883707     0.5851348684
    2      C       2.2646302756    -1.6458571657    -0.4933294759
    3      C       3.3502324860    -0.5805989011    -0.9031299364
    4      C       2.9558009007     0.9184320818    -0.5744773037
    5      C       1.5415561085     1.0331268477     0.0866456991
    6      O       1.3594135176     2.3489524626     0.5961175941
    7      C       0.0382485369     2.4764862692     1.2654977807
    8      C      -1.1276205832     2.7087488223     0.2299823678
    9      O      -2.3844683668     2.8840673256     0.9840807337
   10      C      -3.3026550923     1.7673334098     0.9616082735
   11      C      -3.3476548940     0.8483341550    -0.3360857531
   12      C      -2.4629591385    -0.4607354167    -0.2972665503
   13      C      -1.7100091704    -0.6474807287     1.0618995600
   14      O      -1.6420107666     0.1790958643     2.0021219436
   15      O       1.4277727498    -1.8882645202    -1.6237563626
   16      O      -1.1242446257    -1.9458807315     1.0764510912
   17      O      -4.1728361560     1.7353415155     1.8572537653
   18      C      -0.2088500108    -2.1249478808     2.2333595612
   19      C      -4.7986153468     0.2144073647    -0.4906825974
   20      C      -4.9706941493    -0.2565736095    -1.9876094045
   21      C      -4.0540337535    -1.5363334664    -2.0077615759
   22      C      -3.5647975954    -1.5854340259    -0.5071080720
   23      O      -4.7148183265    -1.0593508050     0.2606276362
   24      H      -3.1037203795     1.4618920329    -1.2206757647
   25      H      -1.7077963155    -0.4747323114    -1.1052424775
   26      H      -5.6130795277     0.8450615835    -0.0853514277
   27      H      -6.0228824816    -0.5120187607    -2.1904024361
   28      H      -4.6479266399     0.5119637553    -2.7082009868
   29      H      -4.6280738245    -2.4432390062    -2.2556861052
   30      H      -3.2124143773    -1.4476026263    -2.7134394317
   31      H      -3.2620349537    -2.5833717394    -0.1349764144
   32      O       0.6886200615     0.1179960671     0.1708304986
   33      C       0.3696366360    -2.8711375922    -1.2820566487
   34      C       4.6560485848    -0.7413560289    -0.0162095296
   35      C       5.8374883852     0.0402014255    -0.7133234075
   36      C       5.4445877493     1.5308995324    -0.3953791055
   37      C       4.1159354615     1.3261611852     0.4324033549
   38      O       4.3583379944     0.0752115198     1.1843057282
   39      H       3.5598009685    -0.7024665692    -1.9804497423
   40      H       2.9696190236     1.5530057460    -1.4796543665
   41      H      -0.2635346625    -2.5114339367    -0.4329239327
   42      H       4.8787655120    -1.7854267588     0.2766445062
   43      H       6.8015084135    -0.2293100057    -0.2536758086
   44      H       5.8909873703    -0.1652779110    -1.7943710015
   45      H       6.2087043135     2.0268808862     0.2240161273
   46      H       5.2813162806     2.1329180628    -1.3036185576
   47      H       3.8469042050     2.1534144746     1.1176867215
   48      H       0.8094484242    -3.8536847135    -1.0163644513
   49      H      -0.2411108156    -2.9822052844    -2.1965315652
   50      H      -0.5207280567    -3.0334498507     2.7826865589
   51      H      -0.2696619098    -1.2385555129     2.8931987486
   52      H       0.8178733361    -2.2506830559     1.8129976150
   53      H      -0.9470404250     3.6441833175    -0.3415254877
   54      H      -1.1538344283     1.8609800758    -0.4811964898
   55      H       0.1259177749     3.3529386401     1.9370242636
   56      H      -0.2140844749     1.5673568421     1.8570809004
 ----------------------------------------------------------------

    9   -1510.2944091750      2.19E-09 Convergence criterion met
 Total energy in the final basis set = -1510.29440918
 Final energy is   -1510.29440917500
 **  OPTIMIZATION CONVERGED  **

                    Orbital Energies (a.u.)
 --------------------------------------------------------------

 Alpha MOs
 -- Occupied --
-18.952 -18.948 -18.926 -18.920 -18.894 -18.891 -18.889 -18.889
-18.866 -18.865 -10.117 -10.114 -10.099 -10.094 -10.075 -10.069
-10.065 -10.063 -10.062 -10.059 -10.047 -10.045 -10.044 -10.041
-10.038 -10.036 -10.025 -10.023 -10.023 -10.021  -1.030  -1.020
 -1.003  -0.996  -0.974  -0.972  -0.953  -0.946  -0.929  -0.929
 -0.768  -0.766  -0.729  -0.725  -0.716  -0.707  -0.700  -0.657
 -0.654  -0.617  -0.598  -0.587  -0.551  -0.549  -0.541  -0.540
 -0.518  -0.510  -0.488  -0.483  -0.467  -0.460  -0.459  -0.457
 -0.438  -0.435  -0.428  -0.426  -0.416  -0.407  -0.399  -0.396
 -0.393  -0.391  -0.381  -0.375  -0.368  -0.360  -0.355  -0.351
 -0.345  -0.338  -0.336  -0.331  -0.330  -0.327  -0.322  -0.316
 -0.315  -0.309  -0.307  -0.304  -0.299  -0.288  -0.281  -0.279
 -0.276  -0.263  -0.259  -0.244  -0.239  -0.235  -0.234  -0.198
 -0.182  -0.172  -0.167  -0.164  -0.158  -0.149  -0.148  -0.146
 -0.141

          Ground-State Mulliken Net Atomic Charges

     Atom                 Charge (a.u.)
  ----------------------------------------
      1 O                    -0.226943
      2 C                     0.220196
      3 C                    -0.081767
      4 C                    -0.078306
      5 C                     0.216391
      6 O                    -0.169118
      7 C                    -0.056807
      8 C                    -0.050147
      9 O                    -0.175290
     10 C                     0.216254
     11 C                    -0.087617
     12 C                    -0.081073
     13 C                     0.233240
     14 O                    -0.211343
     15 O                    -0.174577
     16 O                    -0.168342
     17 O                    -0.200674
     18 C                    -0.145456
     19 C                     0.026584
     20 C                    -0.144216
     21 C                    -0.144308
     22 C                     0.024713
     23 O                    -0.186984
     24 H                     0.076999
     25 H                     0.088773
     26 H                     0.091069
     27 H                     0.079153
     28 H                     0.072259
     29 H                     0.078854
     30 H                     0.072525
     31 H                     0.088929
     32 O                    -0.217645
     33 C                    -0.147925
     34 C                     0.025517
     35 C                    -0.144248
     36 C                    -0.143714
     37 C                     0.024675
     38 O                    -0.188401
     39 H                     0.084575
     40 H                     0.086732
     41 H                     0.111036
     42 H                     0.087898
     43 H                     0.078954
     44 H                     0.073695
     45 H                     0.079285
     46 H                     0.073445
     47 H                     0.089215
     48 H                     0.079212
     49 H                     0.077432
     50 H                     0.084421
     51 H                     0.096663
     52 H                     0.117384
     53 H                     0.083735
     54 H                     0.082263
     55 H                     0.093622
     56 H                     0.109201
  ----------------------------------------
  Sum of atomic charges =    -0.000000

                    Cartesian Multipole Moments
 -----------------------------------------------------------------
    Charge (ESU x 10^10)
                 0.0000
    Dipole Moment (Debye)
         X       2.7630      Y       0.2110      Z      -4.8846
       Tot       5.6159
    Quadrupole Moments (Debye-Ang)
        XX    -164.1427     XY       7.5556     YY    -158.9144
        XZ       8.3412     YZ      -3.9363     ZZ    -163.5985

 Total job time:  175.52s(wall), 8371.29s(cpu)
        *  Thank you very much for using Q-Chem.  Have a nice day.  *
