 Q-Chem 5.0, Q-Chem, Inc., Pleasanton, CA (2017)
 Q-Chem 5.0.1 for Intel X86 EM64T Linux

User input:
--------------------------------------------------------------
$molecule
0  1
O -3.94934 -3.66094 2.70899
C -3.26408 -4.56952 2.26188
C -3.36658 -6.02376 2.66595
C -2.26763 -6.57575 3.5887
C -1.28753 -5.56833 4.1478
O -0.0704 -5.72267 3.54765
C 1.00652 -5.16186 4.30593
C 2.20651 -4.90137 3.40133
O 3.38403 -4.6954 4.19752
C 4.38593 -4.01184 3.59082
C 4.07273 -2.54553 3.41053
C 2.71797 -2.09834 3.97879
C 2.05091 -3.06592 4.93562
O 2.45893 -4.18493 5.21113
O -2.25308 -4.26881 1.40571
O 1.06856 -2.49916 5.69945
O 5.4714 -4.51464 3.34783
C 0.78799 -2.83045 7.01367
C 5.036 -1.62517 4.18392
C 5.05881 -0.24739 3.52691
C 3.67827 0.25759 3.88936
C 3.20111 -0.88032 4.8012
O 4.37939 -1.36327 5.3973
H 4.16531 -2.33598 2.3212
H 1.97531 -1.81425 3.20114
H 6.0686 -2.02971 4.26413
H 5.81536 0.35804 4.07627
H 5.29872 -0.23362 2.44195
H 3.79217 1.20658 4.45904
H 2.98512 0.40558 3.03303
H 2.43215 -0.49201 5.50332
O -1.64577 -4.59853 4.81105
C -1.95081 -2.99369 0.97678
C -4.60127 -6.29195 3.56023
C -4.98796 -7.77002 3.49539
C -3.87095 -8.38978 4.30724
C -3.11532 -7.13123 4.74333
O -4.12373 -6.16058 4.87663
H -3.48857 -6.60669 1.7256
H -1.6911 -7.38129 3.07809
H -1.68376 -2.35228 1.8439
H -5.48068 -5.66537 3.29389
H -5.94085 -7.88968 4.05931
H -5.11529 -8.17831 2.46977
H -4.31739 -8.89407 5.19314
H -3.21906 -9.10077 3.75497
H -2.50833 -7.33683 5.65297
H -2.81734 -2.55577 0.43673
H -1.08379 -3.03843 0.2863
H -0.05433 -2.20338 7.37055
H 1.6758 -2.62079 7.64713
H 0.50625 -3.8942 7.13807
H 2.37939 -5.81319 2.78684
H 1.99241 -4.11284 2.64196
H 1.34503 -6.07351 4.87357
H 0.48765 -4.6694 5.16355
$end

$opt
CONSTRAINT
tors           1           2           3           4    -104.649
tors           3           4           5           6    -108.157
tors           4           5           6           7    -159.606
tors           5           6           7           8    -159.218
tors           6           7           8           9    -164.183
tors           7           8           9          10    -157.853
tors           8           9          10          11     +71.453
tors           9          10          11          12      +1.833
tors          11          12          13          14      -5.063
ENDCONSTRAINT
$end

$rem
JOBTYPE                   OPT
METHOD                    B3LYP
DFT_D                     d3_op
BASIS                     STO-3G
GEOM_OPT_MAX_CYCLES       100
GEOM_OPT_TOL_GRADIENT     300
GEOM_OPT_TOL_DISPLACEMENT 1200
GEOM_OPT_TOL_ENERGY       100
SYMMETRY                  False
THRESH                    12
SCF_CONVERGENCE           8
MAX_SUB_FILE_NUM          128
MEM_STATIC                400
MEM_TOTAL                 4000
$end
--------------------------------------------------------------

   21   -1509.7677922285      3.21E-09 Convergence criterion met
 Total energy in the final basis set = -1509.76779223
   16   -1509.9033665703      4.01E-09 Convergence criterion met
 Total energy in the final basis set = -1509.90336657
   16   -1510.0235588019      2.05E-09 Convergence criterion met
 Total energy in the final basis set = -1510.02355880
   15   -1510.1031326073      3.64E-09 Convergence criterion met
 Total energy in the final basis set = -1510.10313261
   14   -1510.1550294737      9.14E-09 Convergence criterion met
 Total energy in the final basis set = -1510.15502947
   14   -1510.1884446114      6.15E-09 Convergence criterion met
 Total energy in the final basis set = -1510.18844461
   14   -1510.2092538639      4.74E-09 Convergence criterion met
 Total energy in the final basis set = -1510.20925386
   14   -1510.2224231813      3.07E-09 Convergence criterion met
   11   -1510.2492060660      2.16E-09 Convergence criterion met
 Total energy in the final basis set = -1510.24920607
   10   -1510.2492162807      6.79E-09 Convergence criterion met
 Total energy in the final basis set = -1510.24921628
   11   -1510.2492255005      2.52E-09 Convergence criterion met
 Total energy in the final basis set = -1510.24922550
   11   -1510.2492406413      2.71E-09 Convergence criterion met
 Total energy in the final basis set = -1510.24924064
   11   -1510.2492466807      2.08E-09 Convergence criterion met
 Total energy in the final basis set = -1510.24924668
   10   -1510.2492513188      8.84E-09 Convergence criterion met
 Total energy in the final basis set = -1510.24925132

             Standard Nuclear Orientation (Angstroms)
    I     Atom           X                Y                Z
 ----------------------------------------------------------------
    1      O      -3.7461264437     2.1316505265     1.2759667093
    2      C      -3.5330801214     1.6561383382     0.1420479086
    3      C      -4.4074959137     0.6217260914    -0.6546156957
    4      C      -3.7363860690    -0.8225509380    -0.6334555788
    5      C      -2.2949544728    -0.7949002294    -0.0212475666
    6      O      -1.3373541037    -0.9920131152    -1.0758708294
    7      C      -0.0581074396    -1.4548980896    -0.4862392091
    8      C       1.0987721190    -1.1658615658    -1.4985837336
    9      O       2.2507555682    -1.9784681150    -1.0442283525
   10      C       3.4857420621    -1.4232918835    -1.5563419422
   11      C       4.0268481099    -0.0537512543    -0.9584235895
   12      C       3.3184978209     0.7440812184     0.2108627484
   13      C       2.4980558354    -0.0498318160     1.2971686717
   14      O       2.2109921521    -1.2607350704     1.3831070757
   15      O      -2.3322368746     1.8803549167    -0.6133057360
   16      O       1.9804700308     0.9439885165     2.1967639251
   17      O       4.1982541892    -2.1089813870    -2.3211600877
   18      C       1.0531116164     0.3170240441     3.1688286566
   19      C       5.5320706179    -0.1374717120    -0.4274759219
   20      C       6.2415539949     1.2025598346    -0.8570831955
   21      C       5.4680497438     2.2326251602     0.0482497152
   22      C       4.6211547812     1.2663366343     0.9711496673
   23      O       5.4226566964     0.0196739204     1.0396396360
   24      H       4.0285668205     0.6256301756    -1.8331437226
   25      H       2.6890735181     1.5680474843    -0.1700726533
   26      H       6.0607251946    -1.0735391131    -0.6928455094
   27      H       7.3119635342     1.1657502429    -0.5975986619
   28      H       6.1432544481     1.4120233485    -1.9341835605
   29      H       6.1553356891     2.8456261832     0.6520730672
   30      H       4.8198519552     2.9053446864    -0.5364680023
   31      H       4.4100694106     1.6514535680     1.9876410150
   32      O      -1.9893627545    -0.6541946143     1.1844801561
   33      C      -1.3612494477     2.6506431310     0.1974184567
   34      C      -5.7518376475     0.3319334196     0.1284748796
   35      C      -6.7017443363    -0.5444185452    -0.7804062609
   36      C      -6.0242162530    -1.9607734502    -0.6583530704
   37      C      -4.7822681918    -1.6227264053     0.2567854322
   38      O      -5.3124214773    -0.6048418951     1.1899483551
   39      H      -4.5682165103     0.9801099273    -1.6871031999
   40      H      -3.6649852776    -1.2391160491    -1.6533252617
   41      H      -1.0742432897     2.0920876499     1.1125003815
   42      H      -6.2150016771     1.2307098777     0.5795780482
   43      H      -7.7264969592    -0.5486440351    -0.3764745403
   44      H      -6.7335830047    -0.1776622038    -1.8190240243
   45      H      -6.6856427971    -2.6824731353    -0.1530825832
   46      H      -5.7255150460    -2.3774585673    -1.6333092001
   47      H      -4.3549463212    -2.4768140402     0.8171255684
   48      H      -1.7642682659     3.6391685404     0.4975639227
   49      H      -0.4714565282     2.7925745681    -0.4431222569
   50      H       0.7850874951     1.1101572683     3.8907091780
   51      H       1.5281112724    -0.5301263935     3.7032741457
   52      H       0.1309593515    -0.0515040427     2.6690834896
   53      H       0.7878454424    -1.4746861081    -2.5232506840
   54      H       1.3243597071    -0.0779503609    -1.5200836437
   55      H      -0.1058861438    -2.5516692423    -0.3060389604
   56      H       0.1284471795    -0.9598562153     0.4868427109
 ----------------------------------------------------------------

    9   -1510.2492518785      6.98E-09 Convergence criterion met
 Total energy in the final basis set = -1510.24925188
 Final energy is   -1510.24925187851
 **  OPTIMIZATION CONVERGED  **

                    Orbital Energies (a.u.)
 --------------------------------------------------------------

 Alpha MOs
 -- Occupied --
-18.935 -18.931 -18.931 -18.916 -18.895 -18.891 -18.889 -18.883
-18.881 -18.878 -10.108 -10.102 -10.102 -10.100 -10.077 -10.067
-10.066 -10.064 -10.063 -10.063 -10.061 -10.060 -10.045 -10.040
-10.039 -10.039 -10.025 -10.023 -10.022 -10.021  -1.017  -1.014
 -1.009  -1.006  -0.975  -0.971  -0.944  -0.938  -0.938  -0.934
 -0.766  -0.765  -0.727  -0.726  -0.713  -0.707  -0.700  -0.665
 -0.661  -0.610  -0.602  -0.582  -0.551  -0.548  -0.542  -0.539
 -0.519  -0.511  -0.484  -0.477  -0.466  -0.462  -0.455  -0.452
 -0.437  -0.435  -0.431  -0.417  -0.415  -0.413  -0.407  -0.401
 -0.397  -0.380  -0.375  -0.371  -0.365  -0.362  -0.354  -0.352
 -0.349  -0.342  -0.340  -0.334  -0.333  -0.332  -0.321  -0.316
 -0.312  -0.308  -0.307  -0.306  -0.301  -0.292  -0.283  -0.276
 -0.275  -0.256  -0.255  -0.252  -0.243  -0.236  -0.235  -0.183
 -0.180  -0.175  -0.172  -0.161  -0.157  -0.152  -0.149  -0.145
 -0.144

          Ground-State Mulliken Net Atomic Charges

     Atom                 Charge (a.u.)
  ----------------------------------------
      1 O                    -0.203039
      2 C                     0.210059
      3 C                    -0.077568
      4 C                    -0.079549
      5 C                     0.209226
      6 O                    -0.175092
      7 C                    -0.051143
      8 C                    -0.043876
      9 O                    -0.173913
     10 C                     0.217016
     11 C                    -0.086746
     12 C                    -0.079684
     13 C                     0.208557
     14 O                    -0.200757
     15 O                    -0.173479
     16 O                    -0.177343
     17 O                    -0.185897
     18 C                    -0.133175
     19 C                     0.025983
     20 C                    -0.141287
     21 C                    -0.146002
     22 C                     0.024483
     23 O                    -0.190030
     24 H                     0.079907
     25 H                     0.082335
     26 H                     0.090666
     27 H                     0.079418
     28 H                     0.074566
     29 H                     0.079475
     30 H                     0.072642
     31 H                     0.087942
     32 O                    -0.215329
     33 C                    -0.129500
     34 C                     0.025271
     35 C                    -0.144585
     36 C                    -0.143075
     37 C                     0.025816
     38 O                    -0.184682
     39 H                     0.085757
     40 H                     0.086547
     41 H                     0.091836
     42 H                     0.088354
     43 H                     0.078742
     44 H                     0.073236
     45 H                     0.078876
     46 H                     0.073848
     47 H                     0.085470
     48 H                     0.090106
     49 H                     0.086531
     50 H                     0.090494
     51 H                     0.092328
     52 H                     0.094074
     53 H                     0.084048
     54 H                     0.075662
     55 H                     0.089297
     56 H                     0.097181
  ----------------------------------------
  Sum of atomic charges =    -0.000000

                    Cartesian Multipole Moments
 -----------------------------------------------------------------
    Charge (ESU x 10^10)
                -0.0000
    Dipole Moment (Debye)
         X      -0.8754      Y       2.7725      Z      -2.4759
       Tot       3.8188
    Quadrupole Moments (Debye-Ang)
        XX    -157.5604     XY      17.3638     YY    -161.2260
        XZ      10.4789     YZ      -3.2088     ZZ    -163.8109

 Total job time:  107.98s(wall), 5145.15s(cpu)
        *  Thank you very much for using Q-Chem.  Have a nice day.  *
