 Q-Chem 5.0, Q-Chem, Inc., Pleasanton, CA (2017)
 Q-Chem 5.0.1 for Intel X86 EM64T Linux

User input:
--------------------------------------------------------------
$molecule
0  1
O -3.94934 -3.66094 2.70899
C -3.26408 -4.56952 2.26188
C -3.36658 -6.02376 2.66595
C -2.23255 -6.95954 2.21635
C -1.0348 -6.30356 1.56584
O -0.11971 -5.95886 2.51938
C 0.10843 -4.54777 2.59693
C -0.44716 -3.85651 1.35612
O -0.10422 -2.46195 1.37791
C -1.12942 -1.60563 1.14379
C -0.97208 -0.28824 1.86517
C 0.48031 0.15472 2.09459
C 1.52986 -0.57344 1.27915
O 2.07841 -0.13657 0.27776
O -3.37448 -4.6528 0.89352
O 2.13631 -1.61601 1.91461
O -1.87777 -1.73878 0.18864
C 3.19629 -2.3358 1.40224
C -1.54073 0.9339 1.11529
C -1.86172 2.04393 2.11443
C -0.46659 2.47737 2.51176
C 0.37046 1.60442 1.56954
O -0.43722 1.46271 0.42595
H -1.51425 -0.41161 2.82927
H 0.79733 0.13868 3.16112
H -2.44004 0.70672 0.50292
H -2.34034 2.87027 1.54109
H -2.5254 1.75077 2.95611
H -0.34886 3.55422 2.25726
H -0.19915 2.30525 3.57678
H 1.36761 2.07048 1.40694
O -0.69647 -6.5769 0.42242
C -3.98843 -3.77507 0.01482
C -3.28128 -6.21325 4.19808
C -3.98191 -7.51052 4.59851
C -3.00826 -8.53518 4.05493
C -1.88094 -7.61381 3.57238
O -1.93377 -6.51978 4.45431
H -4.37117 -6.38035 2.33656
H -2.6041 -7.72323 1.49646
H -4.36361 -2.85519 0.51046
H -3.70432 -5.36123 4.77394
H -3.96056 -7.55738 5.71124
H -5.03149 -7.62035 4.25057
H -2.66571 -9.17553 4.89785
H -3.39772 -9.16876 3.22886
H -0.91847 -8.16997 3.53214
H -4.84425 -4.29176 -0.46601
H -3.27505 -3.50008 -0.7866
H 3.48465 -3.1243 2.1271
H 4.06903 -1.66928 1.23438
H 2.90144 -2.81967 0.44646
H 0.13816 -4.26198 0.50186
H -1.41409 -3.96566 1.02878
H 1.2021 -4.36283 2.65056
H -0.36752 -4.14839 3.51725
$end

$opt
CONSTRAINT
tors           1           2           3           4    -167.471
tors           3           4           5           6     +88.976
tors           4           5           6           7    -117.311
tors           5           6           7           8     -15.104
tors           6           7           8           9    -174.534
tors           7           8           9          10    -130.879
tors           8           9          10          11    +148.849
tors           9          10          11          12     +30.058
tors          11          12          13          14    +101.986
ENDCONSTRAINT
$end

$rem
JOBTYPE                   OPT
METHOD                    B3LYP
DFT_D                     d3_op
BASIS                     STO-3G
GEOM_OPT_MAX_CYCLES       100
GEOM_OPT_TOL_GRADIENT     300
GEOM_OPT_TOL_DISPLACEMENT 1200
GEOM_OPT_TOL_ENERGY       100
SYMMETRY                  False
THRESH                    12
SCF_CONVERGENCE           8
MAX_SUB_FILE_NUM          128
MEM_STATIC                400
MEM_TOTAL                 4000
$end
--------------------------------------------------------------

   16   -1510.0503493001      4.20E-09 Convergence criterion met
 Total energy in the final basis set = -1510.05034930
   15   -1510.1303852545      2.56E-09 Convergence criterion met
 Total energy in the final basis set = -1510.13038525
   15   -1510.1734417411      3.12E-09 Convergence criterion met
 Total energy in the final basis set = -1510.17344174
   14   -1510.2053480941      6.44E-09 Convergence criterion met
 Total energy in the final basis set = -1510.20534809
   14   -1510.2216309023      3.47E-09 Convergence criterion met
 Total energy in the final basis set = -1510.22163090
   14   -1510.2324567941      3.74E-09 Convergence criterion met
 Total energy in the final basis set = -1510.23245679
   13   -1510.2403894698      5.81E-09 Convergence criterion met
 Total energy in the final basis set = -1510.24038947
   13   -1510.2459584515      3.93E-09 Convergence criterion met
   11   -1510.2534265489      3.65E-09 Convergence criterion met
 Total energy in the final basis set = -1510.25342655
    9   -1510.2534292651      9.19E-09 Convergence criterion met
 Total energy in the final basis set = -1510.25342927
    9   -1510.2534320336      4.77E-09 Convergence criterion met
 Total energy in the final basis set = -1510.25343203
    9   -1510.2534342512      4.27E-09 Convergence criterion met
 Total energy in the final basis set = -1510.25343425
    9   -1510.2534359064      4.69E-09 Convergence criterion met
 Total energy in the final basis set = -1510.25343591
    9   -1510.2534369472      2.92E-09 Convergence criterion met
 Total energy in the final basis set = -1510.25343695

             Standard Nuclear Orientation (Angstroms)
    I     Atom           X                Y                Z
 ----------------------------------------------------------------
    1      O      -2.2108214694    -2.9624199627     0.0940942029
    2      C      -2.6113206175    -1.9085073869     0.6363343197
    3      C      -3.8608871998    -1.0791415474     0.1709964292
    4      C      -4.1362950701     0.3892838724     0.7152975939
    5      C      -2.9112902799     1.1987964662     1.3087264315
    6      O      -2.2414864833     1.9447629245     0.2651205334
    7      C      -0.8368383273     1.5751610884    -0.0005500870
    8      C      -0.1022717110     0.6991963289     1.0771249619
    9      O       1.3088227314     0.6011253388     0.6164193080
   10      C       1.8058441520    -0.7319226615     0.6149809997
   11      C       2.8740050582    -0.9448605962    -0.5219818540
   12      C       3.7525028704     0.3038026994    -0.9528254358
   13      C       3.3487636665     1.7086289452    -0.3793683350
   14      O       3.8970426100     2.3227649867     0.5608991211
   15      O      -2.1272951084    -1.4184866492     1.8876763295
   16      O       2.3707504359     2.2952596222    -1.2516381983
   17      O       1.4025260967    -1.6501755720     1.3662266194
   18      C       2.0796763718     3.6768927471    -0.8062762249
   19      C       3.9983623616    -1.9274531446     0.0096667924
   20      C       4.8709284596    -2.4426163834    -1.2012144879
   21      C       5.7690510702    -1.1822659178    -1.4913327275
   22      C       5.1871213891    -0.1545130946    -0.4441724439
   23      O       4.8997012871    -1.0025270090     0.7354992102
   24      H       2.3299909253    -1.3621958322    -1.3906070788
   25      H       3.7346613956     0.3935032229    -2.0539116665
   26      H       3.6087777725    -2.7102509155     0.6897673661
   27      H       5.4763039643    -3.3114133706    -0.8980473517
   28      H       4.2504310133    -2.7307896768    -2.0649834907
   29      H       6.8302324587    -1.3870268099    -1.2773741853
   30      H       5.6801349953    -0.8214416528    -2.5285199282
   31      H       5.8557359106     0.6819026805    -0.1625475460
   32      O      -2.6064418463     1.2831772483     2.5171036383
   33      C      -1.1895738982    -2.3921560216     2.5129091799
   34      C      -3.9706641574    -0.8718101568    -1.4033464139
   35      C      -5.5033085078    -0.8898309245    -1.7743794103
   36      C      -5.9701488612     0.4670825880    -1.1276851741
   37      C      -4.5925959227     1.0782376128    -0.6451416429
   38      O      -3.6025534438     0.5452759559    -1.6129426133
   39      H      -4.7154543575    -1.7044634368     0.4961197966
   40      H      -4.9352050325     0.3673947249     1.4783633083
   41      H      -1.4760251927    -3.4304084610     2.2583738356
   42      H      -3.3220619223    -1.5451284749    -1.9974002556
   43      H      -5.6304812549    -0.8780098005    -2.8688018310
   44      H      -6.0290599222    -1.7669789848    -1.3644477217
   45      H      -6.4470009929     1.1282023293    -1.8682494224
   46      H      -6.6697760370     0.3174719465    -0.2896474842
   47      H      -4.5535963053     2.1838666138    -0.6265333798
   48      H      -1.2665245877    -2.2284848909     3.6032843264
   49      H      -0.1473979589    -2.1911869901     2.1679660561
   50      H       1.2831987535     4.0541300588    -1.4738933857
   51      H       2.9734794485     4.3284677135    -0.8939158842
   52      H       1.7315475722     3.7057285848     0.2462794537
   53      H      -0.1306034955     1.2050580034     2.0661962377
   54      H      -0.5955590012    -0.2880988648     1.1881870463
   55      H      -0.2744197124     2.5216982809    -0.1386499104
   56      H      -0.8142478747     1.0248103310    -0.9696602379
 ----------------------------------------------------------------

    8   -1510.2534375041      8.31E-09 Convergence criterion met
 Total energy in the final basis set = -1510.25343750
 Final energy is   -1510.25343750411
 **  OPTIMIZATION CONVERGED  **

                    Orbital Energies (a.u.)
 --------------------------------------------------------------

 Alpha MOs
 -- Occupied --
-18.945 -18.938 -18.928 -18.904 -18.897 -18.894 -18.889 -18.887
-18.878 -18.869 -10.117 -10.107 -10.104 -10.097 -10.072 -10.071
-10.061 -10.061 -10.060 -10.059 -10.058 -10.044 -10.043 -10.042
-10.039 -10.037 -10.022 -10.021 -10.021 -10.020  -1.024  -1.015
 -1.005  -1.004  -0.972  -0.970  -0.951  -0.939  -0.934  -0.931
 -0.765  -0.764  -0.728  -0.723  -0.712  -0.706  -0.698  -0.661
 -0.656  -0.616  -0.601  -0.588  -0.547  -0.546  -0.539  -0.538
 -0.515  -0.512  -0.489  -0.474  -0.464  -0.462  -0.458  -0.439
 -0.435  -0.433  -0.431  -0.421  -0.409  -0.408  -0.407  -0.402
 -0.393  -0.388  -0.375  -0.371  -0.367  -0.356  -0.353  -0.347
 -0.343  -0.339  -0.336  -0.333  -0.332  -0.329  -0.324  -0.317
 -0.313  -0.308  -0.308  -0.302  -0.297  -0.295  -0.289  -0.277
 -0.272  -0.255  -0.251  -0.247  -0.237  -0.234  -0.233  -0.188
 -0.179  -0.171  -0.167  -0.163  -0.156  -0.152  -0.148  -0.144
 -0.144

          Ground-State Mulliken Net Atomic Charges

     Atom                 Charge (a.u.)
  ----------------------------------------
      1 O                    -0.214709
      2 C                     0.203007
      3 C                    -0.081242
      4 C                    -0.079089
      5 C                     0.220578
      6 O                    -0.194671
      7 C                    -0.043110
      8 C                    -0.061036
      9 O                    -0.172039
     10 C                     0.224616
     11 C                    -0.075814
     12 C                    -0.081201
     13 C                     0.215610
     14 O                    -0.214584
     15 O                    -0.173658
     16 O                    -0.171533
     17 O                    -0.209909
     18 C                    -0.129318
     19 C                     0.023925
     20 C                    -0.144843
     21 C                    -0.143368
     22 C                     0.024693
     23 O                    -0.189357
     24 H                     0.087495
     25 H                     0.084805
     26 H                     0.089949
     27 H                     0.078968
     28 H                     0.073316
     29 H                     0.078456
     30 H                     0.073097
     31 H                     0.088721
     32 O                    -0.184254
     33 C                    -0.151067
     34 C                     0.022934
     35 C                    -0.142043
     36 C                    -0.146131
     37 C                     0.027224
     38 O                    -0.189023
     39 H                     0.086339
     40 H                     0.083597
     41 H                     0.088464
     42 H                     0.086754
     43 H                     0.078185
     44 H                     0.073731
     45 H                     0.078184
     46 H                     0.073226
     47 H                     0.087849
     48 H                     0.086671
     49 H                     0.113777
     50 H                     0.088562
     51 H                     0.087204
     52 H                     0.089615
     53 H                     0.095593
     54 H                     0.102448
     55 H                     0.088547
     56 H                     0.085857
  ----------------------------------------
  Sum of atomic charges =     0.000000

                    Cartesian Multipole Moments
 -----------------------------------------------------------------
    Charge (ESU x 10^10)
                 0.0000
    Dipole Moment (Debye)
         X      -1.6452      Y      -0.4910      Z      -2.5762
       Tot       3.0959
    Quadrupole Moments (Debye-Ang)
        XX    -148.0177     XY      -0.8587     YY    -160.0583
        XZ     -10.0937     YZ      -2.3511     ZZ    -164.7636

 Total job time:  80.31s(wall), 3829.73s(cpu)
        *  Thank you very much for using Q-Chem.  Have a nice day.  *
