 Q-Chem 5.0, Q-Chem, Inc., Pleasanton, CA (2017)
 Q-Chem 5.0.1 for Intel X86 EM64T Linux

User input:
--------------------------------------------------------------
$molecule
0  1
O -2.2108214694 -2.9624199627 0.0940942029
C -2.6113206175 -1.9085073869 0.6363343197
C -3.8608871998 -1.0791415474 0.1709964292
C -4.1362950701 0.3892838724 0.7152975939
C -2.9112902799 1.1987964662 1.3087264315
O -2.2414864833 1.9447629245 0.2651205334
C -0.8368383273 1.5751610884 -0.000550087
C -0.102271711 0.6991963289 1.0771249619
O 1.3088227314 0.6011253388 0.616419308
C 1.805844152 -0.7319226615 0.6149809997
C 2.8740050582 -0.9448605962 -0.521981854
C 3.7525028704 0.3038026994 -0.9528254358
C 3.3487636665 1.7086289452 -0.379368335
O 3.89704261 2.3227649867 0.5608991211
O -2.1272951084 -1.4184866492 1.8876763295
O 2.3707504359 2.2952596222 -1.2516381983
O 1.4025260967 -1.650175572 1.3662266194
C 2.0796763718 3.6768927471 -0.8062762249
C 3.9983623616 -1.9274531446 0.0096667924
C 4.8709284596 -2.4426163834 -1.2012144879
C 5.7690510702 -1.1822659178 -1.4913327275
C 5.1871213891 -0.1545130946 -0.4441724439
O 4.8997012871 -1.002527009 0.7354992102
H 2.3299909253 -1.3621958322 -1.3906070788
H 3.7346613956 0.3935032229 -2.0539116665
H 3.6087777725 -2.7102509155 0.6897673661
H 5.4763039643 -3.3114133706 -0.8980473517
H 4.2504310133 -2.7307896768 -2.0649834907
H 6.8302324587 -1.3870268099 -1.2773741853
H 5.6801349953 -0.8214416528 -2.5285199282
H 5.8557359106 0.6819026805 -0.162547546
O -2.6064418463 1.2831772483 2.5171036383
C -1.1895738982 -2.3921560216 2.5129091799
C -3.9706641574 -0.8718101568 -1.4033464139
C -5.5033085078 -0.8898309245 -1.7743794103
C -5.9701488612 0.467082588 -1.1276851741
C -4.5925959227 1.0782376128 -0.6451416429
O -3.6025534438 0.5452759559 -1.6129426133
H -4.7154543575 -1.7044634368 0.4961197966
H -4.9352050325 0.3673947249 1.4783633083
H -1.4760251927 -3.430408461 2.2583738356
H -3.3220619223 -1.5451284749 -1.9974002556
H -5.6304812549 -0.8780098005 -2.868801831
H -6.0290599222 -1.7669789848 -1.3644477217
H -6.4470009929 1.1282023293 -1.8682494224
H -6.669776037 0.3174719465 -0.2896474842
H -4.5535963053 2.1838666138 -0.6265333798
H -1.2665245877 -2.2284848909 3.6032843264
H -0.1473979589 -2.1911869901 2.1679660561
H 1.2831987535 4.0541300588 -1.4738933857
H 2.9734794485 4.3284677135 -0.8939158842
H 1.7315475722 3.7057285848 0.2462794537
H -0.1306034955 1.2050580034 2.0661962377
H -0.5955590012 -0.2880988648 1.1881870463
H -0.2744197124 2.5216982809 -0.1386499104
H -0.8142478747 1.024810331 -0.9696602379
$end

$rem
JOBTYPE                   OPT
METHOD                    B3LYP
DFT_D                     d3_op
BASIS                     STO-3G
GEOM_OPT_MAX_CYCLES       100
GEOM_OPT_TOL_GRADIENT     300
GEOM_OPT_TOL_DISPLACEMENT 1200
GEOM_OPT_TOL_ENERGY       100
SYMMETRY                  False
THRESH                    12
SCF_CONVERGENCE           8
MAX_SUB_FILE_NUM          128
MEM_STATIC                400
MEM_TOTAL                 4000
$end
--------------------------------------------------------------

   16   -1510.2531740108      5.42E-09 Convergence criterion met
 Total energy in the final basis set = -1510.25317401
   14   -1510.2544144523      8.43E-09 Convergence criterion met
 Total energy in the final basis set = -1510.25441445
   14   -1510.2601042179      2.69E-09 Convergence criterion met
 Total energy in the final basis set = -1510.26010422
   14   -1510.2638066078      4.73E-09 Convergence criterion met
 Total energy in the final basis set = -1510.26380661
   14   -1510.2668168396      4.07E-09 Convergence criterion met
 Total energy in the final basis set = -1510.26681684
   13   -1510.2693045633      7.71E-09 Convergence criterion met
 Total energy in the final basis set = -1510.26930456
   13   -1510.2715093368      6.66E-09 Convergence criterion met
 Total energy in the final basis set = -1510.27150934
   13   -1510.2734844373      5.58E-09 Convergence criterion met
   11   -1510.2874460020      8.49E-09 Convergence criterion met
 Total energy in the final basis set = -1510.28744600
   10   -1510.2874574688      5.69E-09 Convergence criterion met
 Total energy in the final basis set = -1510.28745747
   11   -1510.2874506295      5.34E-09 Convergence criterion met
 Total energy in the final basis set = -1510.28745063
   10   -1510.2874469403      6.54E-09 Convergence criterion met
 Total energy in the final basis set = -1510.28744694
   11   -1510.2874404114      4.30E-09 Convergence criterion met
 Total energy in the final basis set = -1510.28744041
    9   -1510.2874414557      6.84E-09 Convergence criterion met
 Total energy in the final basis set = -1510.28744146

             Standard Nuclear Orientation (Angstroms)
    I     Atom           X                Y                Z
 ----------------------------------------------------------------
    1      O      -3.1096887452    -3.0018621371    -0.7439136360
    2      C      -3.2567136481    -2.1016831080     0.1103563165
    3      C      -4.5218283890    -1.2010952044     0.3514082869
    4      C      -4.2011935638     0.3553998653     0.3647217996
    5      C      -2.6831875104     0.6481718827     0.0862491376
    6      O      -2.4234144617     0.2312852567    -1.2621533953
    7      C      -0.9877498229     0.0484435494    -1.5821599271
    8      C      -0.0328276289     1.2556332049    -1.2373776816
    9      O       1.3730011613     0.9113034814    -1.5603376344
   10      C       1.9110150975     0.0077764803    -0.5843113894
   11      C       3.4126855558    -0.2742394949    -0.9657990599
   12      C       4.4299747631     0.8400189987    -0.4905867190
   13      C       3.7296173406     1.9870617233     0.3092055011
   14      O       2.5351592063     2.0211153668     0.6845886327
   15      O      -2.2742291703    -1.7233287840     1.0794373599
   16      O       4.6844944239     3.0124189860     0.5797223091
   17      O       1.2519631058    -0.5621977080     0.3139072671
   18      C       4.0523959417     4.0991016134     1.3651117630
   19      C       3.9646783825    -1.5411431963    -0.1888326588
   20      C       5.2800663573    -2.0327799589    -0.9094952396
   21      C       6.3026459794    -0.9225318208    -0.4627412650
   22      C       5.3886508631    -0.0144711934     0.4512064023
   23      O       4.4603420291    -0.9740995841     1.0881082097
   24      H       3.4653224179    -0.4061429972    -2.0613107508
   25      H       4.9888435271     1.2820745153    -1.3348383983
   26      H       3.2008882878    -2.3181734508     0.0073613893
   27      H       5.5756846647    -3.0271564198    -0.5386069345
   28      H       5.1594225258    -2.0849059631    -2.0033198492
   29      H       7.1322738919    -1.3471585521     0.1245549016
   30      H       6.7216062166    -0.3620443591    -1.3136300063
   31      H       5.9244285068     0.5816045573     1.2154669456
   32      O      -1.8715481928     1.1812547986     0.8748279686
   33      C      -1.0368718430    -2.5320748405     0.9472734323
   34      C      -5.5505520190    -1.2961029031    -0.8494871135
   35      C      -6.9413786070    -0.7386319708    -0.3529541133
   36      C      -6.6442514215     0.8067521433    -0.3003181288
   37      C      -5.1482831313     0.8506316053    -0.8119802172
   38      O      -5.0840939413    -0.2547990487    -1.7938745861
   39      H      -4.9841924437    -1.5097006905     1.3072628815
   40      H      -4.4652863565     0.8150485154     1.3328929550
   41      H      -1.1226740494    -3.1980613866     0.0654696357
   42      H      -5.5718821812    -2.2863916947    -1.3447106909
   43      H      -7.7323127754    -0.9721508504    -1.0833680464
   44      H      -7.2314438005    -1.1511339487     0.6264892208
   45      H      -7.3010987675     1.3685523037    -0.9833474200
   46      H      -6.7490453949     1.2244595606     0.7137456267
   47      H      -4.8388864476     1.8045243349    -1.2811277396
   48      H      -0.9111149425    -3.1422798727     1.8633206418
   49      H      -0.1733728088    -1.8384305727     0.8372339232
   50      H       4.8529463207     4.8345323234     1.5656732309
   51      H       3.6417629637     3.7223811064     2.3239402302
   52      H       3.2330945185     4.5864012725     0.7979159915
   53      H      -0.2787735396     2.1406435376    -1.8565524949
   54      H      -0.1691012332     1.4949838181    -0.1604328761
   55      H      -0.9650285146    -0.1587562073    -2.6712427666
   56      H      -0.6067863565    -0.8439392665    -1.0460500886
 ----------------------------------------------------------------

    9   -1510.2874417759      2.38E-09 Convergence criterion met
 Total energy in the final basis set = -1510.28744178
 Final energy is   -1510.28744177594
 **  OPTIMIZATION CONVERGED  **

                    Orbital Energies (a.u.)
 --------------------------------------------------------------

 Alpha MOs
 -- Occupied --
-18.944 -18.925 -18.925 -18.924 -18.889 -18.887 -18.882 -18.873
-18.870 -18.868 -10.107 -10.099 -10.097 -10.093 -10.069 -10.063
-10.060 -10.059 -10.056 -10.054 -10.053 -10.042 -10.039 -10.036
-10.032 -10.031 -10.022 -10.021 -10.016 -10.015  -1.020  -1.008
 -1.003  -0.997  -0.972  -0.964  -0.944  -0.933  -0.930  -0.929
 -0.765  -0.758  -0.726  -0.721  -0.710  -0.702  -0.688  -0.667
 -0.649  -0.613  -0.594  -0.581  -0.546  -0.541  -0.538  -0.532
 -0.513  -0.506  -0.480  -0.473  -0.461  -0.457  -0.455  -0.437
 -0.433  -0.431  -0.426  -0.416  -0.412  -0.404  -0.402  -0.386
 -0.385  -0.377  -0.368  -0.367  -0.360  -0.359  -0.349  -0.344
 -0.343  -0.340  -0.331  -0.330  -0.326  -0.322  -0.322  -0.314
 -0.306  -0.305  -0.303  -0.300  -0.288  -0.286  -0.280  -0.276
 -0.272  -0.260  -0.256  -0.239  -0.236  -0.229  -0.229  -0.187
 -0.181  -0.167  -0.161  -0.160  -0.152  -0.147  -0.146  -0.140
 -0.138

          Ground-State Mulliken Net Atomic Charges

     Atom                 Charge (a.u.)
  ----------------------------------------
      1 O                    -0.214808
      2 C                     0.211407
      3 C                    -0.077480
      4 C                    -0.077875
      5 C                     0.216308
      6 O                    -0.171156
      7 C                    -0.055543
      8 C                    -0.061840
      9 O                    -0.176066
     10 C                     0.222347
     11 C                    -0.081392
     12 C                    -0.078122
     13 C                     0.215014
     14 O                    -0.203126
     15 O                    -0.173663
     16 O                    -0.168342
     17 O                    -0.221032
     18 C                    -0.128171
     19 C                     0.025073
     20 C                    -0.144034
     21 C                    -0.143596
     22 C                     0.025317
     23 O                    -0.188342
     24 H                     0.084528
     25 H                     0.087484
     26 H                     0.087901
     27 H                     0.078479
     28 H                     0.073616
     29 H                     0.078678
     30 H                     0.073966
     31 H                     0.085437
     32 O                    -0.206756
     33 C                    -0.148593
     34 C                     0.024240
     35 C                    -0.143903
     36 C                    -0.144215
     37 C                     0.026157
     38 O                    -0.185659
     39 H                     0.084192
     40 H                     0.084219
     41 H                     0.092549
     42 H                     0.089438
     43 H                     0.077208
     44 H                     0.072520
     45 H                     0.076947
     46 H                     0.073048
     47 H                     0.082255
     48 H                     0.081431
     49 H                     0.110547
     50 H                     0.092247
     51 H                     0.093237
     52 H                     0.091124
     53 H                     0.083179
     54 H                     0.116780
     55 H                     0.087398
     56 H                     0.089442
  ----------------------------------------
  Sum of atomic charges =     0.000000

                    Cartesian Multipole Moments
 -----------------------------------------------------------------
    Charge (ESU x 10^10)
                 0.0000
    Dipole Moment (Debye)
         X       1.6687      Y       1.3607      Z      -0.4496
       Tot       2.1996
    Quadrupole Moments (Debye-Ang)
        XX    -135.2286     XY       0.2909     YY    -153.0485
        XZ     -10.9742     YZ      -0.1421     ZZ    -163.6537

 Total job time:  133.51s(wall), 6368.04s(cpu)
        *  Thank you very much for using Q-Chem.  Have a nice day.  *
