 Q-Chem 5.0, Q-Chem, Inc., Pleasanton, CA (2017)
 Q-Chem 5.0.1 for Intel X86 EM64T Linux

User input:
--------------------------------------------------------------
$molecule
0  1
O 3.2290287801 -2.5323621281 0.4558118563
C 3.9232156314 -1.5464173817 0.7894177812
C 4.9100187717 -0.7383234272 -0.1210767976
C 4.293102457 0.6389656071 -0.6339745197
C 2.8719550109 0.9441139919 -0.0422275932
O 1.8876972649 0.4917488424 -0.986340791
C 0.566222235 1.0943721173 -0.6823982507
C -0.4766433235 0.3877696357 -1.622755517
O -1.640708198 1.273805602 -1.8254262544
C -2.8223691297 0.9941962549 -1.0387082775
C -3.162184908 -0.5181499859 -0.706583385
C -4.4115145741 -0.7102672573 0.2396234698
C -4.7283274255 0.4393373582 1.261273845
O -4.0134524866 1.4001970104 1.6133361494
O 3.9031469358 -0.9578258266 2.0922027236
O -6.0370898976 0.1820624823 1.789596946
O -3.6276969526 1.9394299983 -0.9077052979
C -6.393318475 1.2207690644 2.7826185586
C -3.7657958829 -1.1090005283 -2.0590331606
C -4.0744870574 -2.6518865059 -1.8959033878
C -5.4353727205 -2.6156834256 -1.1045895436
C -5.5566645728 -1.0705459838 -0.8103886847
O -5.1019191748 -0.4674066149 -2.0841288206
H -2.2958417067 -1.0839150238 -0.3307352503
H -4.2285745053 -1.6045388415 0.8662024191
H -3.1901510387 -0.8390364248 -2.9660529607
H -4.1868080678 -3.130442919 -2.8814911707
H -3.2769469349 -3.1720456112 -1.3410032403
H -6.2744226687 -2.9512739782 -1.7351618085
H -5.4153821833 -3.2224468118 -0.1854118152
H -6.5651446115 -0.7065325221 -0.5348596757
O 2.5990673682 1.5374929231 1.0225238767
C 2.9187475975 -1.6566189971 2.9497025199
C 6.1990928255 -0.216608099 0.6470459284
C 7.2778329349 0.1939827953 -0.4326028223
C 6.6719183288 1.545469854 -0.9666027184
C 5.3688230401 1.6664851924 -0.0829301331
O 5.7688224408 1.080064423 1.215526096
H 5.1760012087 -1.3853600988 -0.9757809143
H 4.2204834307 0.6512558924 -1.7356846531
H 3.1680148674 -2.7310286814 3.0688585729
H 6.5609524165 -0.889564126 1.4480472831
H 8.2583754569 0.3509762017 0.0443439659
H 7.3864786163 -0.5663410538 -1.2224333463
H 7.3462540028 2.3949851906 -0.7743321869
H 6.4426395027 1.5130939601 -2.0437265513
H 4.9840602532 2.6944288069 0.0618089823
H 1.8922250579 -1.5769022881 2.5371615205
H 2.9616106492 -1.1533169657 3.9328034852
H -7.3847626583 0.935710201 3.1803109651
H -6.4554290364 2.2253959789 2.3163585821
H -5.6577009623 1.2636177723 3.6115537102
H -0.0063018475 0.261472859 -2.6218981155
H -0.7274281456 -0.6179522562 -1.2383777408
H 0.5778395389 2.1841631546 -0.9051602984
H 0.2980953493 0.9658646534 0.3885680015
$end

$rem
JOBTYPE                   OPT
METHOD                    B3LYP
DFT_D                     d3_op
BASIS                     STO-3G
GEOM_OPT_MAX_CYCLES       100
GEOM_OPT_TOL_GRADIENT     300
GEOM_OPT_TOL_DISPLACEMENT 1200
GEOM_OPT_TOL_ENERGY       100
SYMMETRY                  False
THRESH                    12
SCF_CONVERGENCE           8
MAX_SUB_FILE_NUM          128
MEM_STATIC                400
MEM_TOTAL                 4000
$end
--------------------------------------------------------------

   16   -1510.2556010902      6.21E-09 Convergence criterion met
 Total energy in the final basis set = -1510.25560109
   14   -1510.2586771908      2.96E-09 Convergence criterion met
 Total energy in the final basis set = -1510.25867719
   14   -1510.2611455315      3.25E-09 Convergence criterion met
 Total energy in the final basis set = -1510.26114553
   14   -1510.2637118675      3.44E-09 Convergence criterion met
 Total energy in the final basis set = -1510.26371187
   14   -1510.2653835867      4.17E-09 Convergence criterion met
 Total energy in the final basis set = -1510.26538359
   14   -1510.2667733577      2.54E-09 Convergence criterion met
 Total energy in the final basis set = -1510.26677336
   14   -1510.2681166319      1.18E-09 Convergence criterion met
 Total energy in the final basis set = -1510.26811663
   13   -1510.2696587326      7.29E-09 Convergence criterion met
   12   -1510.2938366876      9.21E-09 Convergence criterion met
 Total energy in the final basis set = -1510.29383669
   12   -1510.2938191799      4.26E-09 Convergence criterion met
 Total energy in the final basis set = -1510.29381918
   12   -1510.2938642575      3.69E-09 Convergence criterion met
 Total energy in the final basis set = -1510.29386426
   11   -1510.2938739231      6.58E-09 Convergence criterion met
 Total energy in the final basis set = -1510.29387392
   10   -1510.2938767995      8.74E-09 Convergence criterion met
 Total energy in the final basis set = -1510.29387680
   10   -1510.2938811334      6.23E-09 Convergence criterion met
 Total energy in the final basis set = -1510.29388113

             Standard Nuclear Orientation (Angstroms)
    I     Atom           X                Y                Z
 ----------------------------------------------------------------
    1      O      -0.4485965917    -1.4037390075     1.8043038035
    2      C      -1.2645526426    -1.0604523204     0.9130770664
    3      C      -2.3752321209     0.0285236168     1.0859576836
    4      C      -2.8974068745     0.7316514360    -0.2341173194
    5      C      -2.1905321889     0.3168229043    -1.5727852706
    6      O      -0.8562618624     0.8683592482    -1.5846895760
    7      C      -0.2122037087     0.6075147664    -2.8951603538
    8      C       1.0873492417     1.4963233732    -2.9747180085
    9      O       2.3408720018     0.7273749109    -2.8364193938
   10      C       2.6144913265     0.1954364146    -1.5296897466
   11      C       1.7567432545     0.6487105334    -0.2930628634
   12      C       2.0795304214    -0.2390118151     0.9771912624
   13      C       2.9134287599    -1.5226655581     0.6445332831
   14      O       2.4312809574    -2.5717608998     0.1414955601
   15      O      -1.3411329427    -1.6395260522    -0.3766003013
   16      O       4.2441215134    -1.4260490560     1.1469844018
   17      O       3.5900721766    -0.5888861387    -1.4497345774
   18      C       5.0016559052    -2.6465227271     0.7887679774
   19      C       2.2478818446     2.0714471686     0.2231718433
   20      C       1.2144596744     2.5762318438     1.3088888317
   21      C       1.6345389875     1.7097429730     2.5536858162
   22      C       2.7771842197     0.8163384529     1.9276069352
   23      O       3.4629985309     1.7475877001     1.0001769203
   24      H       0.6754021691     0.6524485372    -0.5490776612
   25      H       1.1361426849    -0.6173036112     1.4262547142
   26      H       2.4864877833     2.8026972564    -0.5733169850
   27      H       1.3415963233     3.6538160187     1.4989468117
   28      H       0.1746040131     2.3903212504     0.9947513582
   29      H       2.0361534309     2.3386702842     3.3640354949
   30      H       0.8053289395     1.1028423813     2.9512344769
   31      H       3.4985213909     0.3849657008     2.6472832667
   32      O      -2.7052514286    -0.2550598292    -2.5550643334
   33      C      -0.3859617715    -2.7692220582    -0.5415220406
   34      C      -3.7223382269    -0.6537367495     1.6016099152
   35      C      -4.6743504933     0.4738265482     2.1657168242
   36      C      -5.1994367779     1.1249627115     0.8321492455
   37      C      -4.4178831971     0.2765082989    -0.2445361214
   38      O      -4.3787471461    -1.0806707725     0.3483423609
   39      H      -2.0008448551     0.7684350849     1.8157271952
   40      H      -2.8053982555     1.8290699507    -0.1365734566
   41      H      -0.7333568693    -3.6382315516     0.0525669113
   42      H      -3.5646340886    -1.5176949151     2.2762524570
   43      H      -5.4948569823     0.0269029336     2.7492386915
   44      H      -4.1338825811     1.1888904493     2.8064562539
   45      H      -6.2859933260     0.9847031309     0.7159615612
   46      H      -4.9722496173     2.2007467452     0.7627496563
   47      H      -4.8659623781     0.2408931890    -1.2565960819
   48      H       0.6768463621    -2.5320146617    -0.2501374351
   49      H      -0.4350726582    -3.0281474326    -1.6148621013
   50      H       6.0052443657    -2.5255060244     1.2360314611
   51      H       5.0931724979    -2.7479482849    -0.3119251493
   52      H       4.5189221888    -3.5602843963     1.1918306159
   53      H       1.1588403506     1.9437597515    -3.9868441281
   54      H       1.0073322520     2.3225515744    -2.2366540938
   55      H      -0.9132213376     0.8623865940    -3.7181379255
   56      H       0.0558046069    -0.4677044542    -2.9972454448
 ----------------------------------------------------------------

    9   -1510.2938813577      6.27E-09 Convergence criterion met
 Total energy in the final basis set = -1510.29388136
 Final energy is   -1510.29388135771
 **  OPTIMIZATION CONVERGED  **

                    Orbital Energies (a.u.)
 --------------------------------------------------------------

 Alpha MOs
 -- Occupied --
-18.947 -18.945 -18.940 -18.926 -18.896 -18.886 -18.883 -18.883
-18.881 -18.857 -10.113 -10.110 -10.103 -10.093 -10.088 -10.084
-10.068 -10.065 -10.059 -10.053 -10.051 -10.048 -10.047 -10.040
-10.027 -10.026 -10.025 -10.020 -10.016 -10.015  -1.026  -1.016
 -1.012  -0.998  -0.978  -0.966  -0.950  -0.943  -0.941  -0.923
 -0.772  -0.757  -0.733  -0.721  -0.717  -0.709  -0.702  -0.655
 -0.651  -0.623  -0.598  -0.592  -0.553  -0.545  -0.543  -0.535
 -0.521  -0.511  -0.495  -0.482  -0.475  -0.466  -0.456  -0.444
 -0.435  -0.430  -0.427  -0.413  -0.411  -0.407  -0.404  -0.402
 -0.399  -0.392  -0.378  -0.377  -0.364  -0.363  -0.357  -0.355
 -0.349  -0.340  -0.332  -0.331  -0.329  -0.325  -0.316  -0.315
 -0.314  -0.313  -0.308  -0.306  -0.302  -0.290  -0.285  -0.276
 -0.268  -0.260  -0.251  -0.249  -0.241  -0.238  -0.229  -0.190
 -0.183  -0.179  -0.166  -0.164  -0.158  -0.152  -0.152  -0.141
 -0.136

          Ground-State Mulliken Net Atomic Charges

     Atom                 Charge (a.u.)
  ----------------------------------------
      1 O                    -0.219355
      2 C                     0.214958
      3 C                    -0.079885
      4 C                    -0.080345
      5 C                     0.223387
      6 O                    -0.182391
      7 C                    -0.052300
      8 C                    -0.048621
      9 O                    -0.168363
     10 C                     0.210470
     11 C                    -0.101831
     12 C                    -0.097629
     13 C                     0.223877
     14 O                    -0.232086
     15 O                    -0.166704
     16 O                    -0.164798
     17 O                    -0.194391
     18 C                    -0.126197
     19 C                     0.022459
     20 C                    -0.144739
     21 C                    -0.144068
     22 C                     0.024685
     23 O                    -0.189683
     24 H                     0.099546
     25 H                     0.102939
     26 H                     0.076120
     27 H                     0.075371
     28 H                     0.070092
     29 H                     0.075837
     30 H                     0.075867
     31 H                     0.089787
     32 O                    -0.206905
     33 C                    -0.148786
     34 C                     0.026233
     35 C                    -0.143810
     36 C                    -0.143976
     37 C                     0.025559
     38 O                    -0.185935
     39 H                     0.084232
     40 H                     0.083450
     41 H                     0.081701
     42 H                     0.085484
     43 H                     0.079999
     44 H                     0.074302
     45 H                     0.079869
     46 H                     0.073319
     47 H                     0.091403
     48 H                     0.121628
     49 H                     0.083751
     50 H                     0.088647
     51 H                     0.094668
     52 H                     0.087607
     53 H                     0.095856
     54 H                     0.089855
     55 H                     0.094914
     56 H                     0.094927
  ----------------------------------------
  Sum of atomic charges =     0.000000

                    Cartesian Multipole Moments
 -----------------------------------------------------------------
    Charge (ESU x 10^10)
                -0.0000
    Dipole Moment (Debye)
         X      -2.7984      Y       3.0333      Z       0.8389
       Tot       4.2113
    Quadrupole Moments (Debye-Ang)
        XX    -169.6525     XY     -10.1441     YY    -156.5132
        XZ      -2.3594     YZ      -4.5915     ZZ    -157.8881

 Total job time:  168.26s(wall), 8012.13s(cpu)
        *  Thank you very much for using Q-Chem.  Have a nice day.  *
