 Q-Chem 5.0, Q-Chem, Inc., Pleasanton, CA (2017)
 Q-Chem 5.0.1 for Intel X86 EM64T Linux

User input:
--------------------------------------------------------------
$molecule
0  1
O -3.94934 -3.66094 2.70899
C -3.26408 -4.56952 2.26188
C -3.36658 -6.02376 2.66595
C -4.11753 -6.96688 1.71177
C -4.52809 -6.38795 0.37597
O -5.81638 -5.93906 0.44105
C -6.40422 -5.72606 -0.84672
C -7.75911 -5.04147 -0.69931
O -8.57992 -5.32954 -1.84219
C -8.64337 -4.34875 -2.77663
C -8.59512 -2.96269 -2.17899
C -8.5651 -1.81749 -3.20167
C -8.94239 -2.18947 -4.62152
O -9.02961 -3.32869 -5.05643
O -2.45849 -4.30457 1.19835
O -9.10501 -1.15216 -5.48548
O -7.83499 -4.62076 -3.65423
C -9.42074 -1.2934 -6.82056
C -9.83134 -2.58854 -1.34142
C -9.46689 -1.48161 -0.35429
C -9.29842 -0.30745 -1.29717
C -9.71002 -0.95675 -2.62394
O -10.66802 -1.91736 -2.24924
H -7.63878 -2.78651 -1.64615
H -7.60023 -1.26304 -3.25189
H -10.2829 -3.45334 -0.80854
H -10.36372 -1.30159 0.28091
H -8.59273 -1.69497 0.2976
H -10.02643 0.48199 -1.00563
H -8.2732 0.11893 -1.34901
H -10.0616 -0.17655 -3.33416
O -3.9191 -6.582 -0.67176
C -2.30233 -3.05793 0.63002
C -1.99109 -6.7011 2.75464
C -2.06959 -7.93358 3.65499
C -2.82689 -8.88757 2.75678
C -2.99929 -8.01923 1.50647
O -1.81844 -7.25382 1.47444
H -3.86483 -6.02153 3.6617
H -5.00218 -7.46867 2.16634
H -1.89874 -2.34386 1.37935
H -1.19173 -6.0127 3.10721
H -1.03704 -8.32498 3.7973
H -2.53462 -7.743 4.64622
H -2.15999 -9.74611 2.51751
H -3.79083 -9.26303 3.16284
H -3.18283 -8.67097 0.6237
H -3.2767 -2.68876 0.24424
H -1.5883 -3.13101 -0.21568
H -9.49364 -0.28884 -7.28533
H -10.39838 -1.80991 -6.92942
H -8.62922 -1.87267 -7.34236
H -8.25158 -5.65119 0.08859
H -7.7871 -4.08187 -0.15479
H -6.53458 -6.71354 -1.34574
H -5.77317 -5.06771 -1.4859
$end

$opt
CONSTRAINT
tors           1           2           3           4    +101.496
tors           3           4           5           6     -95.320
tors           4           5           6           7    -163.519
tors           5           6           7           8    -171.926
tors           6           7           8           9    -155.519
tors           7           8           9          10    -100.390
tors           8           9          10          11     -34.562
tors           9          10          11          12    +175.926
tors          11          12          13          14     -13.758
ENDCONSTRAINT
$end

$rem
JOBTYPE                   OPT
METHOD                    B3LYP
DFT_D                     d3_op
BASIS                     STO-3G
GEOM_OPT_MAX_CYCLES       100
GEOM_OPT_TOL_GRADIENT     300
GEOM_OPT_TOL_DISPLACEMENT 1200
GEOM_OPT_TOL_ENERGY       100
SYMMETRY                  False
THRESH                    12
SCF_CONVERGENCE           8
MAX_SUB_FILE_NUM          128
MEM_STATIC                400
MEM_TOTAL                 4000
$end
--------------------------------------------------------------

   16   -1510.0440558847      4.10E-09 Convergence criterion met
 Total energy in the final basis set = -1510.04405588
   15   -1510.1250266249      3.73E-09 Convergence criterion met
 Total energy in the final basis set = -1510.12502662
   15   -1510.1713840436      4.16E-09 Convergence criterion met
 Total energy in the final basis set = -1510.17138404
   14   -1510.2005861475      8.53E-09 Convergence criterion met
 Total energy in the final basis set = -1510.20058615
   14   -1510.2177172996      4.32E-09 Convergence criterion met
 Total energy in the final basis set = -1510.21771730
   14   -1510.2287937943      4.59E-09 Convergence criterion met
 Total energy in the final basis set = -1510.22879379
   13   -1510.2364045036      6.49E-09 Convergence criterion met
 Total energy in the final basis set = -1510.23640450
   13   -1510.2417289324      2.17E-09 Convergence criterion met
   11   -1510.2557952965      8.64E-09 Convergence criterion met
 Total energy in the final basis set = -1510.25579530
   12   -1510.2559008181      4.61E-09 Convergence criterion met
 Total energy in the final basis set = -1510.25590082
   11   -1510.2559643538      6.85E-09 Convergence criterion met
 Total energy in the final basis set = -1510.25596435
   11   -1510.2559830910      7.03E-09 Convergence criterion met
 Total energy in the final basis set = -1510.25598309
    9   -1510.2559870181      8.78E-09 Convergence criterion met
 Total energy in the final basis set = -1510.25598702
    9   -1510.2559903306      9.48E-09 Convergence criterion met
 Total energy in the final basis set = -1510.25599033

             Standard Nuclear Orientation (Angstroms)
    I     Atom           X                Y                Z
 ----------------------------------------------------------------
    1      O       3.2290287801    -2.5323621281     0.4558118563
    2      C       3.9232156314    -1.5464173817     0.7894177812
    3      C       4.9100187717    -0.7383234272    -0.1210767976
    4      C       4.2931024570     0.6389656071    -0.6339745197
    5      C       2.8719550109     0.9441139919    -0.0422275932
    6      O       1.8876972649     0.4917488424    -0.9863407910
    7      C       0.5662222350     1.0943721173    -0.6823982507
    8      C      -0.4766433235     0.3877696357    -1.6227555170
    9      O      -1.6407081980     1.2738056020    -1.8254262544
   10      C      -2.8223691297     0.9941962549    -1.0387082775
   11      C      -3.1621849080    -0.5181499859    -0.7065833850
   12      C      -4.4115145741    -0.7102672573     0.2396234698
   13      C      -4.7283274255     0.4393373582     1.2612738450
   14      O      -4.0134524866     1.4001970104     1.6133361494
   15      O       3.9031469358    -0.9578258266     2.0922027236
   16      O      -6.0370898976     0.1820624823     1.7895969460
   17      O      -3.6276969526     1.9394299983    -0.9077052979
   18      C      -6.3933184750     1.2207690644     2.7826185586
   19      C      -3.7657958829    -1.1090005283    -2.0590331606
   20      C      -4.0744870574    -2.6518865059    -1.8959033878
   21      C      -5.4353727205    -2.6156834256    -1.1045895436
   22      C      -5.5566645728    -1.0705459838    -0.8103886847
   23      O      -5.1019191748    -0.4674066149    -2.0841288206
   24      H      -2.2958417067    -1.0839150238    -0.3307352503
   25      H      -4.2285745053    -1.6045388415     0.8662024191
   26      H      -3.1901510387    -0.8390364248    -2.9660529607
   27      H      -4.1868080678    -3.1304429190    -2.8814911707
   28      H      -3.2769469349    -3.1720456112    -1.3410032403
   29      H      -6.2744226687    -2.9512739782    -1.7351618085
   30      H      -5.4153821833    -3.2224468118    -0.1854118152
   31      H      -6.5651446115    -0.7065325221    -0.5348596757
   32      O       2.5990673682     1.5374929231     1.0225238767
   33      C       2.9187475975    -1.6566189971     2.9497025199
   34      C       6.1990928255    -0.2166080990     0.6470459284
   35      C       7.2778329349     0.1939827953    -0.4326028223
   36      C       6.6719183288     1.5454698540    -0.9666027184
   37      C       5.3688230401     1.6664851924    -0.0829301331
   38      O       5.7688224408     1.0800644230     1.2155260960
   39      H       5.1760012087    -1.3853600988    -0.9757809143
   40      H       4.2204834307     0.6512558924    -1.7356846531
   41      H       3.1680148674    -2.7310286814     3.0688585729
   42      H       6.5609524165    -0.8895641260     1.4480472831
   43      H       8.2583754569     0.3509762017     0.0443439659
   44      H       7.3864786163    -0.5663410538    -1.2224333463
   45      H       7.3462540028     2.3949851906    -0.7743321869
   46      H       6.4426395027     1.5130939601    -2.0437265513
   47      H       4.9840602532     2.6944288069     0.0618089823
   48      H       1.8922250579    -1.5769022881     2.5371615205
   49      H       2.9616106492    -1.1533169657     3.9328034852
   50      H      -7.3847626583     0.9357102010     3.1803109651
   51      H      -6.4554290364     2.2253959789     2.3163585821
   52      H      -5.6577009623     1.2636177723     3.6115537102
   53      H      -0.0063018475     0.2614728590    -2.6218981155
   54      H      -0.7274281456    -0.6179522562    -1.2383777408
   55      H       0.5778395389     2.1841631546    -0.9051602984
   56      H       0.2980953493     0.9658646534     0.3885680015
 ----------------------------------------------------------------

    9   -1510.2559912946      6.92E-09 Convergence criterion met
 Total energy in the final basis set = -1510.25599129
 Final energy is   -1510.25599129463
 **  OPTIMIZATION CONVERGED  **

                    Orbital Energies (a.u.)
 --------------------------------------------------------------

 Alpha MOs
 -- Occupied --
-18.936 -18.932 -18.930 -18.927 -18.891 -18.889 -18.881 -18.878
-18.875 -18.874 -10.101 -10.099 -10.098 -10.098 -10.079 -10.073
-10.065 -10.064 -10.062 -10.061 -10.061 -10.060 -10.042 -10.040
-10.039 -10.039 -10.025 -10.022 -10.021 -10.020  -1.015  -1.010
 -1.009  -1.002  -0.973  -0.970  -0.941  -0.936  -0.935  -0.930
 -0.766  -0.764  -0.727  -0.724  -0.714  -0.709  -0.702  -0.660
 -0.660  -0.612  -0.602  -0.587  -0.548  -0.547  -0.542  -0.538
 -0.519  -0.514  -0.485  -0.477  -0.468  -0.462  -0.459  -0.443
 -0.438  -0.433  -0.428  -0.414  -0.412  -0.410  -0.408  -0.401
 -0.398  -0.380  -0.377  -0.373  -0.366  -0.357  -0.356  -0.350
 -0.346  -0.344  -0.333  -0.332  -0.330  -0.328  -0.317  -0.310
 -0.309  -0.308  -0.304  -0.300  -0.298  -0.293  -0.284  -0.279
 -0.274  -0.256  -0.253  -0.251  -0.241  -0.236  -0.234  -0.180
 -0.177  -0.175  -0.170  -0.158  -0.157  -0.150  -0.146  -0.144
 -0.140

          Ground-State Mulliken Net Atomic Charges

     Atom                 Charge (a.u.)
  ----------------------------------------
      1 O                    -0.216326
      2 C                     0.203293
      3 C                    -0.078809
      4 C                    -0.078270
      5 C                     0.205385
      6 O                    -0.177597
      7 C                    -0.050539
      8 C                    -0.048327
      9 O                    -0.174354
     10 C                     0.212340
     11 C                    -0.082601
     12 C                    -0.078826
     13 C                     0.212840
     14 O                    -0.206414
     15 O                    -0.161814
     16 O                    -0.174169
     17 O                    -0.186259
     18 C                    -0.128511
     19 C                     0.022882
     20 C                    -0.145643
     21 C                    -0.141662
     22 C                     0.026178
     23 O                    -0.187160
     24 H                     0.077798
     25 H                     0.082186
     26 H                     0.083474
     27 H                     0.079439
     28 H                     0.072662
     29 H                     0.078965
     30 H                     0.074263
     31 H                     0.091997
     32 O                    -0.202890
     33 C                    -0.126949
     34 C                     0.026731
     35 C                    -0.143879
     36 C                    -0.144256
     37 C                     0.026512
     38 O                    -0.182352
     39 H                     0.084462
     40 H                     0.086178
     41 H                     0.087525
     42 H                     0.085201
     43 H                     0.078209
     44 H                     0.073295
     45 H                     0.078662
     46 H                     0.073424
     47 H                     0.086605
     48 H                     0.086607
     49 H                     0.094237
     50 H                     0.089312
     51 H                     0.091594
     52 H                     0.088364
     53 H                     0.091963
     54 H                     0.083899
     55 H                     0.091140
     56 H                     0.089986
  ----------------------------------------
  Sum of atomic charges =    -0.000000

                    Cartesian Multipole Moments
 -----------------------------------------------------------------
    Charge (ESU x 10^10)
                 0.0000
    Dipole Moment (Debye)
         X       1.1463      Y      -3.4722      Z      -0.1446
       Tot       3.6594
    Quadrupole Moments (Debye-Ang)
        XX    -148.6922     XY       9.1962     YY    -164.7744
        XZ     -17.5000     YZ      -2.0336     ZZ    -157.4151

 Total job time:  91.86s(wall), 4369.92s(cpu)
        *  Thank you very much for using Q-Chem.  Have a nice day.  *
