 Q-Chem 5.0, Q-Chem, Inc., Pleasanton, CA (2017)
 Q-Chem 5.0.1 for Intel X86 EM64T Linux

User input:
--------------------------------------------------------------
$molecule
0  1
O -3.94934 -3.66094 2.70899
C -3.26408 -4.56952 2.26188
C -3.36658 -6.02376 2.66595
C -2.19991 -6.94559 2.27483
C -0.98108 -6.27557 1.6802
O -0.64383 -6.88444 0.50506
C -1.61811 -7.83601 0.064
C -0.99807 -8.79145 -0.95031
O -1.10873 -8.24105 -2.27231
C -0.85902 -9.10576 -3.28674
C -1.75432 -8.88419 -4.48256
C -1.5391 -7.55127 -5.2142
C -0.25766 -6.81399 -4.881
O 0.1102 -5.76576 -5.39134
O -2.49574 -4.25647 1.1838
O 0.66621 -7.34324 -4.03365
O -0.08578 -10.05068 -3.18745
C 1.8713 -6.76647 -3.68215
C -1.53001 -9.87076 -5.65034
C -2.79313 -9.9464 -6.50745
C -2.76939 -8.58345 -7.16982
C -1.42377 -8.05431 -6.66104
O -0.63365 -9.20961 -6.51013
H -2.80061 -8.99876 -4.11852
H -2.37544 -6.84004 -5.03753
H -1.23449 -10.89094 -5.32248
H -2.60782 -10.72141 -7.28572
H -3.73049 -10.19368 -5.96428
H -2.74877 -8.72955 -8.2726
H -3.60309 -7.90382 -6.88893
H -1.02438 -7.27699 -7.34946
O -0.30189 -5.40142 2.20033
C -2.35434 -2.99142 0.65057
C -3.29074 -6.12264 4.20865
C -3.85845 -7.46252 4.68639
C -2.7109 -8.38379 4.34421
C -1.74235 -7.38995 3.69323
O -1.91768 -6.23464 4.47258
H -4.37813 -6.35492 2.33101
H -2.83235 -7.79695 1.96
H -1.9264 -2.30284 1.41014
H -3.81872 -5.29047 4.72433
H -3.97686 -7.44474 5.79307
H -4.83027 -7.71414 4.20947
H -2.24833 -8.73682 5.29372
H -2.9704 -9.26258 3.71548
H -0.71675 -7.82447 3.69912
H -3.33829 -2.60807 0.30563
H -1.66525 -3.03863 -0.21742
H 2.40014 -7.43605 -2.97331
H 1.69589 -5.78819 -3.18581
H 2.50638 -6.62545 -4.58258
H 0.05167 -9.06891 -0.6972
H -1.61478 -9.72946 -0.96091
H -2.6051 -7.42383 -0.25341
H -1.61576 -8.67764 0.80062
$end

$opt
CONSTRAINT
tors           1           2           3           4    -164.604
tors           3           4           5           6    -128.325
tors           4           5           6           7      +8.426
tors           5           6           7           8    -161.053
tors           6           7           8           9     -87.653
tors           7           8           9          10    -166.469
tors           8           9          10          11    +142.904
tors           9          10          11          12     +66.316
tors          11          12          13          14    +177.401
ENDCONSTRAINT
$end

$rem
JOBTYPE                   OPT
METHOD                    B3LYP
DFT_D                     d3_op
BASIS                     STO-3G
GEOM_OPT_MAX_CYCLES       100
GEOM_OPT_TOL_GRADIENT     300
GEOM_OPT_TOL_DISPLACEMENT 1200
GEOM_OPT_TOL_ENERGY       100
SYMMETRY                  False
THRESH                    12
SCF_CONVERGENCE           8
MAX_SUB_FILE_NUM          128
MEM_STATIC                400
MEM_TOTAL                 4000
$end
--------------------------------------------------------------

   15   -1510.0688059911      8.53E-09 Convergence criterion met
 Total energy in the final basis set = -1510.06880599
   14   -1510.1508107539      9.06E-09 Convergence criterion met
 Total energy in the final basis set = -1510.15081075
   14   -1510.1995854344      9.08E-09 Convergence criterion met
 Total energy in the final basis set = -1510.19958543
   14   -1510.2281210466      4.75E-09 Convergence criterion met
 Total energy in the final basis set = -1510.22812105
   13   -1510.2424206508      8.86E-09 Convergence criterion met
 Total energy in the final basis set = -1510.24242065
   14   -1510.2490878806      3.93E-09 Convergence criterion met
 Total energy in the final basis set = -1510.24908788
   14   -1510.2521425082      3.34E-09 Convergence criterion met
 Total energy in the final basis set = -1510.25214251
   13   -1510.2537149107      8.73E-09 Convergence criterion met
   11   -1510.2553363826      8.35E-09 Convergence criterion met
 Total energy in the final basis set = -1510.25533638
   11   -1510.2553800197      6.45E-09 Convergence criterion met
 Total energy in the final basis set = -1510.25538002
   11   -1510.2553985011      2.54E-09 Convergence criterion met
 Total energy in the final basis set = -1510.25539850
    9   -1510.2554075729      9.39E-09 Convergence criterion met
 Total energy in the final basis set = -1510.25540757
    9   -1510.2554115107      5.89E-09 Convergence criterion met
 Total energy in the final basis set = -1510.25541151
    9   -1510.2554129081      6.59E-09 Convergence criterion met
 Total energy in the final basis set = -1510.25541291

             Standard Nuclear Orientation (Angstroms)
    I     Atom           X                Y                Z
 ----------------------------------------------------------------
    1      O      -4.7107957469    -2.2950634050     1.7465052221
    2      C      -4.0713957788    -1.3473654137     1.2433517288
    3      C      -4.5829896068     0.1147889858     0.9969693761
    4      C      -3.7058589834     0.9912110529     0.0139474699
    5      C      -2.8073014318     0.0971687171    -0.9435032460
    6      O      -1.3891247384     0.3210924931    -1.0712364312
    7      C      -0.7629507426     1.2827314935    -0.1428391481
    8      C       0.6044718199     1.7014516678    -0.7867715525
    9      O       1.6072737270     0.7119620819    -0.3340463100
   10      C       2.9469587217     1.1796092219    -0.6091708803
   11      C       3.8735826841     0.7358467828     0.5849256056
   12      C       4.1096147782    -0.8201447503     0.7651778557
   13      C       3.7261471942    -1.7330776679    -0.4567617968
   14      O       3.8806905353    -2.9720701757    -0.5242786727
   15      O      -2.6662846609    -1.3919301062     0.9608686901
   16      O       3.3070493633    -0.9296669579    -1.5589039253
   17      O       3.2383486649     1.9912301624    -1.5123611594
   18      C       2.9561786927    -1.7639365103    -2.7286918899
   19      C       5.3638332619     1.2638107224     0.4472370808
   20      C       5.9684440372     1.3610020494     1.9011617980
   21      C       6.1298979160    -0.1647283830     2.2533787204
   22      C       5.6962587644    -0.8463509687     0.8947938399
   23      O       6.1055085841     0.1259243747    -0.1449265458
   24      H       3.4040338152     1.1402371720     1.5007216684
   25      H       3.6117382843    -1.2155610894     1.6687465821
   26      H       5.4632380692     2.1653487773    -0.1883551430
   27      H       6.9433844540     1.8736968285     1.8781071289
   28      H       5.3038822611     1.8942189494     2.5994303672
   29      H       7.1739565578    -0.4182543676     2.4960281378
   30      H       5.4877730088    -0.4768662709     3.0925606529
   31      H       6.1446769103    -1.8403970565     0.7011466510
   32      O      -3.2951658129    -0.7534691425    -1.7197664826
   33      C      -2.1396666204    -2.7643865953     1.1308751861
   34      C      -6.0226398365     0.2174202768     0.3306990881
   35      C      -6.6470178065     1.5946662733     0.7815115641
   36      C      -5.7404975453     2.6019164255    -0.0209959341
   37      C      -4.8637203704     1.6104954890    -0.8881997066
   38      O      -5.7487125401     0.4429384517    -1.1063015438
   39      H      -4.6098513499     0.5961282560     1.9934818938
   40      H      -3.1397778929     1.7586552492     0.5610502261
   41      H      -2.5951221091    -3.4626656574     0.3996314878
   42      H      -6.6616406627    -0.6752671971     0.4769009794
   43      H      -7.6989837907     1.6589905092     0.4601411752
   44      H      -6.5990503970     1.7469323263     1.8715548779
   45      H      -6.3385500620     3.2600571383    -0.6709496901
   46      H      -5.1191733699     3.2293003094     0.6383688794
   47      H      -4.5179023737     2.0164064946    -1.8587451074
   48      H      -2.3285963914    -3.1466186280     2.1546991028
   49      H      -1.0513401847    -2.6973403901     0.9485755703
   50      H       2.6818999158    -1.0566755534    -3.5328587897
   51      H       2.0957336134    -2.4280054698    -2.5075536257
   52      H       3.8152429651    -2.3865980742    -3.0517727995
   53      H       0.4987225015     1.7132151286    -1.8950060585
   54      H       0.8847794144     2.7257966165    -0.4552858062
   55      H      -0.5900148210     0.8228806032     0.8561821697
   56      H      -1.3736170080     2.2000487589    -0.0096593495
 ----------------------------------------------------------------

    8   -1510.2554137286      7.64E-09 Convergence criterion met
 Total energy in the final basis set = -1510.25541373
 Final energy is   -1510.25541372865
 **  OPTIMIZATION CONVERGED  **

                    Orbital Energies (a.u.)
 --------------------------------------------------------------

 Alpha MOs
 -- Occupied --
-18.944 -18.942 -18.923 -18.913 -18.890 -18.887 -18.882 -18.875
-18.870 -18.857 -10.105 -10.102 -10.099 -10.094 -10.079 -10.074
-10.067 -10.066 -10.062 -10.061 -10.061 -10.057 -10.042 -10.040
-10.038 -10.035 -10.024 -10.022 -10.022 -10.020  -1.017  -1.016
 -1.001  -0.995  -0.972  -0.971  -0.942  -0.938  -0.933  -0.923
 -0.766  -0.764  -0.726  -0.725  -0.713  -0.706  -0.701  -0.664
 -0.663  -0.609  -0.603  -0.585  -0.549  -0.545  -0.542  -0.539
 -0.514  -0.511  -0.489  -0.486  -0.467  -0.466  -0.458  -0.445
 -0.435  -0.432  -0.420  -0.415  -0.413  -0.412  -0.411  -0.403
 -0.396  -0.389  -0.379  -0.378  -0.364  -0.359  -0.354  -0.352
 -0.341  -0.340  -0.333  -0.332  -0.330  -0.320  -0.317  -0.311
 -0.309  -0.307  -0.304  -0.300  -0.299  -0.295  -0.292  -0.278
 -0.270  -0.254  -0.252  -0.239  -0.235  -0.234  -0.233  -0.182
 -0.182  -0.166  -0.160  -0.159  -0.156  -0.149  -0.145  -0.145
 -0.133

          Ground-State Mulliken Net Atomic Charges

     Atom                 Charge (a.u.)
  ----------------------------------------
      1 O                    -0.209481
      2 C                     0.213649
      3 C                    -0.078966
      4 C                    -0.083632
      5 C                     0.214343
      6 O                    -0.173283
      7 C                    -0.043645
      8 C                    -0.043957
      9 O                    -0.185541
     10 C                     0.224127
     11 C                    -0.080280
     12 C                    -0.077036
     13 C                     0.214211
     14 O                    -0.214691
     15 O                    -0.169698
     16 O                    -0.161803
     17 O                    -0.215297
     18 C                    -0.123730
     19 C                     0.023241
     20 C                    -0.143061
     21 C                    -0.144795
     22 C                     0.024617
     23 O                    -0.190567
     24 H                     0.079882
     25 H                     0.085278
     26 H                     0.090317
     27 H                     0.078148
     28 H                     0.071942
     29 H                     0.078678
     30 H                     0.073181
     31 H                     0.086156
     32 O                    -0.208734
     33 C                    -0.126820
     34 C                     0.025857
     35 C                    -0.142288
     36 C                    -0.145683
     37 C                     0.025622
     38 O                    -0.181959
     39 H                     0.082824
     40 H                     0.075312
     41 H                     0.094919
     42 H                     0.090380
     43 H                     0.079269
     44 H                     0.072855
     45 H                     0.078817
     46 H                     0.070719
     47 H                     0.082956
     48 H                     0.090679
     49 H                     0.094919
     50 H                     0.096841
     51 H                     0.092799
     52 H                     0.093312
     53 H                     0.093439
     54 H                     0.080091
     55 H                     0.088190
     56 H                     0.077381
  ----------------------------------------
  Sum of atomic charges =    -0.000000

                    Cartesian Multipole Moments
 -----------------------------------------------------------------
    Charge (ESU x 10^10)
                -0.0000
    Dipole Moment (Debye)
         X       0.0626      Y       3.2324      Z       4.0513
       Tot       5.1832
    Quadrupole Moments (Debye-Ang)
        XX    -172.0315     XY     -12.5643     YY    -158.6758
        XZ       1.5052     YZ       3.6083     ZZ    -159.0252

 Total job time:  56.82s(wall), 2699.13s(cpu)
        *  Thank you very much for using Q-Chem.  Have a nice day.  *
