 Q-Chem 5.0, Q-Chem, Inc., Pleasanton, CA (2017)
 Q-Chem 5.0.1 for Intel X86 EM64T Linux

User input:
--------------------------------------------------------------
$molecule
0  1
O -4.7107957469 -2.295063405 1.7465052221
C -4.0713957788 -1.3473654137 1.2433517288
C -4.5829896068 0.1147889858 0.9969693761
C -3.7058589834 0.9912110529 0.0139474699
C -2.8073014318 0.0971687171 -0.943503246
O -1.3891247384 0.3210924931 -1.0712364312
C -0.7629507426 1.2827314935 -0.1428391481
C 0.6044718199 1.7014516678 -0.7867715525
O 1.607273727 0.7119620819 -0.33404631
C 2.9469587217 1.1796092219 -0.6091708803
C 3.8735826841 0.7358467828 0.5849256056
C 4.1096147782 -0.8201447503 0.7651778557
C 3.7261471942 -1.7330776679 -0.4567617968
O 3.8806905353 -2.9720701757 -0.5242786727
O -2.6662846609 -1.3919301062 0.9608686901
O 3.3070493633 -0.9296669579 -1.5589039253
O 3.2383486649 1.9912301624 -1.5123611594
C 2.9561786927 -1.7639365103 -2.7286918899
C 5.3638332619 1.2638107224 0.4472370808
C 5.9684440372 1.3610020494 1.901161798
C 6.129897916 -0.164728383 2.2533787204
C 5.6962587644 -0.8463509687 0.8947938399
O 6.1055085841 0.1259243747 -0.1449265458
H 3.4040338152 1.140237172 1.5007216684
H 3.6117382843 -1.2155610894 1.6687465821
H 5.4632380692 2.1653487773 -0.188355143
H 6.943384454 1.8736968285 1.8781071289
H 5.3038822611 1.8942189494 2.5994303672
H 7.1739565578 -0.4182543676 2.4960281378
H 5.4877730088 -0.4768662709 3.0925606529
H 6.1446769103 -1.8403970565 0.701146651
O -3.2951658129 -0.7534691425 -1.7197664826
C -2.1396666204 -2.7643865953 1.1308751861
C -6.0226398365 0.2174202768 0.3306990881
C -6.6470178065 1.5946662733 0.7815115641
C -5.7404975453 2.6019164255 -0.0209959341
C -4.8637203704 1.610495489 -0.8881997066
O -5.7487125401 0.4429384517 -1.1063015438
H -4.6098513499 0.596128256 1.9934818938
H -3.1397778929 1.7586552492 0.5610502261
H -2.5951221091 -3.4626656574 0.3996314878
H -6.6616406627 -0.6752671971 0.4769009794
H -7.6989837907 1.6589905092 0.4601411752
H -6.599050397 1.7469323263 1.8715548779
H -6.338550062 3.2600571383 -0.6709496901
H -5.1191733699 3.2293003094 0.6383688794
H -4.5179023737 2.0164064946 -1.8587451074
H -2.3285963914 -3.146618628 2.1546991028
H -1.0513401847 -2.6973403901 0.9485755703
H 2.6818999158 -1.0566755534 -3.5328587897
H 2.0957336134 -2.4280054698 -2.5075536257
H 3.8152429651 -2.3865980742 -3.0517727995
H 0.4987225015 1.7132151286 -1.8950060585
H 0.8847794144 2.7257966165 -0.4552858062
H -0.590014821 0.8228806032 0.8561821697
H -1.373617008 2.2000487589 -0.0096593495
$end

$rem
JOBTYPE                   OPT
METHOD                    B3LYP
DFT_D                     d3_op
BASIS                     STO-3G
GEOM_OPT_MAX_CYCLES       100
GEOM_OPT_TOL_GRADIENT     300
GEOM_OPT_TOL_DISPLACEMENT 1200
GEOM_OPT_TOL_ENERGY       100
SYMMETRY                  False
THRESH                    12
SCF_CONVERGENCE           8
MAX_SUB_FILE_NUM          128
MEM_STATIC                400
MEM_TOTAL                 4000
$end
--------------------------------------------------------------

   16   -1510.2552269404      6.25E-09 Convergence criterion met
 Total energy in the final basis set = -1510.25522694
   14   -1510.2603091892      2.75E-09 Convergence criterion met
 Total energy in the final basis set = -1510.26030919
   14   -1510.2641300514      3.30E-09 Convergence criterion met
 Total energy in the final basis set = -1510.26413005
   13   -1510.2672703441      6.97E-09 Convergence criterion met
 Total energy in the final basis set = -1510.26727034
   14   -1510.2699864055      2.14E-09 Convergence criterion met
 Total energy in the final basis set = -1510.26998641
   14   -1510.2727106818      5.84E-09 Convergence criterion met
 Total energy in the final basis set = -1510.27271068
   14   -1510.2723141483      2.71E-09 Convergence criterion met
 Total energy in the final basis set = -1510.27231415
   14   -1510.2765626638      5.72E-09 Convergence criterion met
   11   -1510.2936887246      8.89E-09 Convergence criterion met
 Total energy in the final basis set = -1510.29368872
   11   -1510.2937001300      4.66E-09 Convergence criterion met
 Total energy in the final basis set = -1510.29370013
   11   -1510.2937005176      5.05E-09 Convergence criterion met
 Total energy in the final basis set = -1510.29370052
   11   -1510.2937020877      2.53E-09 Convergence criterion met
 Total energy in the final basis set = -1510.29370209
    9   -1510.2937025525      9.59E-09 Convergence criterion met
 Total energy in the final basis set = -1510.29370255
    9   -1510.2937037168      6.42E-09 Convergence criterion met
 Total energy in the final basis set = -1510.29370372

             Standard Nuclear Orientation (Angstroms)
    I     Atom           X                Y                Z
 ----------------------------------------------------------------
    1      O       2.3073828664    -1.9810016872    -1.0393223670
    2      C       2.4433057503    -0.7568188184    -1.2365424749
    3      C       3.6209736345     0.1727475763    -0.7826143886
    4      C       3.4786275298     0.7338653773     0.7013184690
    5      C       2.1847810626     0.2839192255     1.4899328624
    6      O       0.9596842004     1.0165133915     1.3005988178
    7      C       0.9123290659     1.9294796915     0.1322312098
    8      C      -0.5470303797     2.4783180414     0.0494936052
    9      O      -1.3741715723     1.4351849463    -0.6047494585
   10      C      -2.7707807261     1.7037477382    -0.4231686964
   11      C      -3.5743790272     0.5792728625    -1.1686740091
   12      C      -3.1457088200    -0.8944905198    -0.7640945973
   13      C      -2.0117085108    -0.9424478464     0.3147712893
   14      O      -0.8777686415    -1.4690682186     0.1843063141
   15      O       1.5066134249     0.0502238768    -1.9710350641
   16      O      -2.4679805146    -0.3076299733     1.4979097592
   17      O      -3.2271067480     2.6865000801     0.1967268996
   18      C      -1.3833955640    -0.2811470290     2.5140961813
   19      C      -5.1019401422     0.5839885389    -0.7511134159
   20      C      -5.9100105711    -0.2522910892    -1.8184323614
   21      C      -5.4852879899    -1.7195194296    -1.4369299964
   22      C      -4.5284074420    -1.4520314176    -0.2077470532
   23      O      -5.1313400316    -0.2749529444     0.4555448399
   24      H      -3.4505913647     0.7340322592    -2.2567278166
   25      H      -2.7990465157    -1.4670558418    -1.6417544220
   26      H      -5.4996806970     1.5911595143    -0.5191636419
   27      H      -6.9931716216    -0.0993292041    -1.6877841595
   28      H      -5.6378885278     0.0162827609    -2.8518687904
   29      H      -6.3519703872    -2.3231570460    -1.1241049364
   30      H      -4.9690596227    -2.2411128812    -2.2587208226
   31      H      -4.4300516181    -2.2923137782     0.5066114903
   32      O       2.1660906912    -0.6230365113     2.3492190072
   33      C       0.3112889155    -0.7530069343    -2.3416737118
   34      C       4.9704149044    -0.6526763113    -0.6591100642
   35      C       6.1778438439     0.3625898920    -0.5799456268
   36      C       6.0356911794     0.8882225253     0.8967262652
   37      C       4.7629642054     0.0899838852     1.3816289090
   38      O       4.8955103911    -1.2193286894     0.7053724213
   39      H       3.7021359544     1.0028179697    -1.5067852300
   40      H       3.5415174080     1.8363347169     0.7033609451
   41      H      -0.1755979326    -1.1764624737    -1.4238891752
   42      H       5.0752870134    -1.4613143211    -1.4079082887
   43      H       7.1333360466    -0.1639174956    -0.7323336218
   44      H       6.0946894759     1.1674552568    -1.3279175043
   45      H       6.9118490362     0.6178854117     1.5072609453
   46      H       5.8921841941     1.9793662518     0.9504812927
   47      H       4.6679224635    -0.0507960164     2.4755776228
   48      H       0.5895540754    -1.5667296821    -3.0403138831
   49      H      -0.3731932520    -0.0467435561    -2.8452284027
   50      H      -1.7918061330     0.2916949552     3.3659776352
   51      H      -0.4690378992     0.2138303354     2.1039084207
   52      H      -1.1268179332    -1.3066330908     2.8471619516
   53      H      -0.9419734163     2.7196794989     1.0601697827
   54      H      -0.5594871390     3.4103132466    -0.5584533832
   55      H       1.1544226797     1.3659642425    -0.8086360294
   56      H       1.6118153935     2.7829280198     0.2673065273
 ----------------------------------------------------------------

    9   -1510.2937035374      3.28E-09 Convergence criterion met
 Total energy in the final basis set = -1510.29370354
 Final energy is   -1510.29370353742
 **  OPTIMIZATION CONVERGED  **

                    Orbital Energies (a.u.)
 --------------------------------------------------------------

 Alpha MOs
 -- Occupied --
-18.939 -18.939 -18.936 -18.931 -18.890 -18.887 -18.884 -18.881
-18.881 -18.873 -10.104 -10.103 -10.101 -10.099 -10.079 -10.069
-10.062 -10.061 -10.060 -10.058 -10.044 -10.043 -10.041 -10.040
-10.037 -10.034 -10.023 -10.022 -10.021 -10.020  -1.019  -1.013
 -1.008  -1.005  -0.972  -0.969  -0.945  -0.939  -0.937  -0.931
 -0.766  -0.764  -0.728  -0.725  -0.714  -0.707  -0.703  -0.655
 -0.646  -0.610  -0.602  -0.584  -0.552  -0.546  -0.541  -0.537
 -0.515  -0.511  -0.489  -0.484  -0.467  -0.462  -0.459  -0.442
 -0.434  -0.432  -0.425  -0.416  -0.412  -0.410  -0.407  -0.401
 -0.391  -0.387  -0.372  -0.365  -0.364  -0.358  -0.355  -0.351
 -0.344  -0.341  -0.334  -0.332  -0.329  -0.325  -0.319  -0.312
 -0.310  -0.309  -0.305  -0.303  -0.295  -0.289  -0.283  -0.279
 -0.276  -0.258  -0.255  -0.250  -0.236  -0.234  -0.233  -0.190
 -0.182  -0.170  -0.168  -0.160  -0.158  -0.148  -0.146  -0.145
 -0.143

          Ground-State Mulliken Net Atomic Charges

     Atom                 Charge (a.u.)
  ----------------------------------------
      1 O                    -0.193061
      2 C                     0.208153
      3 C                    -0.081508
      4 C                    -0.083640
      5 C                     0.210597
      6 O                    -0.175335
      7 C                    -0.064646
      8 C                    -0.046925
      9 O                    -0.177053
     10 C                     0.214192
     11 C                    -0.078236
     12 C                    -0.079620
     13 C                     0.218157
     14 O                    -0.215664
     15 O                    -0.176837
     16 O                    -0.166659
     17 O                    -0.208713
     18 C                    -0.146923
     19 C                     0.024567
     20 C                    -0.143972
     21 C                    -0.144061
     22 C                     0.026647
     23 O                    -0.184489
     24 H                     0.082519
     25 H                     0.082648
     26 H                     0.090297
     27 H                     0.078412
     28 H                     0.072188
     29 H                     0.078491
     30 H                     0.073263
     31 H                     0.084666
     32 O                    -0.191097
     33 C                    -0.148278
     34 C                     0.026684
     35 C                    -0.144375
     36 C                    -0.144397
     37 C                     0.026709
     38 O                    -0.182235
     39 H                     0.083320
     40 H                     0.078424
     41 H                     0.119819
     42 H                     0.086964
     43 H                     0.079247
     44 H                     0.072347
     45 H                     0.079501
     46 H                     0.071694
     47 H                     0.091003
     48 H                     0.080071
     49 H                     0.080109
     50 H                     0.082943
     51 H                     0.115316
     52 H                     0.084940
     53 H                     0.098327
     54 H                     0.084740
     55 H                     0.116280
     56 H                     0.074489
  ----------------------------------------
  Sum of atomic charges =    -0.000000

                    Cartesian Multipole Moments
 -----------------------------------------------------------------
    Charge (ESU x 10^10)
                -0.0000
    Dipole Moment (Debye)
         X       0.9364      Y       3.0986      Z      -3.5601
       Tot       4.8117
    Quadrupole Moments (Debye-Ang)
        XX    -151.5418     XY      18.6716     YY    -162.5638
        XZ       6.0537     YZ       2.4499     ZZ    -157.4603

 Total job time:  112.89s(wall), 5379.16s(cpu)
        *  Thank you very much for using Q-Chem.  Have a nice day.  *
