 Q-Chem 5.0, Q-Chem, Inc., Pleasanton, CA (2017)
 Q-Chem 5.0.1 for Intel X86 EM64T Linux

User input:
--------------------------------------------------------------
$molecule
0  1
O -4.1750649865 -0.2249955283 2.9520154532
C -4.5557209797 -0.4550598152 1.7821908427
C -5.0601836206 0.6025061782 0.7410265037
C -4.1114495906 0.8187942717 -0.5191748915
C -2.8144291445 -0.0580777535 -0.5647044242
O -1.6862272441 0.8242078624 -0.7112478082
C -0.5104239451 0.0717579755 -1.2093905695
C 0.4784661387 -0.2955279966 -0.0393819359
O 1.8476187317 0.0136916757 -0.5215864049
C 2.8147750948 -0.8138938455 0.1306976791
C 4.136728506 -0.8170034871 -0.716871243
C 4.9356949767 0.5580649653 -0.8221682581
C 4.3257100402 1.7341780948 0.0309585978
O 3.1984948897 2.257248003 -0.1044355313
O -4.6694290022 -1.7610624821 1.2162339715
O 5.264604844 2.1422927017 1.0324296201
O 2.5825783348 -1.4943303557 1.1540246451
C 4.6856194667 3.2323539941 1.850648102
C 5.2354400278 -1.7595078468 -0.0692543611
C 6.2522940391 -2.1742562858 -1.2016484034
C 7.0318497392 -0.8228060699 -1.4082297288
C 6.3623940745 0.0956456566 -0.3084668984
O 6.0287864668 -0.8462730348 0.7851359148
H 3.8653809162 -1.1621367312 -1.7316926363
H 4.9660155068 0.8964581162 -1.8744849429
H 4.8132665273 -2.5861179113 0.5348804056
H 6.9199912001 -2.9750247929 -0.8456277692
H 5.743190177 -2.5182538222 -2.1160807885
H 8.1083136642 -0.9414304557 -1.2071529571
H 6.9068130842 -0.4114747945 -2.4227019405
H 6.9953086411 0.9203743838 0.0690988363
O -2.7182688926 -1.3038455548 -0.5907612159
C -4.1684000016 -2.7760219474 2.1704721733
C -6.4013890152 0.1369718627 0.0205690342
C -7.0692669811 1.3981430222 -0.6586188105
C -6.1258232835 1.6104575424 -1.9001533582
C -5.0982226036 0.4271274001 -1.7054482577
O -5.9183342642 -0.6596860888 -1.1295654164
H -5.1979125733 1.5540813315 1.2844043174
H -3.7966611399 1.8748052887 -0.5897320515
H -4.7053991389 -2.7285405637 3.139902751
H -7.0761128273 -0.4701352228 0.6544239796
H -8.0998632157 1.1641278048 -0.9698897901
H -7.0933844044 2.2705286822 0.0137129323
H -6.6723488082 1.493067731 -2.8494848024
H -5.6307502734 2.5946437174 -1.8956646172
H -4.5933047749 0.0830023095 -2.6287849575
H -3.0828586752 -2.6507931811 2.3608054178
H -4.3467549714 -3.7559492583 1.6912616649
H 5.4630023974 3.5046794254 2.5879246944
H 3.770229223 2.9000257608 2.3814020971
H 4.4314164628 4.1177488078 1.2326390085
H 0.2358437082 0.3300284789 0.8491899051
H 0.3930943606 -1.3615371568 0.2588887848
H 0.0189799624 0.7521839453 -1.9090851048
H -0.8356974233 -0.8444825046 -1.7433561368
$end

$rem
JOBTYPE                   OPT
METHOD                    B3LYP
DFT_D                     d3_op
BASIS                     STO-3G
GEOM_OPT_MAX_CYCLES       100
GEOM_OPT_TOL_GRADIENT     300
GEOM_OPT_TOL_DISPLACEMENT 1200
GEOM_OPT_TOL_ENERGY       100
SYMMETRY                  False
THRESH                    12
SCF_CONVERGENCE           8
MAX_SUB_FILE_NUM          128
MEM_STATIC                400
MEM_TOTAL                 4000
$end
--------------------------------------------------------------

   16   -1510.2689853347      4.95E-09 Convergence criterion met
 Total energy in the final basis set = -1510.26898533
   14   -1510.2726403386      4.31E-09 Convergence criterion met
 Total energy in the final basis set = -1510.27264034
   13   -1510.2743917344      7.86E-09 Convergence criterion met
 Total energy in the final basis set = -1510.27439173
   14   -1510.2758425597      3.56E-09 Convergence criterion met
 Total energy in the final basis set = -1510.27584256
   14   -1510.2771421546      6.62E-09 Convergence criterion met
 Total energy in the final basis set = -1510.27714215
   14   -1510.2779918835      4.54E-09 Convergence criterion met
 Total energy in the final basis set = -1510.27799188
   14   -1510.2789893747      2.74E-09 Convergence criterion met
 Total energy in the final basis set = -1510.27898937
   14   -1510.2804032747      6.63E-09 Convergence criterion met
    9   -1510.2970645685      5.96E-09 Convergence criterion met
 Total energy in the final basis set = -1510.29706457
    9   -1510.2970671802      8.22E-09 Convergence criterion met
 Total energy in the final basis set = -1510.29706718
   10   -1510.2970790123      9.87E-09 Convergence criterion met
 Total energy in the final basis set = -1510.29707901
   11   -1510.2970874032      4.77E-09 Convergence criterion met
 Total energy in the final basis set = -1510.29708740
   11   -1510.2970921751      3.39E-09 Convergence criterion met
 Total energy in the final basis set = -1510.29709218
   11   -1510.2970986073      4.30E-09 Convergence criterion met
 Total energy in the final basis set = -1510.29709861

             Standard Nuclear Orientation (Angstroms)
    I     Atom           X                Y                Z
 ----------------------------------------------------------------
    1      O      -0.9806876308    -0.0741253074     1.1141768855
    2      C      -2.1835007791    -0.3633066515     0.8906296856
    3      C      -3.3863487836     0.6456909909     0.8385679990
    4      C      -3.5732532460     1.3362119651    -0.5886732985
    5      C      -2.5125004133     0.8571198390    -1.6383064262
    6      O      -1.3125687084     1.6120999723    -1.4316035049
    7      C      -0.2028892752     1.0436667192    -2.2413546865
    8      C       0.1702027129    -0.3917151082    -1.7148660026
    9      O       1.6425197820    -0.5352167526    -1.7756565960
   10      C       2.1318752950    -1.2849961776    -0.6602588703
   11      C       3.6925571132    -1.1421146477    -0.6897762585
   12      C       4.1533121518     0.3798274149    -0.7069153461
   13      C       2.9475471023     1.3782598986    -0.5736038506
   14      O       2.6069691909     2.2745616765    -1.3812533406
   15      O      -2.6324940170    -1.6774750579     0.6012496908
   16      O       2.2747882355     1.0845481519     0.6491232774
   17      O       1.4196915658    -1.9182146857     0.1501131444
   18      C       1.1268775031     1.9982073628     0.8810365329
   19      C       4.3856696756    -1.6652368759     0.6337511663
   20      C       5.9183580761    -1.8801061513     0.3252843824
   21      C       6.4186752419    -0.3892855203     0.2431583936
   22      C       5.0904928844     0.4022153997     0.5764431205
   23      O       4.3826376013    -0.4840250939     1.5274932737
   24      H       4.0706637389    -1.6727154962    -1.5830674962
   25      H       4.7015102104     0.6288878643    -1.6321104108
   26      H       3.8618018006    -2.5148617940     1.1136769958
   27      H       6.4041401016    -2.4223220301     1.1523000771
   28      H       6.0831343549    -2.4391694906    -0.6097853380
   29      H       7.1924342555    -0.1793179362     0.9983643426
   30      H       6.8158853851    -0.1287634396    -0.7510177367
   31      H       5.2383811340     1.4059593886     1.0196977626
   32      O      -2.6426237423    -0.0415831039    -2.4973028331
   33      C      -1.5341328511    -2.6741179103     0.7233518793
   34      C      -4.7949133171    -0.0640405076     1.0047109650
   35      C      -5.8823814194     1.0416852206     1.3090144769
   36      C      -6.0692818847     1.6885973733    -0.1134441254
   37      C      -5.0356482111     0.8518786661    -0.9639327992
   38      O      -5.1168683926    -0.5031926095    -0.3725053641
   39      H      -3.2080057640     1.4107597432     1.6153246183
   40      H      -3.5052712837     2.4349500750    -0.4959893427
   41      H      -1.5009704687    -3.0588265331     1.7629122233
   42      H      -4.7911562133    -0.9284618552     1.6957541852
   43      H      -6.8137962375     0.5741756909     1.6656723408
   44      H      -5.5396020477     1.7664678418     2.0648652536
   45      H      -7.0916765092     1.5363240517    -0.4941363933
   46      H      -5.8445675049     2.7670029659    -0.1255704591
   47      H      -5.2321902821     0.8082478101    -2.0526239948
   48      H      -0.5327225259    -2.2601773766     0.4632185677
   49      H      -1.7978834333    -3.5020546195     0.0400038563
   50      H       1.3134929283     2.5537039979     1.8206488489
   51      H       0.2078051730     1.3764182233     0.9828865515
   52      H       1.0326305514     2.7101188460     0.0385663082
   53      H      -0.1635298040    -0.4792578738    -0.6570088565
   54      H      -0.3224778511    -1.1821705937    -2.3188848928
   55      H       0.6654792467     1.7216615577    -2.0841401673
   56      H      -0.4699254676     1.0179381263    -3.3184404249
 ----------------------------------------------------------------

    9   -1510.2970985573      6.61E-09 Convergence criterion met
 Total energy in the final basis set = -1510.29709856
 Final energy is   -1510.29709855733
 **  OPTIMIZATION CONVERGED  **

                    Orbital Energies (a.u.)
 --------------------------------------------------------------

 Alpha MOs
 -- Occupied --
-18.946 -18.933 -18.932 -18.924 -18.888 -18.886 -18.885 -18.884
-18.878 -18.865 -10.111 -10.105 -10.100 -10.094 -10.063 -10.062
-10.060 -10.059 -10.058 -10.057 -10.051 -10.044 -10.041 -10.037
-10.034 -10.032 -10.022 -10.021 -10.019 -10.018  -1.021  -1.016
 -1.011  -1.000  -0.971  -0.967  -0.943  -0.941  -0.936  -0.926
 -0.766  -0.762  -0.728  -0.723  -0.711  -0.704  -0.694  -0.659
 -0.645  -0.616  -0.596  -0.582  -0.547  -0.544  -0.538  -0.535
 -0.515  -0.508  -0.484  -0.475  -0.468  -0.459  -0.453  -0.436
 -0.434  -0.432  -0.428  -0.418  -0.409  -0.407  -0.402  -0.396
 -0.392  -0.380  -0.372  -0.367  -0.364  -0.360  -0.351  -0.348
 -0.342  -0.337  -0.334  -0.332  -0.328  -0.328  -0.319  -0.311
 -0.308  -0.306  -0.304  -0.298  -0.290  -0.285  -0.283  -0.283
 -0.274  -0.261  -0.250  -0.243  -0.236  -0.234  -0.231  -0.190
 -0.180  -0.174  -0.166  -0.160  -0.157  -0.152  -0.148  -0.144
 -0.140

          Ground-State Mulliken Net Atomic Charges

     Atom                 Charge (a.u.)
  ----------------------------------------
      1 O                    -0.216292
      2 C                     0.214267
      3 C                    -0.077610
      4 C                    -0.078525
      5 C                     0.202710
      6 O                    -0.172250
      7 C                    -0.056628
      8 C                    -0.064967
      9 O                    -0.176461
     10 C                     0.222008
     11 C                    -0.077183
     12 C                    -0.077060
     13 C                     0.212174
     14 O                    -0.224744
     15 O                    -0.159331
     16 O                    -0.169225
     17 O                    -0.209578
     18 C                    -0.151479
     19 C                     0.024848
     20 C                    -0.143512
     21 C                    -0.144371
     22 C                     0.026084
     23 O                    -0.183971
     24 H                     0.085168
     25 H                     0.084526
     26 H                     0.089142
     27 H                     0.077790
     28 H                     0.072577
     29 H                     0.077680
     30 H                     0.073332
     31 H                     0.082919
     32 O                    -0.209945
     33 C                    -0.142853
     34 C                     0.026238
     35 C                    -0.144434
     36 C                    -0.143949
     37 C                     0.025400
     38 O                    -0.184372
     39 H                     0.086662
     40 H                     0.086935
     41 H                     0.083616
     42 H                     0.087960
     43 H                     0.078586
     44 H                     0.073198
     45 H                     0.078677
     46 H                     0.073513
     47 H                     0.087973
     48 H                     0.117960
     49 H                     0.089409
     50 H                     0.078071
     51 H                     0.112432
     52 H                     0.090811
     53 H                     0.102448
     54 H                     0.088066
     55 H                     0.107353
     56 H                     0.088208
  ----------------------------------------
  Sum of atomic charges =    -0.000000

                    Cartesian Multipole Moments
 -----------------------------------------------------------------
    Charge (ESU x 10^10)
                -0.0000
    Dipole Moment (Debye)
         X       0.0791      Y       0.4772      Z       0.4728
       Tot       0.6765
    Quadrupole Moments (Debye-Ang)
        XX    -143.7225     XY     -12.7538     YY    -157.0219
        XZ     -10.0035     YZ       2.1727     ZZ    -163.0393

 Total job time:  209.98s(wall), 10015.54s(cpu)
        *  Thank you very much for using Q-Chem.  Have a nice day.  *
