 Q-Chem 5.0, Q-Chem, Inc., Pleasanton, CA (2017)
 Q-Chem 5.0.1 for Intel X86 EM64T Linux

User input:
--------------------------------------------------------------
$molecule
0  1
O -3.94934 -3.66094 2.70899
C -3.26408 -4.56952 2.26188
C -3.36658 -6.02376 2.66595
C -3.87743 -7.01323 1.60585
C -4.06002 -6.46795 0.20677
O -5.33453 -6.70735 -0.22188
C -5.47512 -6.62509 -1.6441
C -6.05623 -5.27092 -2.03739
O -7.09196 -5.44853 -3.01647
C -7.28879 -4.4001 -3.85384
C -8.03217 -4.783 -5.11139
C -9.48734 -5.22316 -4.89453
C -10.08646 -4.88284 -3.54473
O -9.69053 -5.30321 -2.4672
O -2.33383 -4.26453 1.31826
O -11.14128 -4.02094 -3.52805
O -6.85426 -3.27323 -3.64823
C -11.78956 -3.59691 -2.38664
C -8.23646 -3.63989 -6.1322
C -8.39166 -4.2325 -7.53103
C -9.74764 -4.89627 -7.40624
C -10.16638 -4.40483 -6.01384
O -9.5332 -3.15548 -5.88154
H -7.4208 -5.5764 -5.59897
H -9.61315 -6.32033 -5.0241
H -7.42121 -2.88429 -6.13009
H -8.47983 -3.37115 -8.23198
H -7.56974 -4.89647 -7.87516
H -10.41158 -4.48701 -8.19962
H -9.73824 -6.00706 -7.44897
H -11.27538 -4.406 -5.93421
O -3.16625 -5.99098 -0.48327
C -2.11161 -2.99728 0.82144
C -1.99612 -6.63865 2.99631
C -2.17291 -7.8695 3.88602
C -2.72502 -8.86457 2.88556
C -2.71017 -8.01817 1.60915
O -1.57782 -7.19672 1.77387
H -4.02731 -6.04624 3.56228
H -4.82568 -7.50064 1.93195
H -1.80402 -2.31315 1.64093
H -1.29995 -5.91278 3.47117
H -1.16154 -8.21119 4.20236
H -2.80368 -7.69836 4.78483
H -1.99707 -9.70035 2.78401
H -3.73259 -9.2696 3.1221
H -2.7137 -8.67403 0.71039
H -3.03228 -2.61137 0.33372
H -1.29937 -3.04012 0.06724
H -12.60633 -2.9017 -2.66949
H -11.07956 -3.06248 -1.71983
H -12.22825 -4.46548 -1.85056
H -6.57685 -4.85294 -1.14743
H -5.24297 -4.56177 -2.31244
H -6.24457 -7.39365 -1.87338
H -4.59281 -6.92743 -2.25326
$end

$opt
CONSTRAINT
tors           1           2           3           4    +112.679
tors           3           4           5           6    -125.409
tors           4           5           6           7    -161.053
tors           5           6           7           8     -99.691
tors           6           7           8           9    -134.951
tors           7           8           9          10    -152.723
tors           8           9          10          11    +161.053
tors           9          10          11          12     +66.316
tors          11          12          13          14     -62.669
ENDCONSTRAINT
$end

$rem
JOBTYPE                   OPT
METHOD                    B3LYP
DFT_D                     d3_op
BASIS                     STO-3G
GEOM_OPT_MAX_CYCLES       100
GEOM_OPT_TOL_GRADIENT     300
GEOM_OPT_TOL_DISPLACEMENT 1200
GEOM_OPT_TOL_ENERGY       100
SYMMETRY                  False
THRESH                    12
SCF_CONVERGENCE           8
MAX_SUB_FILE_NUM          128
MEM_STATIC                400
MEM_TOTAL                 4000
$end
--------------------------------------------------------------

   15   -1510.1436496696      7.19E-09 Convergence criterion met
 Total energy in the final basis set = -1510.14364967
   13   -1510.2126896134      9.47E-09 Convergence criterion met
 Total energy in the final basis set = -1510.21268961
   14   -1510.2489467124      6.13E-09 Convergence criterion met
 Total energy in the final basis set = -1510.24894671
   13   -1510.2634801153      7.20E-09 Convergence criterion met
 Total energy in the final basis set = -1510.26348012
   13   -1510.2671901106      7.93E-09 Convergence criterion met
 Total energy in the final basis set = -1510.26719011
   12   -1510.2682171987      8.05E-09 Convergence criterion met
 Total energy in the final basis set = -1510.26821720
   12   -1510.2686240927      7.19E-09 Convergence criterion met
 Total energy in the final basis set = -1510.26862409
   12   -1510.2687327497      4.35E-09 Convergence criterion met
   12   -1510.2690516571      4.03E-09 Convergence criterion met
 Total energy in the final basis set = -1510.26905166
   12   -1510.2690909651      3.89E-09 Convergence criterion met
 Total energy in the final basis set = -1510.26909097
   10   -1510.2691040177      9.96E-09 Convergence criterion met
 Total energy in the final basis set = -1510.26910402
    9   -1510.2691079327      7.54E-09 Convergence criterion met
 Total energy in the final basis set = -1510.26910793
    9   -1510.2691097501      3.62E-09 Convergence criterion met
 Total energy in the final basis set = -1510.26910975
    9   -1510.2691119368      2.85E-09 Convergence criterion met
 Total energy in the final basis set = -1510.26911194

             Standard Nuclear Orientation (Angstroms)
    I     Atom           X                Y                Z
 ----------------------------------------------------------------
    1      O      -4.1750649865    -0.2249955283     2.9520154532
    2      C      -4.5557209797    -0.4550598152     1.7821908427
    3      C      -5.0601836206     0.6025061782     0.7410265037
    4      C      -4.1114495906     0.8187942717    -0.5191748915
    5      C      -2.8144291445    -0.0580777535    -0.5647044242
    6      O      -1.6862272441     0.8242078624    -0.7112478082
    7      C      -0.5104239451     0.0717579755    -1.2093905695
    8      C       0.4784661387    -0.2955279966    -0.0393819359
    9      O       1.8476187317     0.0136916757    -0.5215864049
   10      C       2.8147750948    -0.8138938455     0.1306976791
   11      C       4.1367285060    -0.8170034871    -0.7168712430
   12      C       4.9356949767     0.5580649653    -0.8221682581
   13      C       4.3257100402     1.7341780948     0.0309585978
   14      O       3.1984948897     2.2572480030    -0.1044355313
   15      O      -4.6694290022    -1.7610624821     1.2162339715
   16      O       5.2646048440     2.1422927017     1.0324296201
   17      O       2.5825783348    -1.4943303557     1.1540246451
   18      C       4.6856194667     3.2323539941     1.8506481020
   19      C       5.2354400278    -1.7595078468    -0.0692543611
   20      C       6.2522940391    -2.1742562858    -1.2016484034
   21      C       7.0318497392    -0.8228060699    -1.4082297288
   22      C       6.3623940745     0.0956456566    -0.3084668984
   23      O       6.0287864668    -0.8462730348     0.7851359148
   24      H       3.8653809162    -1.1621367312    -1.7316926363
   25      H       4.9660155068     0.8964581162    -1.8744849429
   26      H       4.8132665273    -2.5861179113     0.5348804056
   27      H       6.9199912001    -2.9750247929    -0.8456277692
   28      H       5.7431901770    -2.5182538222    -2.1160807885
   29      H       8.1083136642    -0.9414304557    -1.2071529571
   30      H       6.9068130842    -0.4114747945    -2.4227019405
   31      H       6.9953086411     0.9203743838     0.0690988363
   32      O      -2.7182688926    -1.3038455548    -0.5907612159
   33      C      -4.1684000016    -2.7760219474     2.1704721733
   34      C      -6.4013890152     0.1369718627     0.0205690342
   35      C      -7.0692669811     1.3981430222    -0.6586188105
   36      C      -6.1258232835     1.6104575424    -1.9001533582
   37      C      -5.0982226036     0.4271274001    -1.7054482577
   38      O      -5.9183342642    -0.6596860888    -1.1295654164
   39      H      -5.1979125733     1.5540813315     1.2844043174
   40      H      -3.7966611399     1.8748052887    -0.5897320515
   41      H      -4.7053991389    -2.7285405637     3.1399027510
   42      H      -7.0761128273    -0.4701352228     0.6544239796
   43      H      -8.0998632157     1.1641278048    -0.9698897901
   44      H      -7.0933844044     2.2705286822     0.0137129323
   45      H      -6.6723488082     1.4930677310    -2.8494848024
   46      H      -5.6307502734     2.5946437174    -1.8956646172
   47      H      -4.5933047749     0.0830023095    -2.6287849575
   48      H      -3.0828586752    -2.6507931811     2.3608054178
   49      H      -4.3467549714    -3.7559492583     1.6912616649
   50      H       5.4630023974     3.5046794254     2.5879246944
   51      H       3.7702292230     2.9000257608     2.3814020971
   52      H       4.4314164628     4.1177488078     1.2326390085
   53      H       0.2358437082     0.3300284789     0.8491899051
   54      H       0.3930943606    -1.3615371568     0.2588887848
   55      H       0.0189799624     0.7521839453    -1.9090851048
   56      H      -0.8356974233    -0.8444825046    -1.7433561368
 ----------------------------------------------------------------

    9   -1510.2691122688      3.10E-09 Convergence criterion met
 Total energy in the final basis set = -1510.26911227
 Final energy is   -1510.26911226875
 **  OPTIMIZATION CONVERGED  **

                    Orbital Energies (a.u.)
 --------------------------------------------------------------

 Alpha MOs
 -- Occupied --
-18.934 -18.931 -18.931 -18.931 -18.890 -18.883 -18.879 -18.876
-18.873 -18.868 -10.099 -10.099 -10.096 -10.093 -10.070 -10.068
-10.063 -10.062 -10.060 -10.057 -10.056 -10.055 -10.039 -10.038
-10.037 -10.036 -10.022 -10.020 -10.019 -10.018  -1.014  -1.011
 -1.007  -1.004  -0.971  -0.967  -0.939  -0.935  -0.932  -0.929
 -0.763  -0.761  -0.726  -0.721  -0.712  -0.706  -0.695  -0.659
 -0.655  -0.616  -0.597  -0.581  -0.545  -0.543  -0.538  -0.536
 -0.514  -0.511  -0.482  -0.479  -0.467  -0.461  -0.446  -0.439
 -0.433  -0.429  -0.419  -0.411  -0.410  -0.406  -0.405  -0.397
 -0.395  -0.380  -0.372  -0.371  -0.359  -0.354  -0.349  -0.346
 -0.344  -0.340  -0.335  -0.332  -0.330  -0.327  -0.325  -0.310
 -0.309  -0.305  -0.305  -0.299  -0.290  -0.281  -0.280  -0.276
 -0.275  -0.254  -0.252  -0.248  -0.245  -0.235  -0.231  -0.180
 -0.177  -0.171  -0.169  -0.154  -0.153  -0.148  -0.146  -0.144
 -0.140

          Ground-State Mulliken Net Atomic Charges

     Atom                 Charge (a.u.)
  ----------------------------------------
      1 O                    -0.216344
      2 C                     0.204132
      3 C                    -0.079426
      4 C                    -0.078804
      5 C                     0.204104
      6 O                    -0.173116
      7 C                    -0.051923
      8 C                    -0.049894
      9 O                    -0.168474
     10 C                     0.207526
     11 C                    -0.078911
     12 C                    -0.077093
     13 C                     0.205576
     14 O                    -0.209362
     15 O                    -0.158775
     16 O                    -0.167601
     17 O                    -0.210668
     18 C                    -0.127696
     19 C                     0.023197
     20 C                    -0.143719
     21 C                    -0.145048
     22 C                     0.023863
     23 O                    -0.188896
     24 H                     0.083239
     25 H                     0.083885
     26 H                     0.089755
     27 H                     0.077893
     28 H                     0.072088
     29 H                     0.077491
     30 H                     0.071867
     31 H                     0.091293
     32 O                    -0.205902
     33 C                    -0.126232
     34 C                     0.027344
     35 C                    -0.144086
     36 C                    -0.143762
     37 C                     0.027083
     38 O                    -0.182149
     39 H                     0.084798
     40 H                     0.087466
     41 H                     0.087598
     42 H                     0.084891
     43 H                     0.078133
     44 H                     0.074213
     45 H                     0.078269
     46 H                     0.074397
     47 H                     0.082974
     48 H                     0.088779
     49 H                     0.092726
     50 H                     0.091105
     51 H                     0.090608
     52 H                     0.088241
     53 H                     0.090338
     54 H                     0.093018
     55 H                     0.096025
     56 H                     0.093969
  ----------------------------------------
  Sum of atomic charges =    -0.000000

                    Cartesian Multipole Moments
 -----------------------------------------------------------------
    Charge (ESU x 10^10)
                 0.0000
    Dipole Moment (Debye)
         X       0.2220      Y       1.4651      Z      -2.4973
       Tot       2.9039
    Quadrupole Moments (Debye-Ang)
        XX    -146.4575     XY      -4.3579     YY    -154.8145
        XZ      -8.3465     YZ       1.1849     ZZ    -160.2061

 Total job time:  46.94s(wall), 2224.30s(cpu)
        *  Thank you very much for using Q-Chem.  Have a nice day.  *
