 Q-Chem 5.0, Q-Chem, Inc., Pleasanton, CA (2017)
 Q-Chem 5.0.1 for Intel X86 EM64T Linux

User input:
--------------------------------------------------------------
$molecule
0  1
O -3.94934 -3.66094 2.70899
C -3.26408 -4.56952 2.26188
C -3.36658 -6.02376 2.66595
C -2.51336 -7.0331 1.88039
C -1.51976 -6.45519 0.89709
O -0.86396 -5.40067 1.46572
C 0.02896 -4.73977 0.56286
C 1.04606 -3.91183 1.34142
O 1.63838 -2.92741 0.47948
C 2.68385 -2.2436 1.00726
C 3.54014 -1.57585 -0.04229
C 4.4708 -2.52121 -0.81588
C 4.16355 -3.9999 -0.69024
O 3.71497 -4.7087 -1.57958
O -2.91987 -4.31335 0.966
O 4.43087 -4.56243 0.51778
O 2.84356 -2.07397 2.20911
C 4.27243 -5.90321 0.8018
C 2.76473 -0.90156 -1.18707
C 3.62543 0.19335 -1.81403
C 4.67741 -0.64182 -2.51635
C 4.13544 -2.05197 -2.24998
O 2.73872 -1.8752 -2.20154
H 4.14672 -0.81136 0.49557
H 5.54795 -2.3856 -0.57368
H 1.78097 -0.49226 -0.86921
H 2.99885 0.69789 -2.58423
H 4.0194 0.95478 -1.107
H 4.64277 -0.40542 -3.60309
H 5.71386 -0.52311 -2.13267
H 4.5121 -2.75606 -3.02436
O -1.44006 -6.79374 -0.27778
C -3.04467 -3.09551 0.31767
C -2.8235 -6.24488 4.09017
C -3.40503 -7.53107 4.67752
C -2.64314 -8.57209 3.88403
C -1.73129 -7.6701 3.04691
O -1.47243 -6.57914 3.8968
H -4.44901 -6.28113 2.63482
H -3.11813 -7.79747 1.34331
H -2.42886 -2.3263 0.83109
H -3.02321 -5.38785 4.77049
H -3.0825 -7.59249 5.74156
H -4.51239 -7.60675 4.62279
H -2.03024 -9.17384 4.59175
H -3.2673 -9.24508 3.25727
H -0.84052 -8.23794 2.69725
H -4.1083 -2.77581 0.29636
H -2.69314 -3.1993 -0.72907
H 4.55083 -6.08635 1.85974
H 4.93168 -6.51213 0.14706
H 3.21514 -6.20813 0.65075
H 0.50968 -3.36517 2.14916
H 1.79807 -4.58677 1.80568
H -0.56195 -4.07164 -0.09376
H 0.60879 -5.44315 -0.07871
$end

$opt
CONSTRAINT
tors           1           2           3           4    +173.845
tors           3           4           5           6     +44.098
tors           4           5           6           7    -175.872
tors           5           6           7           8    -161.053
tors           6           7           8           9    -161.053
tors           7           8           9          10    -171.725
tors           8           9          10          11    +161.053
tors           9          10          11          12     -75.899
tors          11          12          13          14    +109.787
ENDCONSTRAINT
$end

$rem
JOBTYPE                   OPT
METHOD                    B3LYP
DFT_D                     d3_op
BASIS                     STO-3G
GEOM_OPT_MAX_CYCLES       100
GEOM_OPT_TOL_GRADIENT     300
GEOM_OPT_TOL_DISPLACEMENT 1200
GEOM_OPT_TOL_ENERGY       100
SYMMETRY                  False
THRESH                    12
SCF_CONVERGENCE           8
MAX_SUB_FILE_NUM          128
MEM_STATIC                400
MEM_TOTAL                 4000
$end
--------------------------------------------------------------

   15   -1510.1333884696      9.31E-09 Convergence criterion met
 Total energy in the final basis set = -1510.13338847
   14   -1510.2053881850      4.09E-09 Convergence criterion met
 Total energy in the final basis set = -1510.20538818
   13   -1510.2434976937      9.65E-09 Convergence criterion met
 Total energy in the final basis set = -1510.24349769
   14   -1510.2593252189      6.88E-09 Convergence criterion met
 Total energy in the final basis set = -1510.25932522
   13   -1510.2678677865      9.26E-09 Convergence criterion met
 Total energy in the final basis set = -1510.26786779
   13   -1510.2710088933      3.68E-09 Convergence criterion met
 Total energy in the final basis set = -1510.27100889
   13   -1510.2726318979      2.74E-09 Convergence criterion met
 Total energy in the final basis set = -1510.27263190
   13   -1510.2730386500      5.30E-09 Convergence criterion met
   11   -1510.2739568310      5.18E-09 Convergence criterion met
 Total energy in the final basis set = -1510.27395683
   11   -1510.2740056282      7.33E-09 Convergence criterion met
 Total energy in the final basis set = -1510.27400563
   11   -1510.2740353718      3.44E-09 Convergence criterion met
 Total energy in the final basis set = -1510.27403537
   11   -1510.2740639953      3.73E-09 Convergence criterion met
 Total energy in the final basis set = -1510.27406400
   10   -1510.2740771052      8.92E-09 Convergence criterion met
 Total energy in the final basis set = -1510.27407711
    9   -1510.2740820097      9.99E-09 Convergence criterion met
 Total energy in the final basis set = -1510.27408201

             Standard Nuclear Orientation (Angstroms)
    I     Atom           X                Y                Z
 ----------------------------------------------------------------
    1      O      -4.2326774259    -3.0652608315    -0.6841202499
    2      C      -3.8556688898    -2.0952854162     0.0106766704
    3      C      -4.6053567013    -0.7198554597     0.1186548994
    4      C      -4.0864741081     0.3583556486     1.1504873869
    5      C      -2.5586934134     0.2821793650     1.5120988734
    6      O      -1.8071955189     0.0847126342     0.3079366402
    7      C      -0.3701723645    -0.0911388730     0.6193817113
    8      C       0.4073776303     0.1912635213    -0.7068129108
    9      O       1.7496330474    -0.4189165543    -0.5420225616
   10      C       2.6019175979    -0.0461860207    -1.6324565728
   11      C       4.0873044958    -0.2811401153    -1.1994229698
   12      C       4.6305751355     0.8355853706    -0.2060932503
   13      C       3.5074054401     1.7773614286     0.3613181718
   14      O       3.0722476723     1.8209265165     1.5313785692
   15      O      -2.8036711096    -2.1897914104     0.9767804259
   16      O       3.0203756502     2.6007442614    -0.7065424036
   17      O       2.1951779201     0.4212692423    -2.7176967430
   18      C       1.9923388073     3.5389591643    -0.1984560024
   19      C       4.3261306591    -1.5936803329    -0.3338883139
   20      C       5.8612830021    -1.9512543652    -0.4311659370
   21      C       6.4879388791    -0.8232168914     0.4699823939
   22      C       5.1920722480    -0.0683542673     0.9670800459
   23      O       4.1716887057    -1.1392104883     1.0656452323
   24      H       4.6984408907    -0.2988527494    -2.1190927590
   25      H       5.4094017114     1.4521064242    -0.6901000240
   26      H       3.6287863262    -2.4250701950    -0.5528628275
   27      H       6.0486061594    -2.9525809926    -0.0117141873
   28      H       6.2315013502    -1.9260527110    -1.4684217221
   29      H       7.0393003365    -1.2462959304     1.3245434110
   30      H       7.1639200484    -0.1583884210    -0.0916066167
   31      H       5.2852132738     0.4606887067     1.9351147460
   32      O      -2.0538817486     0.4131732245     2.6479221541
   33      C      -2.1812300664    -3.5317723669     0.9264287091
   34      C      -4.7153150936     0.1376964881    -1.2232086289
   35      C      -6.1063928845     0.8797958908    -1.1731788079
   36      C      -5.8446660332     1.8988782535    -0.0008782173
   37      C      -4.3019726711     1.6727657130     0.2724458710
   38      O      -3.7594855560     1.2520264112    -1.0411101888
   39      H      -5.6327690691    -1.0060438253     0.4159089028
   40      H      -4.6706125925     0.3609172162     2.0866265361
   41      H      -1.6502329230    -3.6961054950    -0.0335856414
   42      H      -4.5001043209    -0.4219498558    -2.1541470801
   43      H      -6.2915454404     1.4040443764    -2.1246854580
   44      H      -6.9478827867     0.1975454024    -0.9733645609
   45      H      -6.0366864186     2.9378082532    -0.3117511120
   46      H      -6.4524830338     1.6802232448     0.8919536999
   47      H      -3.7589593080     2.5622201103     0.6471288339
   48      H      -2.9338293147    -4.3360957987     1.0550237519
   49      H      -1.4553605551    -3.5610067926     1.7598517368
   50      H       1.4943073640     3.9648942578    -1.0889270365
   51      H       2.4544112321     4.3573275902     0.3913586501
   52      H       1.2483657012     3.0252964158     0.4427912381
   53      H      -0.1391716429    -0.2720894134    -1.5587112772
   54      H       0.4858174925     1.2795167760    -0.9074387768
   55      H      -0.1763315508    -1.1363382707     0.9473079892
   56      H      -0.0480999678     0.5898549841     1.4358674336
 ----------------------------------------------------------------

    9   -1510.2740823719      4.82E-09 Convergence criterion met
 Total energy in the final basis set = -1510.27408237
 Final energy is   -1510.27408237186
 **  OPTIMIZATION CONVERGED  **

                    Orbital Energies (a.u.)
 --------------------------------------------------------------

 Alpha MOs
 -- Occupied --
-18.939 -18.935 -18.928 -18.924 -18.889 -18.886 -18.877 -18.875
-18.873 -18.865 -10.101 -10.099 -10.098 -10.094 -10.069 -10.066
-10.065 -10.065 -10.061 -10.061 -10.059 -10.057 -10.039 -10.039
-10.037 -10.036 -10.022 -10.020 -10.020 -10.019  -1.015  -1.014
 -1.007  -1.001  -0.971  -0.968  -0.937  -0.937  -0.935  -0.928
 -0.764  -0.763  -0.728  -0.723  -0.710  -0.704  -0.693  -0.664
 -0.663  -0.611  -0.597  -0.576  -0.547  -0.545  -0.538  -0.536
 -0.518  -0.511  -0.488  -0.473  -0.468  -0.466  -0.446  -0.440
 -0.434  -0.431  -0.423  -0.414  -0.412  -0.410  -0.407  -0.401
 -0.392  -0.382  -0.374  -0.370  -0.357  -0.351  -0.350  -0.348
 -0.347  -0.341  -0.334  -0.331  -0.329  -0.326  -0.318  -0.315
 -0.309  -0.307  -0.306  -0.296  -0.292  -0.289  -0.284  -0.279
 -0.276  -0.257  -0.248  -0.247  -0.243  -0.234  -0.233  -0.183
 -0.180  -0.173  -0.164  -0.157  -0.154  -0.149  -0.145  -0.143
 -0.142

          Ground-State Mulliken Net Atomic Charges

     Atom                 Charge (a.u.)
  ----------------------------------------
      1 O                    -0.216441
      2 C                     0.210189
      3 C                    -0.079144
      4 C                    -0.078106
      5 C                     0.217018
      6 O                    -0.169926
      7 C                    -0.046465
      8 C                    -0.046248
      9 O                    -0.174464
     10 C                     0.208643
     11 C                    -0.079437
     12 C                    -0.077576
     13 C                     0.208416
     14 O                    -0.208582
     15 O                    -0.167285
     16 O                    -0.171628
     17 O                    -0.207546
     18 C                    -0.130596
     19 C                     0.025997
     20 C                    -0.143229
     21 C                    -0.144933
     22 C                     0.025166
     23 O                    -0.185444
     24 H                     0.084050
     25 H                     0.085953
     26 H                     0.084432
     27 H                     0.077638
     28 H                     0.073407
     29 H                     0.078194
     30 H                     0.073025
     31 H                     0.088695
     32 O                    -0.217335
     33 C                    -0.127586
     34 C                     0.026913
     35 C                    -0.141608
     36 C                    -0.145434
     37 C                     0.024895
     38 O                    -0.185987
     39 H                     0.084620
     40 H                     0.085846
     41 H                     0.089011
     42 H                     0.087108
     43 H                     0.078255
     44 H                     0.074448
     45 H                     0.078188
     46 H                     0.073899
     47 H                     0.081439
     48 H                     0.091884
     49 H                     0.093046
     50 H                     0.092686
     51 H                     0.086932
     52 H                     0.091572
     53 H                     0.091362
     54 H                     0.087523
     55 H                     0.088609
     56 H                     0.095941
  ----------------------------------------
  Sum of atomic charges =     0.000000

                    Cartesian Multipole Moments
 -----------------------------------------------------------------
    Charge (ESU x 10^10)
                 0.0000
    Dipole Moment (Debye)
         X       0.1905      Y       0.3926      Z      -0.3339
       Tot       0.5495
    Quadrupole Moments (Debye-Ang)
        XX    -134.0523     XY      -5.5598     YY    -152.2127
        XZ      -5.3167     YZ      -0.5504     ZZ    -174.0426

 Total job time:  49.62s(wall), 2355.60s(cpu)
        *  Thank you very much for using Q-Chem.  Have a nice day.  *
