 Q-Chem 5.0, Q-Chem, Inc., Pleasanton, CA (2017)
 Q-Chem 5.0.1 for Intel X86 EM64T Linux

User input:
--------------------------------------------------------------
$molecule
0  1
O -4.2326774259 -3.0652608315 -0.6841202499
C -3.8556688898 -2.0952854162 0.0106766704
C -4.6053567013 -0.7198554597 0.1186548994
C -4.0864741081 0.3583556486 1.1504873869
C -2.5586934134 0.282179365 1.5120988734
O -1.8071955189 0.0847126342 0.3079366402
C -0.3701723645 -0.091138873 0.6193817113
C 0.4073776303 0.1912635213 -0.7068129108
O 1.7496330474 -0.4189165543 -0.5420225616
C 2.6019175979 -0.0461860207 -1.6324565728
C 4.0873044958 -0.2811401153 -1.1994229698
C 4.6305751355 0.8355853706 -0.2060932503
C 3.5074054401 1.7773614286 0.3613181718
O 3.0722476723 1.8209265165 1.5313785692
O -2.8036711096 -2.1897914104 0.9767804259
O 3.0203756502 2.6007442614 -0.7065424036
O 2.1951779201 0.4212692423 -2.717696743
C 1.9923388073 3.5389591643 -0.1984560024
C 4.3261306591 -1.5936803329 -0.3338883139
C 5.8612830021 -1.9512543652 -0.431165937
C 6.4879388791 -0.8232168914 0.4699823939
C 5.192072248 -0.0683542673 0.9670800459
O 4.1716887057 -1.1392104883 1.0656452323
H 4.6984408907 -0.2988527494 -2.119092759
H 5.4094017114 1.4521064242 -0.690100024
H 3.6287863262 -2.425070195 -0.5528628275
H 6.0486061594 -2.9525809926 -0.0117141873
H 6.2315013502 -1.926052711 -1.4684217221
H 7.0393003365 -1.2462959304 1.324543411
H 7.1639200484 -0.158388421 -0.0916066167
H 5.2852132738 0.4606887067 1.935114746
O -2.0538817486 0.4131732245 2.6479221541
C -2.1812300664 -3.5317723669 0.9264287091
C -4.7153150936 0.1376964881 -1.2232086289
C -6.1063928845 0.8797958908 -1.1731788079
C -5.8446660332 1.8988782535 -0.0008782173
C -4.3019726711 1.672765713 0.272445871
O -3.759485556 1.2520264112 -1.0411101888
H -5.6327690691 -1.0060438253 0.4159089028
H -4.6706125925 0.3609172162 2.0866265361
H -1.650232923 -3.696105495 -0.0335856414
H -4.5001043209 -0.4219498558 -2.1541470801
H -6.2915454404 1.4040443764 -2.124685458
H -6.9478827867 0.1975454024 -0.9733645609
H -6.0366864186 2.9378082532 -0.311751112
H -6.4524830338 1.6802232448 0.8919536999
H -3.758959308 2.5622201103 0.6471288339
H -2.9338293147 -4.3360957987 1.0550237519
H -1.4553605551 -3.5610067926 1.7598517368
H 1.494307364 3.9648942578 -1.0889270365
H 2.4544112321 4.3573275902 0.3913586501
H 1.2483657012 3.0252964158 0.4427912381
H -0.1391716429 -0.2720894134 -1.5587112772
H 0.4858174925 1.279516776 -0.9074387768
H -0.1763315508 -1.1363382707 0.9473079892
H -0.0480999678 0.5898549841 1.4358674336
$end

$rem
JOBTYPE                   OPT
METHOD                    B3LYP
DFT_D                     d3_op
BASIS                     STO-3G
GEOM_OPT_MAX_CYCLES       100
GEOM_OPT_TOL_GRADIENT     300
GEOM_OPT_TOL_DISPLACEMENT 1200
GEOM_OPT_TOL_ENERGY       100
SYMMETRY                  False
THRESH                    12
SCF_CONVERGENCE           8
MAX_SUB_FILE_NUM          128
MEM_STATIC                400
MEM_TOTAL                 4000
$end
--------------------------------------------------------------

   16   -1510.2738389560      2.74E-09 Convergence criterion met
 Total energy in the final basis set = -1510.27383896
   13   -1510.2769475000      8.94E-09 Convergence criterion met
 Total energy in the final basis set = -1510.27694750
   13   -1510.2791824637      8.24E-09 Convergence criterion met
 Total energy in the final basis set = -1510.27918246
   13   -1510.2808080837      6.88E-09 Convergence criterion met
 Total energy in the final basis set = -1510.28080808
   13   -1510.2822964172      6.76E-09 Convergence criterion met
 Total energy in the final basis set = -1510.28229642
   13   -1510.2838450674      3.22E-09 Convergence criterion met
 Total energy in the final basis set = -1510.28384507
   13   -1510.2850586375      2.63E-09 Convergence criterion met
 Total energy in the final basis set = -1510.28505864
   13   -1510.2860549595      3.80E-09 Convergence criterion met
   11   -1510.2997027423      4.50E-09 Convergence criterion met
 Total energy in the final basis set = -1510.29970274
    9   -1510.2997040183      7.31E-09 Convergence criterion met
 Total energy in the final basis set = -1510.29970402
   11   -1510.2997008674      3.33E-09 Convergence criterion met
 Total energy in the final basis set = -1510.29970087
   11   -1510.2996947595      4.21E-09 Convergence criterion met
 Total energy in the final basis set = -1510.29969476
   10   -1510.2996835338      7.91E-09 Convergence criterion met
 Total energy in the final basis set = -1510.29968353
    9   -1510.2996858153      6.98E-09 Convergence criterion met
 Total energy in the final basis set = -1510.29968582

             Standard Nuclear Orientation (Angstroms)
    I     Atom           X                Y                Z
 ----------------------------------------------------------------
    1      O      -3.3458921143     2.4474417962    -0.7665445422
    2      C      -3.1490607066     1.2458324938    -1.0442943640
    3      C      -4.0489445023     0.0107849824    -0.6823013918
    4      C      -3.2464316411    -1.1541984851     0.0392623911
    5      C      -1.7428366641    -0.7915549456     0.2876724506
    6      O      -1.6901366535     0.3893252028     1.0897406193
    7      C      -0.2904768842     0.8443570720     1.2751130664
    8      C       0.4963092719    -0.0033892580     2.3482145353
    9      O       1.9461252686     0.1756324369     2.0870274529
   10      C       2.4577663899    -0.9487577605     1.3616468937
   11      C       3.8860855125    -0.6103345438     0.8051153197
   12      C       3.8351328312    -0.1746406258    -0.7296335770
   13      C       2.3813568875    -0.1605993967    -1.3150043934
   14      O       1.5004089670     0.7111034072    -1.1061001194
   15      O      -2.0342861089     0.7451767679    -1.7899358637
   16      O       2.2070342887    -1.3056156351    -2.1321257675
   17      O       1.8317936704    -2.0181479351     1.1863053835
   18      C       0.7991086387    -1.4087692994    -2.6016189390
   19      C       4.5289496471     0.6832098738     1.4571435513
   20      C       6.0645599815     0.7180538169     1.0850371275
   21      C       6.0043785154     1.1602906115    -0.4239937074
   22      C       4.4451670762     1.2886879401    -0.6402520875
   23      O       3.9514897107     1.7910498313     0.6609569136
   24      H       4.5241286727    -1.5037524045     0.9285190032
   25      H       4.4496927119    -0.8490821502    -1.3513762766
   26      H       4.2962489049     0.8168463761     2.5305598248
   27      H       6.5932501207     1.4609276206     1.7030024744
   28      H       6.5464052080    -0.2631751792     1.2223552841
   29      H       6.4952082109     2.1340288247    -0.5809089469
   30      H       6.4593567533     0.4220467320    -1.1035040926
   31      H       4.1322611057     1.9653293818    -1.4588913522
   32      O      -0.7359366174    -1.4230976438    -0.1082520856
   33      C      -1.0896490911     1.8308269226    -2.1483901750
   34      C      -5.1364614794     0.3623959310     0.4128799279
   35      C      -6.2351361519    -0.7708287461     0.3950667393
   36      C      -5.4577102728    -1.9543284033     1.0833264854
   37      C      -4.0683947517    -1.2687716645     1.3970664866
   38      O      -4.4293898909     0.1346018270     1.6949894523
   39      H      -4.5151957836    -0.3588480656    -1.6143980827
   40      H      -3.2747000083    -2.0917613111    -0.5428218033
   41      H      -1.3519187954     2.7544123264    -1.5962516987
   42      H      -5.5098860732     1.4035451632     0.3574484264
   43      H      -7.1123537917    -0.4671740987     0.9882008825
   44      H      -6.5660390746    -1.0153703885    -0.6268844884
   45      H      -5.9482490709    -2.2712812116     2.0173062810
   46      H      -5.3483204533    -2.8323058318     0.4268151228
   47      H      -3.5038063687    -1.7122528639     2.2400944995
   48      H      -1.1541270860     2.0248388798    -3.2377104789
   49      H      -0.0677861102     1.4813941364    -1.8795513384
   50      H       0.7475640328    -2.3517183877    -3.1750631097
   51      H       0.5342470185    -0.5594460786    -3.2624478107
   52      H       0.1011650334    -1.4445523374    -1.7303329260
   53      H       0.2922917521     0.3450704032     3.3798071364
   54      H       0.2413341057    -1.0801851762     2.2439767562
   55      H      -0.3700371614     1.9001089657     1.5993501923
   56      H       0.2848891346     0.7955316145     0.3184557711
 ----------------------------------------------------------------

    9   -1510.2996860697      2.28E-09 Convergence criterion met
 Total energy in the final basis set = -1510.29968607
 Final energy is   -1510.29968606968
 **  OPTIMIZATION CONVERGED  **

                    Orbital Energies (a.u.)
 --------------------------------------------------------------

 Alpha MOs
 -- Occupied --
-18.943 -18.932 -18.930 -18.923 -18.888 -18.885 -18.883 -18.876
-18.875 -18.871 -10.109 -10.101 -10.098 -10.095 -10.062 -10.060
-10.059 -10.059 -10.055 -10.053 -10.046 -10.041 -10.039 -10.038
-10.036 -10.034 -10.021 -10.020 -10.019 -10.018  -1.018  -1.013
 -1.008  -1.000  -0.970  -0.967  -0.941  -0.937  -0.932  -0.930
 -0.765  -0.761  -0.726  -0.722  -0.711  -0.704  -0.688  -0.658
 -0.649  -0.612  -0.595  -0.578  -0.548  -0.544  -0.538  -0.535
 -0.514  -0.507  -0.480  -0.477  -0.462  -0.460  -0.451  -0.441
 -0.433  -0.431  -0.427  -0.418  -0.412  -0.406  -0.401  -0.397
 -0.380  -0.378  -0.368  -0.366  -0.362  -0.359  -0.352  -0.349
 -0.343  -0.337  -0.332  -0.329  -0.325  -0.323  -0.317  -0.311
 -0.308  -0.306  -0.303  -0.301  -0.291  -0.286  -0.282  -0.279
 -0.271  -0.259  -0.245  -0.241  -0.237  -0.234  -0.232  -0.191
 -0.176  -0.170  -0.160  -0.159  -0.156  -0.151  -0.148  -0.144
 -0.141

          Ground-State Mulliken Net Atomic Charges

     Atom                 Charge (a.u.)
  ----------------------------------------
      1 O                    -0.212167
      2 C                     0.214520
      3 C                    -0.077849
      4 C                    -0.078484
      5 C                     0.219608
      6 O                    -0.167827
      7 C                    -0.062389
      8 C                    -0.057015
      9 O                    -0.169209
     10 C                     0.205487
     11 C                    -0.077447
     12 C                    -0.078373
     13 C                     0.219315
     14 O                    -0.221815
     15 O                    -0.179367
     16 O                    -0.161291
     17 O                    -0.207131
     18 C                    -0.143433
     19 C                     0.025975
     20 C                    -0.144339
     21 C                    -0.143838
     22 C                     0.025638
     23 O                    -0.184799
     24 H                     0.085903
     25 H                     0.087925
     26 H                     0.089665
     27 H                     0.078258
     28 H                     0.073406
     29 H                     0.078325
     30 H                     0.073697
     31 H                     0.083984
     32 O                    -0.218666
     33 C                    -0.150865
     34 C                     0.024604
     35 C                    -0.143875
     36 C                    -0.144041
     37 C                     0.026031
     38 O                    -0.185321
     39 H                     0.083683
     40 H                     0.084407
     41 H                     0.094751
     42 H                     0.090404
     43 H                     0.077883
     44 H                     0.072766
     45 H                     0.077782
     46 H                     0.073412
     47 H                     0.082212
     48 H                     0.075274
     49 H                     0.109524
     50 H                     0.086754
     51 H                     0.081581
     52 H                     0.119564
     53 H                     0.085923
     54 H                     0.100434
     55 H                     0.089657
     56 H                     0.111191
  ----------------------------------------
  Sum of atomic charges =     0.000000

                    Cartesian Multipole Moments
 -----------------------------------------------------------------
    Charge (ESU x 10^10)
                 0.0000
    Dipole Moment (Debye)
         X       1.1268      Y      -1.6232      Z      -1.2298
       Tot       2.3274
    Quadrupole Moments (Debye-Ang)
        XX    -138.6005     XY       8.8770     YY    -167.9780
        XZ       3.1593     YZ      -2.8598     ZZ    -154.0793

 Total job time:  250.80s(wall), 11955.03s(cpu)
        *  Thank you very much for using Q-Chem.  Have a nice day.  *
