 Q-Chem 5.0, Q-Chem, Inc., Pleasanton, CA (2017)
 Q-Chem 5.0.1 for Intel X86 EM64T Linux

User input:
--------------------------------------------------------------
$molecule
0  1
O -6.4325293413 1.2506076972 0.9013293424
C -5.5593246179 1.1154195835 0.0188124742
C -5.2080960465 -0.1953071763 -0.7750116406
C -3.6773299876 -0.5978761525 -0.7400954214
C -2.8328321624 0.258159306 0.2723713579
O -1.4325362716 0.3785712779 -0.1183284769
C -0.6148869437 -0.6127175336 0.6209306239
C 0.6901144394 0.1223268563 1.1140328479
O 1.713711499 -0.8956415027 1.4379096319
C 2.94025843 -0.8078825524 0.681604506
C 3.5424079713 0.6413020497 0.4886888514
C 5.1215725283 0.6929027419 0.3852949571
C 5.8025457782 -0.6250673475 -0.1427337434
O 5.5776579298 -1.2419968501 -1.2044237892
O -4.7969548582 2.193152361 -0.5415477126
O 6.770265951 -1.0334977876 0.8346847341
O 3.5382381246 -1.8820435114 0.4575637717
C 7.4117429538 -2.2975600139 0.40529324
C 3.1291903613 1.4481242761 -0.8362355356
C 3.1709590588 2.9779073885 -0.4522101159
C 4.7224372105 3.1826234023 -0.2754433658
C 5.2823669238 1.7838044285 -0.759345225
O 4.2838395762 1.3117839706 -1.7468795689
H 3.2252047647 1.2222133354 1.3735845849
H 5.589079474 0.982110351 1.3421995497
H 2.2087207411 1.1026281217 -1.3448806329
H 2.7758061594 3.590151379 -1.2787457947
H 2.6004469999 3.203689335 0.4630477973
H 5.1024285387 3.995713433 -0.9136503005
H 5.0019717021 3.3938830141 0.7692397445
H 6.2903193023 1.8162685317 -1.2163662278
O -3.2829156934 0.7913777277 1.3082058439
C -5.0692975738 3.4417618036 0.2045770196
C -5.887014191 -1.4773111557 -0.1362391178
C -5.9421391845 -2.6037137942 -1.2382804227
C -4.420896782 -2.9967240863 -1.3367865073
C -3.7931572215 -2.0940565705 -0.1997886549
O -4.8660299594 -1.985887554 0.8115877606
H -5.5363408404 -0.0506650876 -1.820862008
H -3.2006657931 -0.5509929613 -1.7347238681
H -4.7240374046 3.3630700122 1.2560096019
H -6.8352247945 -1.2642623964 0.3949544287
H -6.5538154901 -3.4511146643 -0.8896331706
H -6.3529954381 -2.2389946474 -2.1931623746
H -4.2601955082 -4.063481386 -1.114303162
H -3.9882982395 -2.7722173637 -2.3248606151
H -2.867292665 -2.4952271597 0.2556275358
H -6.1498150275 3.6919568904 0.2050499888
H -4.5028761089 4.2382283515 -0.312124777
H 8.0938943204 -2.5894924635 1.224801988
H 7.9929473746 -2.1646660829 -0.5303693983
H 6.6600743207 -3.0963947287 0.2413786391
H 1.0079044094 0.8319009029 0.3277688938
H 0.4626373514 0.7066588255 2.0319630566
H -0.3239164688 -1.444295891 -0.0622920781
H -1.1464274842 -1.0488542113 1.4923986211
$end

$rem
JOBTYPE                   OPT
METHOD                    B3LYP
DFT_D                     d3_op
BASIS                     STO-3G
GEOM_OPT_MAX_CYCLES       100
GEOM_OPT_TOL_GRADIENT     300
GEOM_OPT_TOL_DISPLACEMENT 1200
GEOM_OPT_TOL_ENERGY       100
SYMMETRY                  False
THRESH                    12
SCF_CONVERGENCE           8
MAX_SUB_FILE_NUM          128
MEM_STATIC                400
MEM_TOTAL                 4000
$end
--------------------------------------------------------------

   16   -1510.2393846476      5.80E-09 Convergence criterion met
 Total energy in the final basis set = -1510.23938465
   14   -1510.2427847264      4.46E-09 Convergence criterion met
 Total energy in the final basis set = -1510.24278473
   14   -1510.2462741894      8.93E-09 Convergence criterion met
 Total energy in the final basis set = -1510.24627419
   14   -1510.2426321941      4.21E-09 Convergence criterion met
 Total energy in the final basis set = -1510.24263219
   14   -1510.2498047496      5.38E-09 Convergence criterion met
 Total energy in the final basis set = -1510.24980475
   14   -1510.2561406817      4.09E-09 Convergence criterion met
 Total energy in the final basis set = -1510.25614068
   14   -1510.2611858309      5.16E-09 Convergence criterion met
 Total energy in the final basis set = -1510.26118583
   14   -1510.2646543837      2.63E-09 Convergence criterion met
   12   -1510.2848655322      5.72E-09 Convergence criterion met
 Total energy in the final basis set = -1510.28486553
   13   -1510.2847582797      5.19E-09 Convergence criterion met
 Total energy in the final basis set = -1510.28475828
   13   -1510.2848425304      2.51E-09 Convergence criterion met
 Total energy in the final basis set = -1510.28484253
   11   -1510.2848568352      7.92E-09 Convergence criterion met
 Total energy in the final basis set = -1510.28485684
   10   -1510.2848509797      9.93E-09 Convergence criterion met
 Total energy in the final basis set = -1510.28485098
    9   -1510.2848477332      7.31E-09 Convergence criterion met
 Total energy in the final basis set = -1510.28484773

             Standard Nuclear Orientation (Angstroms)
    I     Atom           X                Y                Z
 ----------------------------------------------------------------
    1      O      -3.6284985581     1.9672108733     1.0434333725
    2      C      -2.7538954803     1.5031890322     0.2849578317
    3      C      -2.9655686386     0.6770028213    -1.0353962276
    4      C      -2.4359342781    -0.8143412610    -0.9561439327
    5      C      -1.8610968218    -1.1737662426     0.4487136001
    6      O      -0.8328414450    -2.1647867106     0.3038296541
    7      C      -0.3749447768    -2.6155221177     1.6411723932
    8      C       0.5121300574    -1.5588685608     2.4165769027
    9      O       1.9516577549    -1.8405472991     2.2571071548
   10      C       2.7119126141    -1.0272553175     1.3533184655
   11      C       2.0483613620     0.1347411313     0.5205095515
   12      C       3.1566557834     1.0948509163    -0.0749368024
   13      C       4.6174616783     0.8546794431     0.4618733847
   14      O       5.6268514984     0.5488981031    -0.2067924840
   15      O      -1.3426294421     1.7349572752     0.4564306373
   16      O       4.6411589510     1.2407973895     1.8474363490
   17      O       3.9273288415    -1.3210386432     1.2574834031
   18      C       5.9828692795     0.9811707710     2.4121333790
   19      C       1.4210222030    -0.4504602232    -0.8233154542
   20      C       0.6152242748     0.6923577047    -1.5585079018
   21      C       1.7795908241     1.5531374150    -2.1707052158
   22      C       3.0389837079     0.7779899649    -1.6232457443
   23      O       2.6180765134    -0.6436868947    -1.6698786258
   24      H       1.3118688316     0.6974667597     1.1168178418
   25      H       2.8914871073     2.1468493842     0.1352769001
   26      H       0.8493264845    -1.3912119235    -0.6786409179
   27      H      -0.0047659862     0.2530463568    -2.3549718636
   28      H      -0.0398999990     1.2446580140    -0.8572506518
   29      H       1.7595833513     1.5333263511    -3.2720813941
   30      H       1.7594655489     2.6027984401    -1.8365176105
   31      H       3.9844717608     0.9179661190    -2.1826693382
   32      O      -2.2339649148    -0.7157960152     1.5521250420
   33      C      -1.0924115497     2.4558380330     1.7231043714
   34      C      -4.5079812294     0.4408491905    -1.3148956304
   35      C      -4.6792816802    -0.0007940432    -2.8203229491
   36      C      -4.1349392306    -1.4763790014    -2.7666020599
   37      C      -3.7850171028    -1.6181016776    -1.2325494794
   38      O      -4.8099852148    -0.7959445755    -0.5550844366
   39      H      -2.4756195695     1.2177911761    -1.8652972349
   40      H      -1.6744933457    -1.0324025794    -1.7233129166
   41      H      -1.3748556212     1.8336297204     2.5973317226
   42      H      -5.1585404149     1.2692733790    -0.9737308129
   43      H      -5.7416115716     0.0271768399    -3.1105403163
   44      H      -4.1070514556     0.6396824719    -3.5103962905
   45      H      -4.9097462849    -2.2052759445    -3.0528521297
   46      H      -3.2516396153    -1.6289091254    -3.4069844191
   47      H      -3.7903205872    -2.6540049786    -0.8408111913
   48      H      -1.6570249411     3.4088780560     1.7703493281
   49      H      -0.0070624012     2.6656659398     1.7501281355
   50      H       5.9517863612     1.3366729796     3.4586500514
   51      H       6.7751531336     1.5250390397     1.8579506124
   52      H       6.2214284070    -0.1022191996     2.3955827107
   53      H       0.2182334487    -0.5328512019     2.1240564666
   54      H       0.3075564323    -1.6757149560     3.5018845870
   55      H       0.2274034522    -3.5282981169     1.4563520741
   56      H      -1.2515699276    -2.8762114551     2.2715731646
 ----------------------------------------------------------------

    9   -1510.2848472084      2.30E-09 Convergence criterion met
 Total energy in the final basis set = -1510.28484721
 Final energy is   -1510.28484720844
 **  OPTIMIZATION CONVERGED  **

                    Orbital Energies (a.u.)
 --------------------------------------------------------------

 Alpha MOs
 -- Occupied --
-18.957 -18.946 -18.941 -18.913 -18.898 -18.896 -18.888 -18.882
-18.881 -18.855 -10.119 -10.111 -10.106 -10.088 -10.087 -10.086
-10.076 -10.072 -10.067 -10.052 -10.051 -10.051 -10.050 -10.048
-10.039 -10.029 -10.029 -10.027 -10.014 -10.005  -1.034  -1.020
 -1.013  -0.992  -0.980  -0.965  -0.957  -0.947  -0.941  -0.919
 -0.775  -0.758  -0.736  -0.725  -0.717  -0.711  -0.700  -0.674
 -0.650  -0.629  -0.599  -0.596  -0.556  -0.547  -0.542  -0.534
 -0.523  -0.511  -0.494  -0.485  -0.473  -0.465  -0.457  -0.451
 -0.442  -0.435  -0.429  -0.423  -0.420  -0.417  -0.406  -0.400
 -0.398  -0.393  -0.388  -0.375  -0.368  -0.361  -0.359  -0.354
 -0.351  -0.345  -0.341  -0.337  -0.330  -0.324  -0.320  -0.319
 -0.313  -0.312  -0.306  -0.304  -0.299  -0.295  -0.285  -0.273
 -0.272  -0.265  -0.259  -0.247  -0.243  -0.239  -0.228  -0.204
 -0.190  -0.174  -0.172  -0.163  -0.159  -0.154  -0.153  -0.140
 -0.136

          Ground-State Mulliken Net Atomic Charges

     Atom                 Charge (a.u.)
  ----------------------------------------
      1 O                    -0.202776
      2 C                     0.218887
      3 C                    -0.079944
      4 C                    -0.079206
      5 C                     0.211683
      6 O                    -0.169937
      7 C                    -0.052076
      8 C                    -0.049265
      9 O                    -0.169762
     10 C                     0.215496
     11 C                    -0.083740
     12 C                    -0.079601
     13 C                     0.217287
     14 O                    -0.217696
     15 O                    -0.178872
     16 O                    -0.181518
     17 O                    -0.193357
     18 C                    -0.128950
     19 C                     0.014121
     20 C                    -0.160301
     21 C                    -0.144879
     22 C                     0.024276
     23 O                    -0.190412
     24 H                     0.077237
     25 H                     0.079901
     26 H                     0.088241
     27 H                     0.064561
     28 H                     0.091341
     29 H                     0.074298
     30 H                     0.070060
     31 H                     0.090162
     32 O                    -0.210646
     33 C                    -0.129437
     34 C                     0.025334
     35 C                    -0.143869
     36 C                    -0.143475
     37 C                     0.026155
     38 O                    -0.186127
     39 H                     0.087429
     40 H                     0.090678
     41 H                     0.093380
     42 H                     0.091786
     43 H                     0.080280
     44 H                     0.074544
     45 H                     0.080356
     46 H                     0.075491
     47 H                     0.084156
     48 H                     0.094089
     49 H                     0.088154
     50 H                     0.084641
     51 H                     0.086001
     52 H                     0.092073
     53 H                     0.092803
     54 H                     0.095305
     55 H                     0.101238
     56 H                     0.094401
  ----------------------------------------
  Sum of atomic charges =    -0.000000

                    Cartesian Multipole Moments
 -----------------------------------------------------------------
    Charge (ESU x 10^10)
                -0.0000
    Dipole Moment (Debye)
         X      -2.9995      Y       1.3023      Z      -0.4644
       Tot       3.3028
    Quadrupole Moments (Debye-Ang)
        XX    -187.5535     XY      11.3838     YY    -154.6861
        XZ      14.3198     YZ      -1.5193     ZZ    -154.0785

 Total job time:  187.06s(wall), 8919.63s(cpu)
        *  Thank you very much for using Q-Chem.  Have a nice day.  *
