 Q-Chem 5.0, Q-Chem, Inc., Pleasanton, CA (2017)
 Q-Chem 5.0.1 for Intel X86 EM64T Linux

User input:
--------------------------------------------------------------
$molecule
0  1
O -3.94934 -3.66094 2.70899
C -3.26408 -4.56952 2.26188
C -3.36658 -6.02376 2.66595
C -2.07242 -6.72057 3.117
C -0.85458 -5.83898 3.28356
O 0.2796 -6.56906 3.06895
C 0.89485 -7.02253 4.27936
C 2.4048 -6.8192 4.20968
O 3.05574 -7.64759 5.18586
C 3.93922 -8.54896 4.68975
C 4.83458 -7.96843 3.62112
C 6.23881 -8.58569 3.54754
C 6.42299 -9.89823 4.28241
O 5.7502 -10.90506 4.11446
O -2.41008 -4.29974 1.23956
O 7.42034 -9.92733 5.20531
O 4.19115 -9.49511 5.41287
C 7.7333 -11.02681 5.97681
C 4.38607 -8.36771 2.16127
C 4.88908 -7.30789 1.18497
C 6.37913 -7.58682 1.22303
C 6.38745 -8.87745 2.05467
O 5.15754 -9.47914 1.78255
H 4.90863 -6.85987 3.71664
H 7.01098 -7.87728 3.92348
H 3.30126 -8.54916 2.01608
H 4.50111 -7.5976 0.18145
H 4.59313 -6.25812 1.39691
H 6.73141 -7.7598 0.18225
H 6.99559 -6.80229 1.7135
H 7.28844 -9.49343 1.83804
O -0.85398 -4.81257 3.95061
C -2.20564 -3.04395 0.70775
C -4.2626 -6.23605 3.8999
C -4.7611 -7.68075 3.94613
C -3.49815 -8.39919 4.36631
C -2.53663 -7.21633 4.50597
O -3.36045 -6.17629 4.97464
H -3.80146 -6.54225 1.78222
H -1.80334 -7.58473 2.46674
H -1.8184 -2.35643 1.4899
H -5.12755 -5.53898 3.94344
H -5.50605 -7.76545 4.76932
H -5.21633 -8.034 2.99583
H -3.66977 -8.85121 5.36904
H -3.13297 -9.17707 3.66155
H -1.69587 -7.50249 5.17102
H -3.15536 -2.64442 0.29215
H -1.45874 -3.11239 -0.1095
H 8.58436 -10.77425 6.64193
H 8.02715 -11.879 5.32734
H 6.86226 -11.31466 6.60364
H 2.65409 -6.98974 3.16727
H 2.63828 -5.75043 4.40068
H 0.73087 -8.12201 4.29853
H 0.47805 -6.60554 5.22549
$end

$opt
CONSTRAINT
tors           1           2           3           4    -127.023
tors           3           4           5           6    -152.052
tors           4           5           6           7     -98.035
tors           5           6           7           8    -136.157
tors           6           7           8           9    -161.053
tors           7           8           9          10    +120.168
tors           8           9          10          11     +43.668
tors           9          10          11          12    +149.038
tors          11          12          13          14     +55.206
ENDCONSTRAINT
$end

$rem
JOBTYPE                   OPT
METHOD                    B3LYP
DFT_D                     d3_op
BASIS                     STO-3G
GEOM_OPT_MAX_CYCLES       100
GEOM_OPT_TOL_GRADIENT     300
GEOM_OPT_TOL_DISPLACEMENT 1200
GEOM_OPT_TOL_ENERGY       100
SYMMETRY                  False
THRESH                    12
SCF_CONVERGENCE           8
MAX_SUB_FILE_NUM          128
MEM_STATIC                400
MEM_TOTAL                 4000
$end
--------------------------------------------------------------

   16   -1510.0955133483      2.76E-09 Convergence criterion met
 Total energy in the final basis set = -1510.09551335
   14   -1510.1698612558      4.93E-09 Convergence criterion met
 Total energy in the final basis set = -1510.16986126
   14   -1510.2097446523      1.95E-09 Convergence criterion met
 Total energy in the final basis set = -1510.20974465
   14   -1510.2286301654      4.93E-09 Convergence criterion met
 Total energy in the final basis set = -1510.22863017
   13   -1510.2356896042      9.15E-09 Convergence criterion met
 Total energy in the final basis set = -1510.23568960
   13   -1510.2382384983      5.49E-09 Convergence criterion met
 Total energy in the final basis set = -1510.23823850
   12   -1510.2389618208      9.98E-09 Convergence criterion met
 Total energy in the final basis set = -1510.23896182
   12   -1510.2392446100      8.37E-09 Convergence criterion met
   11   -1510.2394363160      2.51E-09 Convergence criterion met
 Total energy in the final basis set = -1510.23943632
   10   -1510.2394413901      8.83E-09 Convergence criterion met
 Total energy in the final basis set = -1510.23944139
    9   -1510.2394453478      9.79E-09 Convergence criterion met
 Total energy in the final basis set = -1510.23944535
    9   -1510.2394482113      8.42E-09 Convergence criterion met
 Total energy in the final basis set = -1510.23944821
    9   -1510.2394506081      9.03E-09 Convergence criterion met
 Total energy in the final basis set = -1510.23945061
    9   -1510.2394517148      5.48E-09 Convergence criterion met
 Total energy in the final basis set = -1510.23945171

             Standard Nuclear Orientation (Angstroms)
    I     Atom           X                Y                Z
 ----------------------------------------------------------------
    1      O      -6.4325293413     1.2506076972     0.9013293424
    2      C      -5.5593246179     1.1154195835     0.0188124742
    3      C      -5.2080960465    -0.1953071763    -0.7750116406
    4      C      -3.6773299876    -0.5978761525    -0.7400954214
    5      C      -2.8328321624     0.2581593060     0.2723713579
    6      O      -1.4325362716     0.3785712779    -0.1183284769
    7      C      -0.6148869437    -0.6127175336     0.6209306239
    8      C       0.6901144394     0.1223268563     1.1140328479
    9      O       1.7137114990    -0.8956415027     1.4379096319
   10      C       2.9402584300    -0.8078825524     0.6816045060
   11      C       3.5424079713     0.6413020497     0.4886888514
   12      C       5.1215725283     0.6929027419     0.3852949571
   13      C       5.8025457782    -0.6250673475    -0.1427337434
   14      O       5.5776579298    -1.2419968501    -1.2044237892
   15      O      -4.7969548582     2.1931523610    -0.5415477126
   16      O       6.7702659510    -1.0334977876     0.8346847341
   17      O       3.5382381246    -1.8820435114     0.4575637717
   18      C       7.4117429538    -2.2975600139     0.4052932400
   19      C       3.1291903613     1.4481242761    -0.8362355356
   20      C       3.1709590588     2.9779073885    -0.4522101159
   21      C       4.7224372105     3.1826234023    -0.2754433658
   22      C       5.2823669238     1.7838044285    -0.7593452250
   23      O       4.2838395762     1.3117839706    -1.7468795689
   24      H       3.2252047647     1.2222133354     1.3735845849
   25      H       5.5890794740     0.9821103510     1.3421995497
   26      H       2.2087207411     1.1026281217    -1.3448806329
   27      H       2.7758061594     3.5901513790    -1.2787457947
   28      H       2.6004469999     3.2036893350     0.4630477973
   29      H       5.1024285387     3.9957134330    -0.9136503005
   30      H       5.0019717021     3.3938830141     0.7692397445
   31      H       6.2903193023     1.8162685317    -1.2163662278
   32      O      -3.2829156934     0.7913777277     1.3082058439
   33      C      -5.0692975738     3.4417618036     0.2045770196
   34      C      -5.8870141910    -1.4773111557    -0.1362391178
   35      C      -5.9421391845    -2.6037137942    -1.2382804227
   36      C      -4.4208967820    -2.9967240863    -1.3367865073
   37      C      -3.7931572215    -2.0940565705    -0.1997886549
   38      O      -4.8660299594    -1.9858875540     0.8115877606
   39      H      -5.5363408404    -0.0506650876    -1.8208620080
   40      H      -3.2006657931    -0.5509929613    -1.7347238681
   41      H      -4.7240374046     3.3630700122     1.2560096019
   42      H      -6.8352247945    -1.2642623964     0.3949544287
   43      H      -6.5538154901    -3.4511146643    -0.8896331706
   44      H      -6.3529954381    -2.2389946474    -2.1931623746
   45      H      -4.2601955082    -4.0634813860    -1.1143031620
   46      H      -3.9882982395    -2.7722173637    -2.3248606151
   47      H      -2.8672926650    -2.4952271597     0.2556275358
   48      H      -6.1498150275     3.6919568904     0.2050499888
   49      H      -4.5028761089     4.2382283515    -0.3121247770
   50      H       8.0938943204    -2.5894924635     1.2248019880
   51      H       7.9929473746    -2.1646660829    -0.5303693983
   52      H       6.6600743207    -3.0963947287     0.2413786391
   53      H       1.0079044094     0.8319009029     0.3277688938
   54      H       0.4626373514     0.7066588255     2.0319630566
   55      H      -0.3239164688    -1.4442958910    -0.0622920781
   56      H      -1.1464274842    -1.0488542113     1.4923986211
 ----------------------------------------------------------------

    9   -1510.2394522145      4.40E-09 Convergence criterion met
 Total energy in the final basis set = -1510.23945221
 Final energy is   -1510.23945221449
 **  OPTIMIZATION CONVERGED  **

                    Orbital Energies (a.u.)
 --------------------------------------------------------------

 Alpha MOs
 -- Occupied --
-18.929 -18.926 -18.925 -18.911 -18.906 -18.894 -18.892 -18.888
-18.872 -18.865 -10.115 -10.106 -10.098 -10.091 -10.079 -10.078
-10.068 -10.067 -10.064 -10.061 -10.061 -10.056 -10.042 -10.042
-10.038 -10.038 -10.026 -10.025 -10.025 -10.023  -1.016  -1.010
 -1.005  -1.000  -0.976  -0.975  -0.946  -0.938  -0.933  -0.925
 -0.766  -0.766  -0.727  -0.726  -0.714  -0.709  -0.705  -0.660
 -0.657  -0.609  -0.601  -0.594  -0.550  -0.549  -0.543  -0.541
 -0.524  -0.515  -0.486  -0.470  -0.463  -0.459  -0.456  -0.452
 -0.444  -0.439  -0.433  -0.414  -0.411  -0.410  -0.404  -0.402
 -0.394  -0.390  -0.379  -0.369  -0.365  -0.358  -0.356  -0.353
 -0.346  -0.343  -0.337  -0.334  -0.331  -0.330  -0.324  -0.316
 -0.315  -0.312  -0.308  -0.305  -0.296  -0.288  -0.280  -0.278
 -0.276  -0.253  -0.252  -0.248  -0.244  -0.239  -0.237  -0.181
 -0.173  -0.170  -0.166  -0.160  -0.156  -0.151  -0.149  -0.148
 -0.139

          Ground-State Mulliken Net Atomic Charges

     Atom                 Charge (a.u.)
  ----------------------------------------
      1 O                    -0.211578
      2 C                     0.214533
      3 C                    -0.080566
      4 C                    -0.081156
      5 C                     0.227056
      6 O                    -0.200477
      7 C                    -0.046791
      8 C                    -0.049221
      9 O                    -0.180000
     10 C                     0.210971
     11 C                    -0.085817
     12 C                    -0.078426
     13 C                     0.213096
     14 O                    -0.205285
     15 O                    -0.175878
     16 O                    -0.172694
     17 O                    -0.187801
     18 C                    -0.129047
     19 C                     0.023311
     20 C                    -0.142544
     21 C                    -0.145495
     22 C                     0.025752
     23 O                    -0.182459
     24 H                     0.080959
     25 H                     0.086710
     26 H                     0.082794
     27 H                     0.079678
     28 H                     0.072746
     29 H                     0.079414
     30 H                     0.074576
     31 H                     0.084152
     32 O                    -0.177568
     33 C                    -0.128643
     34 C                     0.024327
     35 C                    -0.143197
     36 C                    -0.143828
     37 C                     0.023820
     38 O                    -0.188477
     39 H                     0.084910
     40 H                     0.087761
     41 H                     0.091912
     42 H                     0.092625
     43 H                     0.079409
     44 H                     0.074371
     45 H                     0.079686
     46 H                     0.074852
     47 H                     0.080138
     48 H                     0.088860
     49 H                     0.088613
     50 H                     0.087765
     51 H                     0.085878
     52 H                     0.093992
     53 H                     0.088775
     54 H                     0.084988
     55 H                     0.082206
     56 H                     0.086312
  ----------------------------------------
  Sum of atomic charges =     0.000000

                    Cartesian Multipole Moments
 -----------------------------------------------------------------
    Charge (ESU x 10^10)
                -0.0000
    Dipole Moment (Debye)
         X       0.1593      Y       1.8811      Z      -0.8358
       Tot       2.0646
    Quadrupole Moments (Debye-Ang)
        XX    -159.8246     XY      10.6971     YY    -152.2683
        XZ      20.5457     YZ       3.1414     ZZ    -166.4898

 Total job time:  52.56s(wall), 2494.51s(cpu)
        *  Thank you very much for using Q-Chem.  Have a nice day.  *
