 Q-Chem 5.0, Q-Chem, Inc., Pleasanton, CA (2017)
 Q-Chem 5.0.1 for Intel X86 EM64T Linux

User input:
--------------------------------------------------------------
$molecule
0  1
O -3.4618792068 0.9085396348 1.468862836
C -4.3580449455 1.1458867873 0.6288839194
C -4.5790590786 0.4447674729 -0.7582945655
C -3.5947299865 -0.7729180112 -0.9784792834
C -2.3548260241 -0.81585373 -0.0100875849
O -1.5265306259 0.3140614931 -0.315393788
C -0.2702195324 0.241793285 0.4698235673
C 0.4410128401 1.6303056736 0.2612882956
O 1.9185933389 1.6710141788 0.4336928388
C 2.6494781896 0.548845229 -0.0737494392
C 4.1485187768 1.0060822903 -0.2360559311
C 5.1742050891 0.0907232214 0.5513650514
C 4.5287873253 -0.8916711741 1.5910319902
O 5.0039548503 -1.9675494755 2.0105692232
O -5.375368436 2.1348041091 0.8058299258
O 3.3163316398 -0.3046631408 2.0817703392
O 2.1884114413 -0.5455020736 -0.4764165032
C 2.6074304286 -1.239244768 2.984932923
C 4.6041576385 0.7090937249 -1.7299720502
C 6.0242078007 1.3558753874 -1.9831105705
C 6.9677783029 0.3270093773 -1.2547167555
C 5.9064689668 -0.6631877038 -0.6381710068
O 4.8736158388 -0.7474727107 -1.6968866096
H 4.2357007486 2.0695136047 0.0450151305
H 5.8958204718 0.7202365421 1.1056042955
H 3.8389529218 0.9417447741 -2.4957475274
H 6.2368415629 1.4086939208 -3.0625288632
H 6.0956081962 2.3706408863 -1.5595329344
H 7.6137106131 -0.2027808574 -1.9729066981
H 7.6020021744 0.7970861598 -0.4862664273
H 6.2805500952 -1.6710797751 -0.3719220452
O -2.0600159063 -1.7169064735 0.8030896174
C -5.2154959533 2.7962229235 2.1217378732
C -5.9699630496 -0.3233707669 -0.718120921
C -6.2904786533 -0.9199487906 -2.1461282864
C -5.3529617098 -2.1847025802 -2.1720141052
C -4.5793270716 -2.0054527585 -0.8092832342
O -5.6361443385 -1.509619449 0.1049884699
H -4.525132535 1.1950391028 -1.5676214264
H -3.1929061595 -0.7391512621 -2.0079539404
H -4.2419507837 3.3222409403 2.1982128555
H -6.7885410477 0.2594596727 -0.2528037508
H -7.3533994877 -1.1996476983 -2.2184028169
H -6.0598337287 -0.2039663062 -2.9514092966
H -5.9390277788 -3.1176442364 -2.1599674755
H -4.6778909102 -2.2017971551 -3.0422714038
H -4.1005407855 -2.9135043672 -0.3937336949
H -5.2886897329 2.0679663029 2.9550636346
H -6.0394232294 3.5295890226 2.1959919088
H 1.6748686107 -0.7252459006 3.2821239961
H 3.2113931139 -1.4697549709 3.886165917
H 2.3588355847 -2.1886871243 2.4686534997
H 0.2010909751 1.9721662459 -0.7717910571
H 0.0504453302 2.3884647858 0.9703938276
H 0.4170784947 -0.5406389842 0.0722201461
H -0.4794224454 0.0486916017 1.5423638059
$end

$rem
JOBTYPE                   OPT
METHOD                    B3LYP
DFT_D                     d3_op
BASIS                     STO-3G
GEOM_OPT_MAX_CYCLES       100
GEOM_OPT_TOL_GRADIENT     300
GEOM_OPT_TOL_DISPLACEMENT 1200
GEOM_OPT_TOL_ENERGY       100
SYMMETRY                  False
THRESH                    12
SCF_CONVERGENCE           8
MAX_SUB_FILE_NUM          128
MEM_STATIC                400
MEM_TOTAL                 4000
$end
--------------------------------------------------------------

   16   -1510.2755242523      5.34E-09 Convergence criterion met
 Total energy in the final basis set = -1510.27552425
   14   -1510.2786010232      3.59E-09 Convergence criterion met
 Total energy in the final basis set = -1510.27860102
   13   -1510.2806321462      7.58E-09 Convergence criterion met
 Total energy in the final basis set = -1510.28063215
   14   -1510.2827591647      4.58E-09 Convergence criterion met
 Total energy in the final basis set = -1510.28275916
   13   -1510.2845417890      9.01E-09 Convergence criterion met
 Total energy in the final basis set = -1510.28454179
   13   -1510.2858541841      7.79E-09 Convergence criterion met
 Total energy in the final basis set = -1510.28585418
   13   -1510.2869666884      6.23E-09 Convergence criterion met
 Total energy in the final basis set = -1510.28696669
   13   -1510.2881166965      8.77E-09 Convergence criterion met
   12   -1510.2923237249      7.04E-09 Convergence criterion met
 Total energy in the final basis set = -1510.29232372
   12   -1510.2923613657      6.40E-09 Convergence criterion met
 Total energy in the final basis set = -1510.29236137
   12   -1510.2923630855      2.13E-09 Convergence criterion met
 Total energy in the final basis set = -1510.29236309
   11   -1510.2923709157      6.22E-09 Convergence criterion met
 Total energy in the final basis set = -1510.29237092
   11   -1510.2923731902      2.60E-09 Convergence criterion met
 Total energy in the final basis set = -1510.29237319
   10   -1510.2923746255      8.60E-09 Convergence criterion met
 Total energy in the final basis set = -1510.29237463

             Standard Nuclear Orientation (Angstroms)
    I     Atom           X                Y                Z
 ----------------------------------------------------------------
    1      O       3.2132027409    -1.9880369331    -0.5261631900
    2      C       4.3319732762    -1.4639983260    -0.7320273970
    3      C       4.7469741199     0.0119231863    -0.4260832715
    4      C       3.5204018020     0.9008992831     0.0293777465
    5      C       2.1298376575     0.1675761133    -0.0097590361
    6      O       1.6841216688     0.1397754867    -1.3712811323
    7      C       0.3742135708    -0.5476214232    -1.4826782298
    8      C      -0.6787049679     0.4408900953    -2.0941454418
    9      O      -2.0187717436    -0.1842740063    -1.9863590132
   10      C      -2.9133014260     0.6799831099    -1.2662762396
   11      C      -4.2664881010    -0.0849136365    -1.0831906693
   12      C      -4.6415670329    -0.3442279232     0.4375256244
   13      C      -3.6028757867     0.2360853660     1.4647968140
   14      O      -3.8517331978     0.9471679351     2.4614184571
   15      O       5.4547945309    -2.1586495832    -1.2734774481
   16      O      -2.2925196098    -0.1928226742     1.0843325240
   17      O      -2.6298463137     1.8446803405    -0.9096096865
   18      C      -1.2779804355     0.4226010978     1.9749064966
   19      C      -5.5123423771     0.7898837979    -1.5435783818
   20      C      -6.7582979235    -0.1712738583    -1.6958757147
   21      C      -7.1331958892    -0.4246017902    -0.1876736731
   22      C      -6.0230564556     0.4232271401     0.5475706462
   23      O      -5.8334674835     1.5920882847    -0.3431986893
   24      H      -4.1994033901    -1.0320873372    -1.6458752770
   25      H      -4.7566961493    -1.4271024633     0.6293577147
   26      H      -5.3159749559     1.4509270435    -2.4099443827
   27      H      -7.5732039869     0.3365746840    -2.2359427142
   28      H      -6.5018602879    -1.0988537614    -2.2322674981
   29      H      -8.1358399563    -0.0349300452     0.0495479809
   30      H      -7.0932435224    -1.4905911109     0.0876754070
   31      H      -6.2659065231     0.7561063223     1.5755760956
   32      O       1.4557969884    -0.2051701390     0.9779461414
   33      C       5.0959398799    -3.5719246226    -1.5414146516
   34      C       5.6629691608     0.0825838104     0.8737546211
   35      C       6.2934709854     1.5284998511     0.9631884503
   36      C       5.0582086648     2.3714913542     1.4535008180
   37      C       3.9400893971     1.2598297166     1.5163725678
   38      O       4.6739308529     0.0562464488     1.9736291875
   39      H       5.2620949659     0.4307622292    -1.3091160558
   40      H       3.4434260900     1.8041839725    -0.6017719511
   41      H       4.2871642558    -3.6492438034    -2.2966004048
   42      H       6.3812766609    -0.7550283228     0.9687182699
   43      H       7.1136625176     1.5451189585     1.6985736187
   44      H       6.6841712454     1.8690728723    -0.0091337175
   45      H       5.2330270262     2.7998061880     2.4531444157
   46      H       4.7934831691     3.1855862168     0.7600814051
   47      H       3.0857463648     1.4682280084     2.1890174620
   48      H       4.7673738555    -4.0907105362    -0.6179281961
   49      H       6.0133251923    -4.0501386653    -1.9309072997
   50      H      -0.2815711077     0.1157944592     1.5842628180
   51      H      -1.3995077192     0.0712935086     3.0191890461
   52      H      -1.3651600859     1.5276023271     1.9642920555
   53      H      -0.6941428433     1.4046385906    -1.5386622542
   54      H      -0.4567894771     0.6384442828    -3.1639784667
   55      H       0.0435800906    -0.8808244153    -0.4763149198
   56      H       0.5033598344    -1.4342011699    -2.1380539612
 ----------------------------------------------------------------

    9   -1510.2923752563      5.38E-09 Convergence criterion met
 Total energy in the final basis set = -1510.29237526
 Final energy is   -1510.29237525631
 **  OPTIMIZATION CONVERGED  **

                    Orbital Energies (a.u.)
 --------------------------------------------------------------

 Alpha MOs
 -- Occupied --
-18.948 -18.930 -18.925 -18.923 -18.891 -18.890 -18.882 -18.876
-18.867 -18.867 -10.110 -10.105 -10.094 -10.090 -10.073 -10.065
-10.063 -10.061 -10.061 -10.056 -10.052 -10.045 -10.040 -10.036
-10.033 -10.032 -10.024 -10.022 -10.017 -10.016  -1.024  -1.010
 -1.006  -0.998  -0.974  -0.965  -0.947  -0.937  -0.930  -0.926
 -0.768  -0.758  -0.728  -0.721  -0.713  -0.704  -0.692  -0.670
 -0.646  -0.615  -0.596  -0.576  -0.548  -0.541  -0.539  -0.533
 -0.516  -0.504  -0.483  -0.470  -0.466  -0.459  -0.454  -0.445
 -0.438  -0.434  -0.426  -0.419  -0.415  -0.406  -0.398  -0.396
 -0.394  -0.382  -0.376  -0.368  -0.358  -0.355  -0.353  -0.349
 -0.346  -0.340  -0.333  -0.331  -0.326  -0.322  -0.320  -0.315
 -0.308  -0.305  -0.304  -0.300  -0.291  -0.283  -0.279  -0.278
 -0.266  -0.262  -0.249  -0.243  -0.239  -0.238  -0.229  -0.190
 -0.180  -0.167  -0.165  -0.162  -0.157  -0.153  -0.149  -0.143
 -0.139

          Ground-State Mulliken Net Atomic Charges

     Atom                 Charge (a.u.)
  ----------------------------------------
      1 O                    -0.205782
      2 C                     0.215286
      3 C                    -0.077881
      4 C                    -0.080350
      5 C                     0.226128
      6 O                    -0.176368
      7 C                    -0.053560
      8 C                    -0.055993
      9 O                    -0.174048
     10 C                     0.214856
     11 C                    -0.079045
     12 C                    -0.078637
     13 C                     0.211731
     14 O                    -0.210539
     15 O                    -0.167746
     16 O                    -0.175982
     17 O                    -0.217236
     18 C                    -0.145266
     19 C                     0.025640
     20 C                    -0.143855
     21 C                    -0.144186
     22 C                     0.024183
     23 O                    -0.187188
     24 H                     0.085823
     25 H                     0.084009
     26 H                     0.082641
     27 H                     0.077288
     28 H                     0.072839
     29 H                     0.077743
     30 H                     0.072722
     31 H                     0.090966
     32 O                    -0.218575
     33 C                    -0.128104
     34 C                     0.025370
     35 C                    -0.143749
     36 C                    -0.143831
     37 C                     0.025276
     38 O                    -0.188429
     39 H                     0.088330
     40 H                     0.086174
     41 H                     0.090746
     42 H                     0.085687
     43 H                     0.079135
     44 H                     0.074235
     45 H                     0.079337
     46 H                     0.074160
     47 H                     0.090193
     48 H                     0.092841
     49 H                     0.092944
     50 H                     0.111321
     51 H                     0.082061
     52 H                     0.084414
     53 H                     0.100008
     54 H                     0.081533
     55 H                     0.104779
     56 H                     0.085953
  ----------------------------------------
  Sum of atomic charges =    -0.000000

                    Cartesian Multipole Moments
 -----------------------------------------------------------------
    Charge (ESU x 10^10)
                -0.0000
    Dipole Moment (Debye)
         X       2.9952      Y      -1.8329      Z      -2.8933
       Tot       4.5500
    Quadrupole Moments (Debye-Ang)
        XX    -140.3915     XY      12.8550     YY    -157.3935
        XZ       1.1457     YZ       2.2429     ZZ    -161.2305

 Total job time:  112.46s(wall), 5356.45s(cpu)
        *  Thank you very much for using Q-Chem.  Have a nice day.  *
