 Q-Chem 5.0, Q-Chem, Inc., Pleasanton, CA (2017)
 Q-Chem 5.0.1 for Intel X86 EM64T Linux

User input:
--------------------------------------------------------------
$molecule
0  1
O -3.94934 -3.66094 2.70899
C -3.26408 -4.56952 2.26188
C -3.36658 -6.02376 2.66595
C -4.50911 -6.4091 3.61989
C -5.52725 -5.33211 3.92247
O -4.93772 -4.32077 4.62608
C -5.86754 -3.32674 5.06948
C -5.12048 -2.1214 5.6309
O -5.95625 -1.41874 6.56398
C -6.71481 -2.20109 7.37125
C -7.20821 -1.47476 8.59993
C -8.7323 -1.48229 8.78798
C -9.49645 -2.48807 7.9506
O -10.59102 -2.95612 8.22883
O -2.29948 -4.27189 1.35194
O -9.13758 -2.5917 6.64128
O -6.42985 -3.37111 7.6139
C -9.77838 -3.37225 5.70043
C -6.7605 -2.0819 9.95431
C -6.8083 -1.01432 11.04658
C -8.30332 -0.84126 11.20434
C -8.80706 -1.93819 10.25968
O -7.81511 -2.93275 10.32491
H -6.80468 -0.43619 8.56295
H -9.20341 -0.48965 8.61722
H -5.74719 -2.53891 9.92089
H -6.40536 -1.48202 11.97373
H -6.24223 -0.08212 10.83366
H -8.57313 -1.07165 12.25899
H -8.70015 0.15669 10.91747
H -9.83062 -2.2539 10.55903
O -6.71147 -5.37237 3.60307
C -2.05072 -3.00384 0.87014
C -3.70318 -6.92321 1.45846
C -3.24788 -8.3551 1.73382
C -4.27095 -8.78177 2.76407
C -5.16493 -7.53742 2.79873
O -5.10429 -7.0382 1.48594
H -2.37013 -6.30539 3.07448
H -4.13687 -6.78392 4.59941
H -1.76508 -2.32673 1.7034
H -3.26313 -6.56421 0.50238
H -3.4191 -8.94086 0.80218
H -2.18619 -8.46147 2.0443
H -4.83468 -9.6517 2.35926
H -3.86176 -9.02825 3.76771
H -6.17582 -7.80966 3.17432
H -2.95175 -2.6069 0.35533
H -1.2143 -3.04858 0.14292
H -9.25972 -3.26469 4.72571
H -10.83339 -3.04541 5.58226
H -9.74548 -4.43985 6.00604
H -4.27716 -2.52553 6.23447
H -4.67853 -1.45978 4.85603
H -6.66784 -3.87544 5.58759
H -6.43386 -2.90821 4.2061
$end

$opt
CONSTRAINT
tors           1           2           3           4      +5.896
tors           3           4           5           6     -66.316
tors           4           5           6           7    -173.968
tors           5           6           7           8    -170.287
tors           6           7           8           9    -155.246
tors           7           8           9          10     +39.253
tors           8           9          10          11    +161.053
tors           9          10          11          12    +123.968
tors          11          12          13          14    +155.184
ENDCONSTRAINT
$end

$rem
JOBTYPE                   OPT
METHOD                    B3LYP
DFT_D                     d3_op
BASIS                     STO-3G
GEOM_OPT_MAX_CYCLES       100
GEOM_OPT_TOL_GRADIENT     300
GEOM_OPT_TOL_DISPLACEMENT 1200
GEOM_OPT_TOL_ENERGY       100
SYMMETRY                  False
THRESH                    12
SCF_CONVERGENCE           8
MAX_SUB_FILE_NUM          128
MEM_STATIC                400
MEM_TOTAL                 4000
$end
--------------------------------------------------------------

   15   -1510.0979494215      8.65E-09 Convergence criterion met
 Total energy in the final basis set = -1510.09794942
   14   -1510.1746423957      7.55E-09 Convergence criterion met
 Total energy in the final basis set = -1510.17464240
   14   -1510.2183802270      7.28E-09 Convergence criterion met
 Total energy in the final basis set = -1510.21838023
   14   -1510.2450386238      7.52E-09 Convergence criterion met
 Total energy in the final basis set = -1510.24503862
   13   -1510.2579969839      9.16E-09 Convergence criterion met
 Total energy in the final basis set = -1510.25799698
   14   -1510.2638940107      4.26E-09 Convergence criterion met
 Total energy in the final basis set = -1510.26389401
   13   -1510.2674984510      4.70E-09 Convergence criterion met
 Total energy in the final basis set = -1510.26749845
   13   -1510.2696245154      3.27E-09 Convergence criterion met
   11   -1510.2753833497      5.18E-09 Convergence criterion met
 Total energy in the final basis set = -1510.27538335
   11   -1510.2754350938      2.90E-09 Convergence criterion met
 Total energy in the final basis set = -1510.27543509
   10   -1510.2754513364      7.04E-09 Convergence criterion met
 Total energy in the final basis set = -1510.27545134
    9   -1510.2754595527      8.68E-09 Convergence criterion met
 Total energy in the final basis set = -1510.27545955
    9   -1510.2754625809      4.55E-09 Convergence criterion met
 Total energy in the final basis set = -1510.27546258
    9   -1510.2754640174      2.52E-09 Convergence criterion met
 Total energy in the final basis set = -1510.27546402

             Standard Nuclear Orientation (Angstroms)
    I     Atom           X                Y                Z
 ----------------------------------------------------------------
    1      O      -3.4618792068     0.9085396348     1.4688628360
    2      C      -4.3580449455     1.1458867873     0.6288839194
    3      C      -4.5790590786     0.4447674729    -0.7582945655
    4      C      -3.5947299865    -0.7729180112    -0.9784792834
    5      C      -2.3548260241    -0.8158537300    -0.0100875849
    6      O      -1.5265306259     0.3140614931    -0.3153937880
    7      C      -0.2702195324     0.2417932850     0.4698235673
    8      C       0.4410128401     1.6303056736     0.2612882956
    9      O       1.9185933389     1.6710141788     0.4336928388
   10      C       2.6494781896     0.5488452290    -0.0737494392
   11      C       4.1485187768     1.0060822903    -0.2360559311
   12      C       5.1742050891     0.0907232214     0.5513650514
   13      C       4.5287873253    -0.8916711741     1.5910319902
   14      O       5.0039548503    -1.9675494755     2.0105692232
   15      O      -5.3753684360     2.1348041091     0.8058299258
   16      O       3.3163316398    -0.3046631408     2.0817703392
   17      O       2.1884114413    -0.5455020736    -0.4764165032
   18      C       2.6074304286    -1.2392447680     2.9849329230
   19      C       4.6041576385     0.7090937249    -1.7299720502
   20      C       6.0242078007     1.3558753874    -1.9831105705
   21      C       6.9677783029     0.3270093773    -1.2547167555
   22      C       5.9064689668    -0.6631877038    -0.6381710068
   23      O       4.8736158388    -0.7474727107    -1.6968866096
   24      H       4.2357007486     2.0695136047     0.0450151305
   25      H       5.8958204718     0.7202365421     1.1056042955
   26      H       3.8389529218     0.9417447741    -2.4957475274
   27      H       6.2368415629     1.4086939208    -3.0625288632
   28      H       6.0956081962     2.3706408863    -1.5595329344
   29      H       7.6137106131    -0.2027808574    -1.9729066981
   30      H       7.6020021744     0.7970861598    -0.4862664273
   31      H       6.2805500952    -1.6710797751    -0.3719220452
   32      O      -2.0600159063    -1.7169064735     0.8030896174
   33      C      -5.2154959533     2.7962229235     2.1217378732
   34      C      -5.9699630496    -0.3233707669    -0.7181209210
   35      C      -6.2904786533    -0.9199487906    -2.1461282864
   36      C      -5.3529617098    -2.1847025802    -2.1720141052
   37      C      -4.5793270716    -2.0054527585    -0.8092832342
   38      O      -5.6361443385    -1.5096194490     0.1049884699
   39      H      -4.5251325350     1.1950391028    -1.5676214264
   40      H      -3.1929061595    -0.7391512621    -2.0079539404
   41      H      -4.2419507837     3.3222409403     2.1982128555
   42      H      -6.7885410477     0.2594596727    -0.2528037508
   43      H      -7.3533994877    -1.1996476983    -2.2184028169
   44      H      -6.0598337287    -0.2039663062    -2.9514092966
   45      H      -5.9390277788    -3.1176442364    -2.1599674755
   46      H      -4.6778909102    -2.2017971551    -3.0422714038
   47      H      -4.1005407855    -2.9135043672    -0.3937336949
   48      H      -5.2886897329     2.0679663029     2.9550636346
   49      H      -6.0394232294     3.5295890226     2.1959919088
   50      H       1.6748686107    -0.7252459006     3.2821239961
   51      H       3.2113931139    -1.4697549709     3.8861659170
   52      H       2.3588355847    -2.1886871243     2.4686534997
   53      H       0.2010909751     1.9721662459    -0.7717910571
   54      H       0.0504453302     2.3884647858     0.9703938276
   55      H       0.4170784947    -0.5406389842     0.0722201461
   56      H      -0.4794224454     0.0486916017     1.5423638059
 ----------------------------------------------------------------

    9   -1510.2754640687      2.10E-09 Convergence criterion met
 Total energy in the final basis set = -1510.27546407
 Final energy is   -1510.27546406866
 **  OPTIMIZATION CONVERGED  **

                    Orbital Energies (a.u.)
 --------------------------------------------------------------

 Alpha MOs
 -- Occupied --
-18.941 -18.939 -18.929 -18.914 -18.887 -18.883 -18.882 -18.880
-18.869 -18.858 -10.103 -10.103 -10.102 -10.088 -10.068 -10.068
-10.065 -10.060 -10.058 -10.058 -10.053 -10.046 -10.038 -10.038
-10.035 -10.029 -10.021 -10.020 -10.019 -10.017  -1.016  -1.016
 -1.003  -0.994  -0.969  -0.967  -0.940  -0.940  -0.934  -0.921
 -0.763  -0.760  -0.725  -0.721  -0.710  -0.703  -0.691  -0.664
 -0.662  -0.613  -0.595  -0.579  -0.545  -0.541  -0.537  -0.534
 -0.512  -0.508  -0.481  -0.474  -0.461  -0.455  -0.451  -0.442
 -0.435  -0.430  -0.427  -0.414  -0.412  -0.410  -0.409  -0.389
 -0.383  -0.377  -0.373  -0.372  -0.367  -0.355  -0.352  -0.349
 -0.344  -0.337  -0.331  -0.330  -0.327  -0.322  -0.320  -0.312
 -0.309  -0.305  -0.304  -0.298  -0.295  -0.291  -0.277  -0.272
 -0.270  -0.256  -0.252  -0.242  -0.237  -0.233  -0.231  -0.183
 -0.181  -0.171  -0.166  -0.157  -0.156  -0.145  -0.142  -0.138
 -0.135

          Ground-State Mulliken Net Atomic Charges

     Atom                 Charge (a.u.)
  ----------------------------------------
      1 O                    -0.206971
      2 C                     0.215657
      3 C                    -0.076629
      4 C                    -0.081576
      5 C                     0.216846
      6 O                    -0.181458
      7 C                    -0.067060
      8 C                    -0.049604
      9 O                    -0.173584
     10 C                     0.223102
     11 C                    -0.078185
     12 C                    -0.079380
     13 C                     0.214413
     14 O                    -0.208537
     15 O                    -0.170369
     16 O                    -0.167937
     17 O                    -0.217926
     18 C                    -0.127217
     19 C                     0.025588
     20 C                    -0.144812
     21 C                    -0.142877
     22 C                     0.024510
     23 O                    -0.185449
     24 H                     0.086086
     25 H                     0.084965
     26 H                     0.082358
     27 H                     0.078136
     28 H                     0.073472
     29 H                     0.078614
     30 H                     0.073327
     31 H                     0.090083
     32 O                    -0.217478
     33 C                    -0.128052
     34 C                     0.023852
     35 C                    -0.144909
     36 C                    -0.142757
     37 C                     0.023461
     38 O                    -0.192182
     39 H                     0.086713
     40 H                     0.082536
     41 H                     0.088943
     42 H                     0.085929
     43 H                     0.077703
     44 H                     0.073022
     45 H                     0.077705
     46 H                     0.073383
     47 H                     0.090940
     48 H                     0.091891
     49 H                     0.091303
     50 H                     0.093836
     51 H                     0.090904
     52 H                     0.095785
     53 H                     0.083873
     54 H                     0.088005
     55 H                     0.112716
     56 H                     0.085294
  ----------------------------------------
  Sum of atomic charges =     0.000000

                    Cartesian Multipole Moments
 -----------------------------------------------------------------
    Charge (ESU x 10^10)
                 0.0000
    Dipole Moment (Debye)
         X      -0.1946      Y       3.9551      Z      -0.9787
       Tot       4.0790
    Quadrupole Moments (Debye-Ang)
        XX    -145.0096     XY       3.2900     YY    -160.9442
        XZ       4.9055     YZ       3.7659     ZZ    -153.8584

 Total job time:  62.37s(wall), 2960.54s(cpu)
        *  Thank you very much for using Q-Chem.  Have a nice day.  *
