 Q-Chem 5.0, Q-Chem, Inc., Pleasanton, CA (2017)
 Q-Chem 5.0.1 for Intel X86 EM64T Linux

User input:
--------------------------------------------------------------
$molecule
0  1
O -3.94934 -3.66094 2.70899
C -3.26408 -4.56952 2.26188
C -3.36658 -6.02376 2.66595
C -2.45359 -6.50204 3.8068
C -1.66855 -5.43381 4.53528
O -0.7511 -4.87555 3.69145
C 0.12491 -3.95059 4.34437
C 1.05445 -3.29861 3.32603
O 2.255 -2.85134 3.97526
C 3.2256 -3.78801 4.11571
C 4.58854 -3.1894 4.37012
C 5.28295 -3.68076 5.64865
C 4.69888 -4.92854 6.28001
O 5.30531 -5.70949 6.99898
O -2.24881 -4.26354 1.41234
O 3.35003 -4.91131 6.47209
O 3.06334 -4.98113 3.87786
C 2.63525 -5.86543 7.16933
C 5.63105 -3.56817 3.30258
C 6.74574 -2.52416 3.28111
C 7.43084 -2.81712 4.60063
C 6.65134 -4.0614 5.045
O 6.28885 -4.68894 3.83833
H 4.47919 -2.07987 4.38498
H 5.35147 -2.9043 6.44177
H 5.19478 -3.69247 2.28721
H 7.4342 -2.80587 2.45211
H 6.41805 -1.47163 3.14088
H 8.49545 -3.06587 4.39399
H 7.36686 -2.00796 5.36014
H 7.27095 -4.66927 5.74039
O -1.80474 -5.13774 5.71805
C -1.97669 -2.99147 0.95448
C -4.74607 -6.33729 3.29539
C -5.05628 -7.82775 3.16468
C -4.08608 -8.4044 4.17133
C -3.49971 -7.11529 4.75704
O -4.55398 -6.1905 4.68008
H -3.28919 -6.62707 1.73359
H -1.71634 -7.26163 3.46382
H -1.75293 -2.31662 1.80781
H -5.57652 -5.74403 2.85273
H -6.09204 -7.97922 3.54536
H -4.98071 -8.2447 2.13744
H -4.66724 -8.9577 4.94231
H -3.29484 -9.06016 3.74763
H -3.09277 -7.31289 5.77317
H -2.84451 -2.59725 0.38379
H -1.09317 -3.02706 0.28474
H 1.55966 -5.59559 7.15972
H 2.97955 -5.91047 8.2245
H 2.75929 -6.85955 6.68922
H 1.30952 -4.02125 2.51615
H 0.53515 -2.45512 2.82572
H 0.73664 -4.54341 5.05894
H -0.41241 -3.1557 4.90971
$end

$opt
CONSTRAINT
tors           1           2           3           4     -92.226
tors           3           4           5           6     -66.316
tors           4           5           6           7    -173.968
tors           5           6           7           8    -176.116
tors           6           7           8           9    -155.246
tors           7           8           9          10     +84.950
tors           8           9          10          11    +161.053
tors           9          10          11          12    +123.968
tors          11          12          13          14    +155.184
ENDCONSTRAINT
$end

$rem
JOBTYPE                   OPT
METHOD                    B3LYP
DFT_D                     d3_op
BASIS                     STO-3G
GEOM_OPT_MAX_CYCLES       100
GEOM_OPT_TOL_GRADIENT     300
GEOM_OPT_TOL_DISPLACEMENT 1200
GEOM_OPT_TOL_ENERGY       100
SYMMETRY                  False
THRESH                    12
SCF_CONVERGENCE           8
MAX_SUB_FILE_NUM          128
MEM_STATIC                400
MEM_TOTAL                 4000
$end
--------------------------------------------------------------

   15   -1510.1446696436      9.74E-09 Convergence criterion met
 Total energy in the final basis set = -1510.14466964
   14   -1510.2143384154      7.33E-09 Convergence criterion met
 Total energy in the final basis set = -1510.21433842
   14   -1510.2517179128      8.01E-09 Convergence criterion met
 Total energy in the final basis set = -1510.25171791
   13   -1510.2680921657      8.88E-09 Convergence criterion met
 Total energy in the final basis set = -1510.26809217
   13   -1510.2736969922      8.75E-09 Convergence criterion met
 Total energy in the final basis set = -1510.27369699
    2   -1510.2736969922      9.17E-09 Convergence criterion met
 Total energy in the final basis set = -1510.27369699
   13   -1510.2755758268      6.22E-09 Convergence criterion met
 Total energy in the final basis set = -1510.27557583
   13   -1510.2764968215      6.94E-09 Convergence criterion met
   10   -1510.2791614747      4.24E-09 Convergence criterion met
 Total energy in the final basis set = -1510.27916147
   10   -1510.2791648839      4.13E-09 Convergence criterion met
 Total energy in the final basis set = -1510.27916488
   10   -1510.2791691151      7.91E-09 Convergence criterion met
 Total energy in the final basis set = -1510.27916912
   11   -1510.2791740196      2.05E-09 Convergence criterion met
 Total energy in the final basis set = -1510.27917402
   11   -1510.2791789929      2.29E-09 Convergence criterion met
 Total energy in the final basis set = -1510.27917899
   10   -1510.2791812143      7.85E-09 Convergence criterion met
 Total energy in the final basis set = -1510.27918121

             Standard Nuclear Orientation (Angstroms)
    I     Atom           X                Y                Z
 ----------------------------------------------------------------
    1      O      -4.6102783243     1.7678306419     1.4124082058
    2      C      -4.1852127750     1.6034125561     0.2486631957
    3      C      -4.5800758536     0.4769531821    -0.7672631059
    4      C      -3.6331648848    -0.8025611360    -0.7136186905
    5      C      -2.5289598626    -0.7501274599     0.4022643690
    6      O      -1.6122988146     0.2998923700     0.0795965526
    7      C      -0.4700303118     0.2945557148     1.0270948104
    8      C       0.4222461540     1.5358329755     0.6568310967
    9      O       1.8279075989     1.3433229093     1.0814320067
   10      C       2.5538998943     0.6117844730     0.0739561731
   11      C       4.0873495578     0.8472180882     0.3093657035
   12      C       4.9317381465    -0.4805173320     0.4946002484
   13      C       4.1024186631    -1.8004859066     0.6699296286
   14      O       4.4818385551    -2.9609662193     0.4056077358
   15      O      -3.2595571368     2.4869983184    -0.3969413962
   16      O       2.8617469325    -1.4920963322     1.3189338273
   17      O       2.0127806799     0.0549883867    -0.9052685168
   18      C       2.0383435457    -2.7140405475     1.4697234972
   19      C       4.7327194024     1.4015432379    -1.0361988510
   20      C       6.1970625964     1.9127434178    -0.7323512787
   21      C       6.9832244833     0.5527902785    -0.6330637842
   22      C       5.8113982978    -0.4854365067    -0.8260422569
   23      O       4.9403523284     0.1690369263    -1.8299127713
   24      H       4.2142075751     1.5366944092     1.1614261506
   25      H       5.5799602433    -0.3930704913     1.3872162033
   26      H       4.0909815855     2.1130762508    -1.5911440246
   27      H       6.5675176779     2.5364843457    -1.5610985895
   28      H       6.2436060073     2.4994852239     0.1990459760
   29      H       7.7198173278     0.4539245651    -1.4464035053
   30      H       7.5015609979     0.4269868973     0.3308426920
   31      H       6.1111696119    -1.4968213113    -1.1639248723
   32      O      -2.4084482181    -1.5069451966     1.3893309484
   33      C      -2.8288817941     3.5415790110     0.5482314594
   34      C      -5.9826115942    -0.1789374977    -0.4180928618
   35      C      -6.4946970613    -0.9528554643    -1.6953418701
   36      C      -5.5501733930    -2.2122579496    -1.6850653966
   37      C      -4.6885734431    -1.9382430786    -0.3904064107
   38      O      -5.6358084649    -1.2638952787     0.5280383820
   39      H      -4.5714512686     0.9149360882    -1.7812019397
   40      H      -3.1327279045    -0.9562166681    -1.6872257727
   41      H      -2.4104346011     3.1088551972     1.4795744300
   42      H      -6.7094815904     0.5171635416     0.0433916226
   43      H      -7.5511638651    -1.2397855292    -1.5725351039
   44      H      -6.3952639581    -0.3528675089    -2.6140494578
   45      H      -6.1233284161    -3.1467489892    -1.5770311075
   46      H      -4.9260545541    -2.2833510848    -2.5903384871
   47      H      -4.2503005322    -2.8306581927     0.0970982184
   48      H      -3.6680223435     4.2140095173     0.8216727544
   49      H      -2.0476656773     4.1219254110     0.0237689418
   50      H       1.2147168938    -2.4512687145     2.1589113882
   51      H       2.6306198995    -3.5510254155     1.8907615214
   52      H       1.6174453912    -3.0323829869     0.4937664810
   53      H       0.3580702552     1.6882868476    -0.4422764959
   54      H       0.0650007586     2.4447779602     1.1796424594
   55      H       0.1240494227    -0.6364369250     0.9044770679
   56      H      -0.8215485007     0.3446205442     2.0798485087
 ----------------------------------------------------------------

    9   -1510.2791819145      4.87E-09 Convergence criterion met
 Total energy in the final basis set = -1510.27918191
 Final energy is   -1510.27918191449
 **  OPTIMIZATION CONVERGED  **

                    Orbital Energies (a.u.)
 --------------------------------------------------------------

 Alpha MOs
 -- Occupied --
-18.943 -18.934 -18.933 -18.928 -18.890 -18.884 -18.881 -18.876
-18.873 -18.868 -10.105 -10.099 -10.098 -10.097 -10.073 -10.070
-10.068 -10.065 -10.062 -10.060 -10.057 -10.056 -10.041 -10.038
-10.038 -10.036 -10.023 -10.021 -10.019 -10.018  -1.018  -1.014
 -1.008  -1.005  -0.972  -0.967  -0.942  -0.938  -0.934  -0.932
 -0.765  -0.762  -0.728  -0.723  -0.712  -0.705  -0.697  -0.665
 -0.663  -0.617  -0.597  -0.584  -0.547  -0.545  -0.539  -0.536
 -0.514  -0.509  -0.486  -0.472  -0.464  -0.455  -0.452  -0.448
 -0.442  -0.432  -0.428  -0.415  -0.414  -0.412  -0.410  -0.399
 -0.392  -0.383  -0.376  -0.369  -0.363  -0.358  -0.353  -0.349
 -0.347  -0.340  -0.337  -0.332  -0.331  -0.328  -0.326  -0.314
 -0.309  -0.308  -0.304  -0.298  -0.293  -0.287  -0.281  -0.275
 -0.273  -0.256  -0.254  -0.250  -0.247  -0.236  -0.232  -0.183
 -0.181  -0.173  -0.173  -0.160  -0.157  -0.150  -0.148  -0.144
 -0.142

          Ground-State Mulliken Net Atomic Charges

     Atom                 Charge (a.u.)
  ----------------------------------------
      1 O                    -0.211684
      2 C                     0.207037
      3 C                    -0.078720
      4 C                    -0.077576
      5 C                     0.207785
      6 O                    -0.171736
      7 C                    -0.049143
      8 C                    -0.048703
      9 O                    -0.175415
     10 C                     0.215215
     11 C                    -0.079051
     12 C                    -0.078961
     13 C                     0.213913
     14 O                    -0.209837
     15 O                    -0.166352
     16 O                    -0.168963
     17 O                    -0.217879
     18 C                    -0.129827
     19 C                     0.026140
     20 C                    -0.144660
     21 C                    -0.143060
     22 C                     0.024505
     23 O                    -0.185975
     24 H                     0.086540
     25 H                     0.085513
     26 H                     0.082803
     27 H                     0.078533
     28 H                     0.073804
     29 H                     0.078845
     30 H                     0.073652
     31 H                     0.090439
     32 O                    -0.210556
     33 C                    -0.127882
     34 C                     0.025099
     35 C                    -0.143790
     36 C                    -0.144378
     37 C                     0.024319
     38 O                    -0.186696
     39 H                     0.085858
     40 H                     0.086816
     41 H                     0.086960
     42 H                     0.086146
     43 H                     0.077996
     44 H                     0.072960
     45 H                     0.078096
     46 H                     0.073094
     47 H                     0.089057
     48 H                     0.087787
     49 H                     0.088677
     50 H                     0.094150
     51 H                     0.095273
     52 H                     0.091592
     53 H                     0.097107
     54 H                     0.086053
     55 H                     0.090689
     56 H                     0.088395
  ----------------------------------------
  Sum of atomic charges =     0.000000

                    Cartesian Multipole Moments
 -----------------------------------------------------------------
    Charge (ESU x 10^10)
                 0.0000
    Dipole Moment (Debye)
         X       1.4032      Y       2.2705      Z      -0.6104
       Tot       2.7381
    Quadrupole Moments (Debye-Ang)
        XX    -153.4006     XY       6.4544     YY    -154.5746
        XZ      20.0118     YZ       1.0112     ZZ    -165.0184

 Total job time:  65.68s(wall), 3122.70s(cpu)
        *  Thank you very much for using Q-Chem.  Have a nice day.  *
