 Q-Chem 5.0, Q-Chem, Inc., Pleasanton, CA (2017)
 Q-Chem 5.0.1 for Intel X86 EM64T Linux

User input:
--------------------------------------------------------------
$molecule
0  1
O -4.6102783243 1.7678306419 1.4124082058
C -4.185212775 1.6034125561 0.2486631957
C -4.5800758536 0.4769531821 -0.7672631059
C -3.6331648848 -0.802561136 -0.7136186905
C -2.5289598626 -0.7501274599 0.402264369
O -1.6122988146 0.29989237 0.0795965526
C -0.4700303118 0.2945557148 1.0270948104
C 0.422246154 1.5358329755 0.6568310967
O 1.8279075989 1.3433229093 1.0814320067
C 2.5538998943 0.611784473 0.0739561731
C 4.0873495578 0.8472180882 0.3093657035
C 4.9317381465 -0.480517332 0.4946002484
C 4.1024186631 -1.8004859066 0.6699296286
O 4.4818385551 -2.9609662193 0.4056077358
O -3.2595571368 2.4869983184 -0.3969413962
O 2.8617469325 -1.4920963322 1.3189338273
O 2.0127806799 0.0549883867 -0.9052685168
C 2.0383435457 -2.7140405475 1.4697234972
C 4.7327194024 1.4015432379 -1.036198851
C 6.1970625964 1.9127434178 -0.7323512787
C 6.9832244833 0.5527902785 -0.6330637842
C 5.8113982978 -0.4854365067 -0.8260422569
O 4.9403523284 0.1690369263 -1.8299127713
H 4.2142075751 1.5366944092 1.1614261506
H 5.5799602433 -0.3930704913 1.3872162033
H 4.0909815855 2.1130762508 -1.5911440246
H 6.5675176779 2.5364843457 -1.5610985895
H 6.2436060073 2.4994852239 0.199045976
H 7.7198173278 0.4539245651 -1.4464035053
H 7.5015609979 0.4269868973 0.330842692
H 6.1111696119 -1.4968213113 -1.1639248723
O -2.4084482181 -1.5069451966 1.3893309484
C -2.8288817941 3.541579011 0.5482314594
C -5.9826115942 -0.1789374977 -0.4180928618
C -6.4946970613 -0.9528554643 -1.6953418701
C -5.550173393 -2.2122579496 -1.6850653966
C -4.6885734431 -1.9382430786 -0.3904064107
O -5.6358084649 -1.2638952787 0.528038382
H -4.5714512686 0.9149360882 -1.7812019397
H -3.1327279045 -0.9562166681 -1.6872257727
H -2.4104346011 3.1088551972 1.47957443
H -6.7094815904 0.5171635416 0.0433916226
H -7.5511638651 -1.2397855292 -1.5725351039
H -6.3952639581 -0.3528675089 -2.6140494578
H -6.1233284161 -3.1467489892 -1.5770311075
H -4.9260545541 -2.2833510848 -2.5903384871
H -4.2503005322 -2.8306581927 0.0970982184
H -3.6680223435 4.2140095173 0.8216727544
H -2.0476656773 4.121925411 0.0237689418
H 1.2147168938 -2.4512687145 2.1589113882
H 2.6306198995 -3.5510254155 1.8907615214
H 1.6174453912 -3.0323829869 0.493766481
H 0.3580702552 1.6882868476 -0.4422764959
H 0.0650007586 2.4447779602 1.1796424594
H 0.1240494227 -0.636436925 0.9044770679
H -0.8215485007 0.3446205442 2.0798485087
$end

$rem
JOBTYPE                   OPT
METHOD                    B3LYP
DFT_D                     d3_op
BASIS                     STO-3G
GEOM_OPT_MAX_CYCLES       100
GEOM_OPT_TOL_GRADIENT     300
GEOM_OPT_TOL_DISPLACEMENT 1200
GEOM_OPT_TOL_ENERGY       100
SYMMETRY                  False
THRESH                    12
SCF_CONVERGENCE           8
MAX_SUB_FILE_NUM          128
MEM_STATIC                400
MEM_TOTAL                 4000
$end
--------------------------------------------------------------

   16   -1510.2791087660      5.57E-09 Convergence criterion met
 Total energy in the final basis set = -1510.27910877
   14   -1510.2800921673      5.58E-09 Convergence criterion met
 Total energy in the final basis set = -1510.28009217
   14   -1510.2825525623      5.30E-09 Convergence criterion met
 Total energy in the final basis set = -1510.28255256
   14   -1510.2838473546      8.02E-09 Convergence criterion met
 Total energy in the final basis set = -1510.28384735
   14   -1510.2853525857      9.43E-09 Convergence criterion met
 Total energy in the final basis set = -1510.28535259
   14   -1510.2843779542      2.46E-09 Convergence criterion met
 Total energy in the final basis set = -1510.28437795
   14   -1510.2861539299      9.63E-09 Convergence criterion met
 Total energy in the final basis set = -1510.28615393
   15   -1510.2864944912      2.65E-09 Convergence criterion met
   12   -1510.2904513044      3.20E-09 Convergence criterion met
 Total energy in the final basis set = -1510.29045130
   12   -1510.2904699515      4.63E-09 Convergence criterion met
 Total energy in the final basis set = -1510.29046995
   12   -1510.2905015134      9.61E-09 Convergence criterion met
 Total energy in the final basis set = -1510.29050151
   11   -1510.2905092055      4.58E-09 Convergence criterion met
 Total energy in the final basis set = -1510.29050921
   11   -1510.2905246875      6.97E-09 Convergence criterion met
 Total energy in the final basis set = -1510.29052469
   10   -1510.2905185128      4.84E-09 Convergence criterion met
 Total energy in the final basis set = -1510.29051851

             Standard Nuclear Orientation (Angstroms)
    I     Atom           X                Y                Z
 ----------------------------------------------------------------
    1      O      -3.6721719877     1.4355448726     1.7755493128
    2      C      -3.9365191487     1.4887256639     0.5552647026
    3      C      -4.5438570818     0.3622874444    -0.3547512063
    4      C      -3.5359258542    -0.8173077817    -0.6946528527
    5      C      -2.1264627991    -0.6812583036    -0.0201806340
    6      O      -1.6878618819     0.6700278739    -0.1621058288
    7      C      -0.4193681929     0.9143542859     0.5688058796
    8      C       0.5197530959     1.7780985981    -0.3415424611
    9      O       1.8779633343     1.7677845941     0.2507072000
   10      C       2.7732602309     1.0130227561    -0.5847037882
   11      C       4.1343045423     0.8827608699     0.1700238867
   12      C       4.5643591488    -0.6253552584     0.4195002475
   13      C       3.5752366181    -1.6942086213    -0.1728014063
   14      O       3.8674684842    -2.6298528008    -0.9473105847
   15      O      -3.7944793239     2.6684125266    -0.2502208682
   16      O       2.2586729282    -1.4521911042     0.3358925643
   17      O       2.4740218673     0.5783217204    -1.7184831098
   18      C       1.3078827275    -2.4301096129    -0.2497385349
   19      C       5.3579213751     1.3930764744    -0.7096021207
   20      C       6.5996290627     1.5917871340     0.2477749761
   21      C       7.0290651444     0.0982844010     0.5017619968
   22      C       5.9488049409    -0.6773033348    -0.3483814102
   23      O       5.7218979319     0.2078005031    -1.5148744806
   24      H       4.0507840850     1.4389496653     1.1197343725
   25      H       4.6830731077    -0.8199699007     1.5013947604
   26      H       5.1249757269     2.2527020796    -1.3676240010
   27      H       7.3927029502     2.1599535992    -0.2638822670
   28      H       6.3266092930     2.1207028152     1.1748761007
   29      H       8.0409047201    -0.1015467827     0.1150021035
   30      H       6.9958808233    -0.1784995517     1.5675417953
   31      H       6.2309100717    -1.6937597669    -0.6855712737
   32      O      -1.4716704185    -1.5921743043     0.5357660297
   33      C      -3.1925064653     3.7567334912     0.5514475259
   34      C      -5.6921712125    -0.4473605650     0.3893675562
   35      C      -6.5253996788    -1.2355066380    -0.6970860563
   36      C      -5.5282834198    -2.3987685672    -1.0600310145
   37      C      -4.3143755129    -2.0672422750    -0.1083605481
   38      O      -4.9593678143    -1.5159416479     1.1057524626
   39      H      -4.9109791614     0.8398072202    -1.2798891871
   40      H      -3.3854480897    -0.9011039278    -1.7874402211
   41      H      -2.1614247877     3.5017350597     0.8709210203
   42      H      -6.2896628834     0.1541690125     1.1014141372
   43      H      -7.4571734228    -1.6260103631    -0.2578682803
   44      H      -6.7797012606    -0.6059168594    -1.5646831692
   45      H      -5.9510332809    -3.3853779856    -0.8126929313
   46      H      -5.2367874545    -2.3954751278    -2.1225253723
   47      H      -3.6555055184    -2.9182474548     0.1533395361
   48      H      -3.7934753109     3.9826855612     1.4559488161
   49      H      -3.1643356928     4.6442427730    -0.1071028872
   50      H       0.2982066086    -2.1535762573     0.1258225436
   51      H       1.5566924885    -3.4647644521     0.0605415591
   52      H       1.3241077994    -2.3821980045    -1.3571450982
   53      H       0.5746638326     1.3413010568    -1.3633592692
   54      H       0.1654021786     2.8277289288    -0.3966461892
   55      H       0.0709142026    -0.0507476184     0.8142042005
   56      H      -0.6560889156     1.4457029075     1.5155385406
 ----------------------------------------------------------------

    9   -1510.2905192889      4.82E-09 Convergence criterion met
 Total energy in the final basis set = -1510.29051929
 Final energy is   -1510.29051928895
 **  OPTIMIZATION CONVERGED  **

                    Orbital Energies (a.u.)
 --------------------------------------------------------------

 Alpha MOs
 -- Occupied --
-18.950 -18.934 -18.931 -18.927 -18.895 -18.890 -18.887 -18.877
-18.872 -18.868 -10.117 -10.101 -10.098 -10.095 -10.075 -10.071
-10.064 -10.062 -10.061 -10.060 -10.056 -10.045 -10.044 -10.038
-10.038 -10.036 -10.023 -10.022 -10.020 -10.019  -1.027  -1.014
 -1.006  -1.004  -0.972  -0.969  -0.953  -0.938  -0.932  -0.930
 -0.767  -0.763  -0.731  -0.723  -0.712  -0.707  -0.698  -0.664
 -0.652  -0.619  -0.599  -0.583  -0.549  -0.544  -0.541  -0.537
 -0.516  -0.509  -0.486  -0.477  -0.462  -0.460  -0.457  -0.450
 -0.440  -0.433  -0.430  -0.417  -0.413  -0.409  -0.404  -0.401
 -0.401  -0.387  -0.372  -0.368  -0.363  -0.361  -0.355  -0.351
 -0.346  -0.337  -0.334  -0.333  -0.330  -0.328  -0.326  -0.314
 -0.309  -0.309  -0.304  -0.303  -0.294  -0.289  -0.283  -0.276
 -0.271  -0.258  -0.253  -0.251  -0.246  -0.236  -0.233  -0.192
 -0.176  -0.174  -0.173  -0.170  -0.160  -0.149  -0.148  -0.146
 -0.143

          Ground-State Mulliken Net Atomic Charges

     Atom                 Charge (a.u.)
  ----------------------------------------
      1 O                    -0.219972
      2 C                     0.212622
      3 C                    -0.079846
      4 C                    -0.077371
      5 C                     0.223214
      6 O                    -0.169439
      7 C                    -0.054171
      8 C                    -0.055242
      9 O                    -0.172969
     10 C                     0.213855
     11 C                    -0.079282
     12 C                    -0.078614
     13 C                     0.211615
     14 O                    -0.209261
     15 O                    -0.170224
     16 O                    -0.177786
     17 O                    -0.213416
     18 C                    -0.143865
     19 C                     0.025985
     20 C                    -0.143682
     21 C                    -0.144286
     22 C                     0.024550
     23 O                    -0.186524
     24 H                     0.086927
     25 H                     0.084744
     26 H                     0.082975
     27 H                     0.078055
     28 H                     0.073382
     29 H                     0.078425
     30 H                     0.073239
     31 H                     0.091688
     32 O                    -0.209644
     33 C                    -0.128185
     34 C                     0.025553
     35 C                    -0.143772
     36 C                    -0.144129
     37 C                     0.024306
     38 O                    -0.186909
     39 H                     0.086601
     40 H                     0.087783
     41 H                     0.083577
     42 H                     0.084946
     43 H                     0.078685
     44 H                     0.073925
     45 H                     0.079238
     46 H                     0.073628
     47 H                     0.090717
     48 H                     0.089178
     49 H                     0.088997
     50 H                     0.106090
     51 H                     0.083452
     52 H                     0.085958
     53 H                     0.103772
     54 H                     0.084539
     55 H                     0.106218
     56 H                     0.090152
  ----------------------------------------
  Sum of atomic charges =     0.000000

                    Cartesian Multipole Moments
 -----------------------------------------------------------------
    Charge (ESU x 10^10)
                 0.0000
    Dipole Moment (Debye)
         X      -1.1592      Y       2.2051      Z       0.1925
       Tot       2.4987
    Quadrupole Moments (Debye-Ang)
        XX    -147.4318     XY       5.6865     YY    -154.9970
        XZ      21.7403     YZ       1.5322     ZZ    -168.7506

 Total job time:  117.91s(wall), 5612.80s(cpu)
        *  Thank you very much for using Q-Chem.  Have a nice day.  *
