 Q-Chem 5.0, Q-Chem, Inc., Pleasanton, CA (2017)
 Q-Chem 5.0.1 for Intel X86 EM64T Linux

User input:
--------------------------------------------------------------
$molecule
0  1
O -3.94934 -3.66094 2.70899
C -3.26408 -4.56952 2.26188
C -3.36658 -6.02376 2.66595
C -2.45359 -6.50204 3.8068
C -1.66855 -5.43381 4.53528
O -0.41103 -5.88945 4.81175
C 0.34974 -4.9866 5.6213
C 1.81441 -5.41105 5.64771
O 2.57263 -4.50254 6.46172
C 1.97837 -4.12256 7.62
C 2.97 -3.72136 8.68601
C 2.34656 -3.15127 9.96843
C 0.86075 -3.39221 10.14449
O 0.35702 -4.14243 10.96789
O -2.20718 -4.25902 1.46702
O 0.03434 -2.49796 9.53507
O 1.02255 -3.37518 7.50593
C -1.33999 -2.49016 9.65784
C 3.79267 -4.89652 9.23949
C 5.10402 -4.37026 9.81816
C 4.59774 -3.64838 11.05038
C 3.11013 -4.02017 10.99527
O 3.09746 -5.29299 10.39428
H 3.64776 -2.97053 8.21782
H 2.54059 -2.0676 10.12837
H 3.99034 -5.69181 8.48796
H 5.69387 -5.25772 10.14218
H 5.71967 -3.7544 9.12777
H 5.0859 -4.09764 11.94364
H 4.74162 -2.54619 11.04946
H 2.66719 -3.95811 12.01387
O -2.16061 -4.41107 5.00087
C -1.89165 -2.98042 1.05787
C -4.748 -6.32252 3.29487
C -5.0555 -7.81816 3.21354
C -4.11415 -8.35404 4.26874
C -3.50978 -7.04626 4.78745
O -4.55916 -6.11976 4.67145
H -3.28654 -6.62783 1.73457
H -1.76313 -7.31659 3.48849
H -1.68094 -2.33765 1.93932
H -5.5751 -5.74533 2.82531
H -6.10142 -7.96633 3.5661
H -4.94161 -8.26379 2.20196
H -4.71987 -8.83461 5.06926
H -3.34068 -9.0631 3.90225
H -3.10049 -7.19326 5.81205
H -2.72969 -2.54932 0.46946
H -0.9864 -3.01634 0.4178
H -1.75431 -1.65903 9.05123
H -1.62992 -2.33717 10.71933
H -1.76126 -3.44881 9.28633
H 1.87905 -6.43361 6.07954
H 2.24381 -5.42939 4.62383
H -0.13408 -5.05078 6.62031
H 0.31136 -3.95838 5.1889
$end

$opt
CONSTRAINT
tors           1           2           3           4     -92.226
tors           3           4           5           6    -140.463
tors           4           5           6           7    -173.968
tors           5           6           7           8    -168.254
tors           6           7           8           9    -179.965
tors           7           8           9          10     +42.028
tors           8           9          10          11    +153.980
tors           9          10          11          12    +174.228
tors          11          12          13          14    +109.862
ENDCONSTRAINT
$end

$rem
JOBTYPE                   OPT
METHOD                    B3LYP
DFT_D                     d3_op
BASIS                     STO-3G
GEOM_OPT_MAX_CYCLES       100
GEOM_OPT_TOL_GRADIENT     300
GEOM_OPT_TOL_DISPLACEMENT 1200
GEOM_OPT_TOL_ENERGY       100
SYMMETRY                  False
THRESH                    12
SCF_CONVERGENCE           8
MAX_SUB_FILE_NUM          128
MEM_STATIC                400
MEM_TOTAL                 4000
$end
--------------------------------------------------------------

   15   -1510.0950522051      8.08E-09 Convergence criterion met
 Total energy in the final basis set = -1510.09505221
   14   -1510.1724195531      9.24E-09 Convergence criterion met
 Total energy in the final basis set = -1510.17241955
   14   -1510.2156009166      7.50E-09 Convergence criterion met
 Total energy in the final basis set = -1510.21560092
   15   -1510.2403386399      1.49E-09 Convergence criterion met
 Total energy in the final basis set = -1510.24033864
   14   -1510.2531034849      3.26E-09 Convergence criterion met
 Total energy in the final basis set = -1510.25310348
   13   -1510.2606257428      9.78E-09 Convergence criterion met
 Total energy in the final basis set = -1510.26062574
   13   -1510.2658455502      5.09E-09 Convergence criterion met
 Total energy in the final basis set = -1510.26584555
   13   -1510.2698100959      2.47E-09 Convergence criterion met
   11   -1510.2763589513      5.72E-09 Convergence criterion met
 Total energy in the final basis set = -1510.27635895
   11   -1510.2763887209      4.83E-09 Convergence criterion met
 Total energy in the final basis set = -1510.27638872
   10   -1510.2764016803      8.44E-09 Convergence criterion met
 Total energy in the final basis set = -1510.27640168
    9   -1510.2764089618      7.79E-09 Convergence criterion met
 Total energy in the final basis set = -1510.27640896
    9   -1510.2764154427      5.70E-09 Convergence criterion met
 Total energy in the final basis set = -1510.27641544
    9   -1510.2764171051      4.63E-09 Convergence criterion met
 Total energy in the final basis set = -1510.27641711

             Standard Nuclear Orientation (Angstroms)
    I     Atom           X                Y                Z
 ----------------------------------------------------------------
    1      O      -5.2275727524    -0.0741309004     1.9665129970
    2      C      -5.0730776713     0.6792002985     0.9830497759
    3      C      -5.1845488872     0.3083514997    -0.5407109042
    4      C      -3.7972726176    -0.1101080330    -1.1883530352
    5      C      -2.5605448515     0.1322721176    -0.2621109594
    6      O      -1.4881064143     0.6231834625    -1.0768256600
    7      C      -0.2454656558     0.7315414236    -0.2688460087
    8      C       0.7516070616     1.5529862590    -1.1628106332
    9      O       2.1052836372     1.8267686422    -0.6116431376
   10      C       2.7285383529     0.7337267832     0.0682070661
   11      C       4.2791001905     0.9479048524    -0.0291646003
   12      C       5.1066435004    -0.1107458164     0.8054492018
   13      C       4.2314243997    -1.0929852076     1.6717106391
   14      O       4.0539338444    -2.3139270894     1.4771436240
   15      O      -4.7071178680     2.0632363842     1.0760116750
   16      O       3.7660358627    -0.3741857682     2.8240104665
   17      O       2.1577493477    -0.2599565655     0.5721682770
   18      C       2.8752989781    -1.2433393171     3.6245601038
   19      C       4.7696666574     0.6112780031    -1.5050407453
   20      C       6.2584333119     1.1151152680    -1.6686144226
   21      C       7.0457210282     0.0066057924    -0.8753070311
   22      C       5.8568704457    -0.8912054166    -0.3536174544
   23      O       4.8920538816    -0.8624408367    -1.4797071011
   24      H       4.5200140727     1.9885975442     0.2524156719
   25      H       5.8164490437     0.4011203113     1.4795980235
   26      H       4.0705029011     0.9365734891    -2.2999430684
   27      H       6.5435985395     1.1335245808    -2.7324900356
   28      H       6.4022855957     2.1229457919    -1.2472893463
   29      H       7.7024990435    -0.5750202819    -1.5416792548
   30      H       7.6506326995     0.4195476156    -0.0523634161
   31      H       6.1142108162    -1.9370929402    -0.0970648325
   32      O      -2.4730263661    -0.0479670633     0.9719512603
   33      C      -4.4622683518     2.4185482697     2.4922787445
   34      C      -5.9984748485    -1.0442464874    -0.6965458715
   35      C      -6.3469569678    -1.2680696688    -2.2206995911
   36      C      -4.9558004824    -1.7375855332    -2.7883048369
   37      C      -4.0580468678    -1.6536522054    -1.4906932488
   38      O      -4.9746690835    -2.0775786557    -0.4118495831
   39      H      -5.6415822381     1.1513939872    -1.0885981185
   40      H      -3.6180239243     0.4411036933    -2.1283534389
   41      H      -3.6523642579     1.7971382157     2.9264709029
   42      H      -6.8476029312    -1.1441238152     0.0063839872
   43      H      -7.1139737609    -2.0509907762    -2.3305119148
   44      H      -6.7124392354    -0.3461981183    -2.7007541562
   45      H      -4.9995445762    -2.7750385086    -3.1569715612
   46      H      -4.5835640023    -1.0893648526    -3.5975922596
   47      H      -3.1483503788    -2.2849068329    -1.5016228782
   48      H      -5.3740279922     2.2915823037     3.1112704101
   49      H      -4.1594001208     3.4818174340     2.4947797821
   50      H       2.6295668323    -0.6747830267     4.5403427859
   51      H       3.3701341087    -2.1975365344     3.8975164175
   52      H       1.9425936353    -1.4756452593     3.0702419241
   53      H       0.8695843763     1.0173687032    -2.1320742858
   54      H       0.3215127013     2.5536599549    -1.3743317755
   55      H       0.1829621601    -0.2656764752    -0.0374568536
   56      H      -0.4432405198     1.2527680431     0.6922505104
 ----------------------------------------------------------------

    9   -1510.2764181032      3.44E-09 Convergence criterion met
 Total energy in the final basis set = -1510.27641810
 Final energy is   -1510.27641810320
 **  OPTIMIZATION CONVERGED  **

                    Orbital Energies (a.u.)
 --------------------------------------------------------------

 Alpha MOs
 -- Occupied --
-18.944 -18.935 -18.924 -18.918 -18.897 -18.888 -18.887 -18.878
-18.868 -18.860 -10.115 -10.101 -10.091 -10.090 -10.083 -10.069
-10.064 -10.061 -10.057 -10.057 -10.057 -10.052 -10.042 -10.038
-10.035 -10.033 -10.022 -10.020 -10.020 -10.019  -1.022  -1.014
 -1.002  -0.997  -0.972  -0.969  -0.952  -0.938  -0.927  -0.923
 -0.764  -0.762  -0.730  -0.722  -0.715  -0.705  -0.697  -0.657
 -0.653  -0.622  -0.596  -0.583  -0.546  -0.545  -0.538  -0.537
 -0.516  -0.509  -0.481  -0.467  -0.459  -0.455  -0.453  -0.449
 -0.446  -0.431  -0.430  -0.410  -0.408  -0.406  -0.402  -0.399
 -0.388  -0.384  -0.377  -0.367  -0.362  -0.353  -0.350  -0.348
 -0.345  -0.342  -0.337  -0.333  -0.331  -0.327  -0.326  -0.313
 -0.309  -0.308  -0.304  -0.303  -0.298  -0.278  -0.278  -0.272
 -0.271  -0.260  -0.254  -0.247  -0.244  -0.236  -0.233  -0.188
 -0.182  -0.170  -0.164  -0.160  -0.155  -0.146  -0.144  -0.142
 -0.141

          Ground-State Mulliken Net Atomic Charges

     Atom                 Charge (a.u.)
  ----------------------------------------
      1 O                    -0.205115
      2 C                     0.211570
      3 C                    -0.079425
      4 C                    -0.079552
      5 C                     0.208831
      6 O                    -0.175693
      7 C                    -0.057989
      8 C                    -0.047735
      9 O                    -0.173010
     10 C                     0.219971
     11 C                    -0.076823
     12 C                    -0.081952
     13 C                     0.215562
     14 O                    -0.216369
     15 O                    -0.175731
     16 O                    -0.177201
     17 O                    -0.200478
     18 C                    -0.128905
     19 C                     0.024770
     20 C                    -0.143743
     21 C                    -0.143813
     22 C                     0.024711
     23 O                    -0.189902
     24 H                     0.087716
     25 H                     0.083940
     26 H                     0.082552
     27 H                     0.078271
     28 H                     0.073948
     29 H                     0.078413
     30 H                     0.073722
     31 H                     0.090515
     32 O                    -0.208376
     33 C                    -0.129451
     34 C                     0.026192
     35 C                    -0.144884
     36 C                    -0.142861
     37 C                     0.026138
     38 O                    -0.184029
     39 H                     0.084231
     40 H                     0.085465
     41 H                     0.093489
     42 H                     0.087055
     43 H                     0.078268
     44 H                     0.073029
     45 H                     0.078463
     46 H                     0.073399
     47 H                     0.084148
     48 H                     0.087111
     49 H                     0.086752
     50 H                     0.086442
     51 H                     0.088091
     52 H                     0.091758
     53 H                     0.086509
     54 H                     0.093350
     55 H                     0.107630
     56 H                     0.091026
  ----------------------------------------
  Sum of atomic charges =     0.000000

                    Cartesian Multipole Moments
 -----------------------------------------------------------------
    Charge (ESU x 10^10)
                -0.0000
    Dipole Moment (Debye)
         X       0.9732      Y       3.7330      Z      -2.1671
       Tot       4.4248
    Quadrupole Moments (Debye-Ang)
        XX    -144.7015     XY       1.8078     YY    -164.2386
        XZ      10.8278     YZ       3.5242     ZZ    -154.4686

 Total job time:  62.44s(wall), 2967.65s(cpu)
        *  Thank you very much for using Q-Chem.  Have a nice day.  *
