 Q-Chem 5.0, Q-Chem, Inc., Pleasanton, CA (2017)
 Q-Chem 5.0.1 for Intel X86 EM64T Linux

User input:
--------------------------------------------------------------
$molecule
0  1
O -5.2275727524 -0.0741309004 1.966512997
C -5.0730776713 0.6792002985 0.9830497759
C -5.1845488872 0.3083514997 -0.5407109042
C -3.7972726176 -0.110108033 -1.1883530352
C -2.5605448515 0.1322721176 -0.2621109594
O -1.4881064143 0.6231834625 -1.07682566
C -0.2454656558 0.7315414236 -0.2688460087
C 0.7516070616 1.552986259 -1.1628106332
O 2.1052836372 1.8267686422 -0.6116431376
C 2.7285383529 0.7337267832 0.0682070661
C 4.2791001905 0.9479048524 -0.0291646003
C 5.1066435004 -0.1107458164 0.8054492018
C 4.2314243997 -1.0929852076 1.6717106391
O 4.0539338444 -2.3139270894 1.477143624
O -4.707117868 2.0632363842 1.076011675
O 3.7660358627 -0.3741857682 2.8240104665
O 2.1577493477 -0.2599565655 0.572168277
C 2.8752989781 -1.2433393171 3.6245601038
C 4.7696666574 0.6112780031 -1.5050407453
C 6.2584333119 1.115115268 -1.6686144226
C 7.0457210282 0.0066057924 -0.8753070311
C 5.8568704457 -0.8912054166 -0.3536174544
O 4.8920538816 -0.8624408367 -1.4797071011
H 4.5200140727 1.9885975442 0.2524156719
H 5.8164490437 0.4011203113 1.4795980235
H 4.0705029011 0.9365734891 -2.2999430684
H 6.5435985395 1.1335245808 -2.7324900356
H 6.4022855957 2.1229457919 -1.2472893463
H 7.7024990435 -0.5750202819 -1.5416792548
H 7.6506326995 0.4195476156 -0.0523634161
H 6.1142108162 -1.9370929402 -0.0970648325
O -2.4730263661 -0.0479670633 0.9719512603
C -4.4622683518 2.4185482697 2.4922787445
C -5.9984748485 -1.0442464874 -0.6965458715
C -6.3469569678 -1.2680696688 -2.2206995911
C -4.9558004824 -1.7375855332 -2.7883048369
C -4.0580468678 -1.6536522054 -1.4906932488
O -4.9746690835 -2.0775786557 -0.4118495831
H -5.6415822381 1.1513939872 -1.0885981185
H -3.6180239243 0.4411036933 -2.1283534389
H -3.6523642579 1.7971382157 2.9264709029
H -6.8476029312 -1.1441238152 0.0063839872
H -7.1139737609 -2.0509907762 -2.3305119148
H -6.7124392354 -0.3461981183 -2.7007541562
H -4.9995445762 -2.7750385086 -3.1569715612
H -4.5835640023 -1.0893648526 -3.5975922596
H -3.1483503788 -2.2849068329 -1.5016228782
H -5.3740279922 2.2915823037 3.1112704101
H -4.1594001208 3.481817434 2.4947797821
H 2.6295668323 -0.6747830267 4.5403427859
H 3.3701341087 -2.1975365344 3.8975164175
H 1.9425936353 -1.4756452593 3.0702419241
H 0.8695843763 1.0173687032 -2.1320742858
H 0.3215127013 2.5536599549 -1.3743317755
H 0.1829621601 -0.2656764752 -0.0374568536
H -0.4432405198 1.2527680431 0.6922505104
$end

$rem
JOBTYPE                   OPT
METHOD                    B3LYP
DFT_D                     d3_op
BASIS                     STO-3G
GEOM_OPT_MAX_CYCLES       100
GEOM_OPT_TOL_GRADIENT     300
GEOM_OPT_TOL_DISPLACEMENT 1200
GEOM_OPT_TOL_ENERGY       100
SYMMETRY                  False
THRESH                    12
SCF_CONVERGENCE           8
MAX_SUB_FILE_NUM          128
MEM_STATIC                400
MEM_TOTAL                 4000
$end
--------------------------------------------------------------

   16   -1510.2760461816      6.10E-09 Convergence criterion met
 Total energy in the final basis set = -1510.27604618
   14   -1510.2796056109      3.21E-09 Convergence criterion met
 Total energy in the final basis set = -1510.27960561
   14   -1510.2823445706      2.39E-09 Convergence criterion met
 Total energy in the final basis set = -1510.28234457
   14   -1510.2841966854      4.25E-09 Convergence criterion met
 Total energy in the final basis set = -1510.28419669
   13   -1510.2856243423      5.37E-09 Convergence criterion met
 Total energy in the final basis set = -1510.28562434
   13   -1510.2861697621      2.13E-09 Convergence criterion met
 Total energy in the final basis set = -1510.28616976
   13   -1510.2865847277      6.55E-09 Convergence criterion met
 Total energy in the final basis set = -1510.28658473
   13   -1510.2865947183      8.56E-09 Convergence criterion met
   11   -1510.2928648545      3.92E-09 Convergence criterion met
 Total energy in the final basis set = -1510.29286485
   10   -1510.2928653148      5.28E-09 Convergence criterion met
 Total energy in the final basis set = -1510.29286531
   10   -1510.2928675704      5.34E-09 Convergence criterion met
 Total energy in the final basis set = -1510.29286757
   10   -1510.2928654140      9.64E-09 Convergence criterion met
 Total energy in the final basis set = -1510.29286541
   10   -1510.2928638425      5.22E-09 Convergence criterion met
 Total energy in the final basis set = -1510.29286384
    9   -1510.2928645556      6.09E-09 Convergence criterion met
 Total energy in the final basis set = -1510.29286456

             Standard Nuclear Orientation (Angstroms)
    I     Atom           X                Y                Z
 ----------------------------------------------------------------
    1      O      -2.6967323643     2.2329018572     0.9693838613
    2      C      -3.4881022249     1.7572559611     0.1276709515
    3      C      -4.3064861175     0.4165572646     0.2413198147
    4      C      -3.7075944474    -0.7972484170    -0.5810269564
    5      C      -2.3404131959    -0.4576758836    -1.2603362781
    6      O      -1.8038150245    -1.6413753361    -1.8445365192
    7      C      -0.4311703448    -1.3942043475    -2.3613942763
    8      C       0.5938699155    -2.2233744923    -1.5097600735
    9      O       1.9488050975    -1.6595883335    -1.7183754150
   10      C       2.5493681133    -1.3436081449    -0.4485116098
   11      C       3.9435606200    -0.6907896563    -0.7224861302
   12      C       4.0836436549     0.7719161155    -0.1220330449
   13      C       2.8104205320     1.2738304289     0.6513966970
   14      O       2.7734562665     1.7492091757     1.8060528161
   15      O      -3.9065129670     2.4296988434    -1.0692939710
   16      O       1.6719302681     1.1115245393    -0.1970713943
   17      O       2.0232807771    -1.6043668910     0.6555882827
   18      C       0.4328990799     1.4873279082     0.5274080413
   19      C       5.1044773450    -1.4406748089     0.0665805217
   20      C       6.4884343934    -0.9953762247    -0.5515797950
   21      C       6.6289426189     0.4590051141     0.0347120631
   22      C       5.2975066220     0.5779774552     0.8750442196
   23      O       5.0900766392    -0.7940086443     1.3962595153
   24      H       4.1158226619    -0.6979368988    -1.8128442388
   25      H       4.3184839064     1.4992784649    -0.9210041361
   26      H       4.9608713304    -2.5342149428     0.1653192518
   27      H       7.2968273776    -1.6542389420    -0.1966692283
   28      H       6.4760990829    -1.0129233567    -1.6531785251
   29      H       7.5090586868     0.5458416875     0.6914766643
   30      H       6.6955005920     1.2298988587    -0.7495960292
   31      H       5.3090834088     1.3083634357     1.7075203220
   32      O      -1.7741070349     0.6617565633    -1.2928318758
   33      C      -3.1050727734     3.6593153349    -1.2544377846
   34      C      -4.2524077253    -0.1678324470     1.7162821561
   35      C      -5.4355511464    -1.1976127785     1.8871364989
   36      C      -4.9039821224    -2.4097548732     1.0353375651
   37      C      -3.4936980142    -1.8677933230     0.5758312384
   38      O      -3.0460488223    -1.0296927661     1.7098072748
   39      H      -5.3431286283     0.6215586875    -0.0798531625
   40      H      -4.4076987044    -1.1629424003    -1.3544831505
   41      H      -2.0342477018     3.4174004083    -1.4146404964
   42      H      -4.1658262825     0.6047119236     2.5046309827
   43      H      -5.5564068913    -1.4727563421     2.9469592017
   44      H      -6.3922168964    -0.7994989964     1.5130614948
   45      H      -4.7844352105    -3.3159957174     1.6501607949
   46      H      -5.5551759633    -2.6483391676     0.1790378846
   47      H      -2.7401189677    -2.6424820481     0.3339864397
   48      H      -3.1874110860     4.3386100261    -0.3815323391
   49      H      -3.5101628947     4.1586769919    -2.1537843906
   50      H      -0.4083453577     1.2606419987    -0.1610743244
   51      H       0.4278854046     2.5647011698     0.7870892294
   52      H       0.3214059109     0.8995169969     1.4604898836
   53      H       0.3527674615    -2.1568948765    -0.4247907760
   54      H       0.5903123791    -3.2896862696    -1.8189622068
   55      H      -0.2062162114    -0.3088515188    -2.2783542185
   56      H      -0.4090930823    -1.7025373518    -3.4264720156
 ----------------------------------------------------------------

    9   -1510.2928644795      4.45E-09 Convergence criterion met
 Total energy in the final basis set = -1510.29286448
 Final energy is   -1510.29286447955
 **  OPTIMIZATION CONVERGED  **

                    Orbital Energies (a.u.)
 --------------------------------------------------------------

 Alpha MOs
 -- Occupied --
-18.952 -18.929 -18.922 -18.921 -18.900 -18.890 -18.884 -18.872
-18.866 -18.863 -10.119 -10.097 -10.093 -10.089 -10.075 -10.068
-10.064 -10.059 -10.058 -10.056 -10.053 -10.047 -10.036 -10.035
-10.035 -10.032 -10.023 -10.021 -10.018 -10.016  -1.031  -1.010
 -1.001  -0.998  -0.973  -0.966  -0.955  -0.934  -0.927  -0.925
 -0.767  -0.760  -0.730  -0.721  -0.714  -0.704  -0.695  -0.657
 -0.645  -0.619  -0.596  -0.578  -0.548  -0.541  -0.539  -0.534
 -0.516  -0.505  -0.484  -0.472  -0.461  -0.458  -0.455  -0.447
 -0.442  -0.432  -0.427  -0.413  -0.410  -0.403  -0.402  -0.400
 -0.393  -0.382  -0.370  -0.368  -0.361  -0.355  -0.353  -0.348
 -0.340  -0.336  -0.334  -0.330  -0.328  -0.327  -0.323  -0.314
 -0.309  -0.306  -0.304  -0.299  -0.290  -0.280  -0.279  -0.276
 -0.267  -0.261  -0.247  -0.246  -0.241  -0.237  -0.230  -0.195
 -0.174  -0.171  -0.167  -0.164  -0.156  -0.147  -0.144  -0.143
 -0.140

          Ground-State Mulliken Net Atomic Charges

     Atom                 Charge (a.u.)
  ----------------------------------------
      1 O                    -0.218037
      2 C                     0.214640
      3 C                    -0.081858
      4 C                    -0.077068
      5 C                     0.223691
      6 O                    -0.168891
      7 C                    -0.055371
      8 C                    -0.057002
      9 O                    -0.173908
     10 C                     0.214723
     11 C                    -0.078845
     12 C                    -0.078637
     13 C                     0.211805
     14 O                    -0.208974
     15 O                    -0.174991
     16 O                    -0.178302
     17 O                    -0.212899
     18 C                    -0.141646
     19 C                     0.025858
     20 C                    -0.143831
     21 C                    -0.144253
     22 C                     0.024247
     23 O                    -0.186341
     24 H                     0.085683
     25 H                     0.083429
     26 H                     0.082500
     27 H                     0.077646
     28 H                     0.072839
     29 H                     0.077934
     30 H                     0.072656
     31 H                     0.091522
     32 O                    -0.209724
     33 C                    -0.128418
     34 C                     0.024970
     35 C                    -0.143812
     36 C                    -0.143886
     37 C                     0.024902
     38 O                    -0.188573
     39 H                     0.084789
     40 H                     0.089137
     41 H                     0.090804
     42 H                     0.089951
     43 H                     0.079264
     44 H                     0.073749
     45 H                     0.079474
     46 H                     0.073671
     47 H                     0.087225
     48 H                     0.087608
     49 H                     0.086690
     50 H                     0.105487
     51 H                     0.084608
     52 H                     0.091402
     53 H                     0.103773
     54 H                     0.082790
     55 H                     0.107310
     56 H                     0.088491
  ----------------------------------------
  Sum of atomic charges =     0.000000

                    Cartesian Multipole Moments
 -----------------------------------------------------------------
    Charge (ESU x 10^10)
                 0.0000
    Dipole Moment (Debye)
         X      -1.7527      Y      -0.9852      Z      -4.0015
       Tot       4.4782
    Quadrupole Moments (Debye-Ang)
        XX    -137.1983     XY       3.7987     YY    -154.3755
        XZ      -9.7609     YZ      -0.1692     ZZ    -165.6113

 Total job time:  130.15s(wall), 6197.41s(cpu)
        *  Thank you very much for using Q-Chem.  Have a nice day.  *
