 Q-Chem 5.0, Q-Chem, Inc., Pleasanton, CA (2017)
 Q-Chem 5.0.1 for Intel X86 EM64T Linux

User input:
--------------------------------------------------------------
$molecule
0  1
O -3.94934 -3.66094 2.70899
C -3.26408 -4.56952 2.26188
C -3.36658 -6.02376 2.66595
C -2.07557 -6.71593 3.13292
C -0.8627 -5.83018 3.31315
O 0.26867 -6.51936 2.9808
C 1.40238 -6.15803 3.77666
C 2.67967 -6.71234 3.15426
O 3.6405 -6.99945 4.1825
C 3.25516 -6.68634 5.44449
C 2.45345 -7.7831 6.10407
C 3.27355 -8.99714 6.56431
C 4.77411 -8.79493 6.62864
O 5.54455 -9.4257 7.33794
O -2.40543 -4.29899 1.24373
O 5.37886 -8.10528 5.62631
O 3.44349 -5.57822 5.92628
C 6.7398 -7.91125 5.49429
C 1.80813 -7.35609 7.44283
C 0.60691 -8.24947 7.74785
C 1.30311 -9.55426 8.06905
C 2.7671 -9.10109 8.01879
O 2.72833 -7.75579 8.42509
H 1.65505 -8.17354 5.43833
H 3.08711 -9.92332 5.97721
H 1.49705 -6.2889 7.46671
H 0.14116 -7.85544 8.67979
H -0.16573 -8.30905 6.95242
H 1.01409 -9.86074 9.09888
H 1.11276 -10.384 7.35422
H 3.39256 -9.77665 8.64294
O -0.87599 -4.79545 3.97204
C -2.19721 -3.04249 0.71512
C -4.2675 -6.23231 3.89797
C -4.75166 -7.68239 3.95991
C -3.48693 -8.38177 4.4083
C -2.53624 -7.18932 4.52743
O -3.37109 -6.14899 4.97641
H -3.79458 -6.54683 1.78176
H -1.80042 -7.5941 2.50415
H -1.81235 -2.35695 1.50018
H -5.13961 -5.54346 3.92761
H -5.50797 -7.76677 4.77258
H -5.18747 -8.05125 3.00643
H -3.66079 -8.80638 5.42257
H -3.11305 -9.17696 3.72788
H -1.6819 -7.44838 5.19073
H -3.14469 -2.641 0.2963
H -1.44694 -3.11038 -0.09909
H 6.93307 -7.30213 4.58762
H 7.25942 -8.88711 5.38667
H 7.13478 -7.36893 6.3799
H 2.44013 -7.6986 2.70196
H 3.08306 -6.05493 2.35477
H 1.04082 -6.37684 4.78673
H 1.55965 -5.05458 3.79891
$end

$opt
CONSTRAINT
tors           1           2           3           4    -126.316
tors           3           4           5           6    -145.928
tors           4           5           6           7    -145.829
tors           5           6           7           8    -166.977
tors           6           7           8           9    -149.434
tors           7           8           9          10      -2.287
tors           8           9          10          11     +85.530
tors           9          10          11          12     +74.756
tors          11          12          13          14    +155.184
ENDCONSTRAINT
$end

$rem
JOBTYPE                   OPT
METHOD                    B3LYP
DFT_D                     d3_op
BASIS                     STO-3G
GEOM_OPT_MAX_CYCLES       100
GEOM_OPT_TOL_GRADIENT     300
GEOM_OPT_TOL_DISPLACEMENT 1200
GEOM_OPT_TOL_ENERGY       100
SYMMETRY                  False
THRESH                    12
SCF_CONVERGENCE           8
MAX_SUB_FILE_NUM          128
MEM_STATIC                400
MEM_TOTAL                 4000
$end
--------------------------------------------------------------

   15   -1510.0944285690      5.82E-09 Convergence criterion met
 Total energy in the final basis set = -1510.09442857
   14   -1510.1702042538      6.13E-09 Convergence criterion met
 Total energy in the final basis set = -1510.17020425
   14   -1510.2119812739      6.60E-09 Convergence criterion met
 Total energy in the final basis set = -1510.21198127
   14   -1510.2344030067      5.10E-09 Convergence criterion met
 Total energy in the final basis set = -1510.23440301
   14   -1510.2432601056      4.62E-09 Convergence criterion met
 Total energy in the final basis set = -1510.24326011
   13   -1510.2459493258      3.92E-09 Convergence criterion met
 Total energy in the final basis set = -1510.24594933
   12   -1510.2464657807      9.53E-09 Convergence criterion met
 Total energy in the final basis set = -1510.24646578
   13   -1510.2466522657      5.54E-09 Convergence criterion met
   11   -1510.2467737182      3.13E-09 Convergence criterion met
 Total energy in the final basis set = -1510.24677372
   11   -1510.2467941521      4.49E-09 Convergence criterion met
 Total energy in the final basis set = -1510.24679415
   11   -1510.2468080706      2.73E-09 Convergence criterion met
 Total energy in the final basis set = -1510.24680807
   10   -1510.2468155784      9.72E-09 Convergence criterion met
 Total energy in the final basis set = -1510.24681558
   10   -1510.2468193006      7.42E-09 Convergence criterion met
 Total energy in the final basis set = -1510.24681930
    9   -1510.2468208257      5.29E-09 Convergence criterion met
 Total energy in the final basis set = -1510.24682083

             Standard Nuclear Orientation (Angstroms)
    I     Atom           X                Y                Z
 ----------------------------------------------------------------
    1      O      -5.8630947654     0.8761266634     1.2584316423
    2      C      -5.1864940551     0.9234007531     0.2102206688
    3      C      -4.7406112352    -0.2827977444    -0.6925363410
    4      C      -3.1814027260    -0.3364436953    -0.9624736229
    5      C      -2.3707368403     0.7289247420    -0.1491741938
    6      O      -1.2523446586     1.1701646428    -0.9441902687
    7      C      -0.0919140529     1.4639066310    -0.0649154532
    8      C       0.9445879373     2.2487602671    -0.9583847285
    9      O       2.3982357181     2.1101567554    -0.6782698837
   10      C       2.6819280097     1.2612984455     0.4785311244
   11      C       2.7470092827    -0.2813596410     0.1145280289
   12      C       4.0387953538    -0.7907474696    -0.6499016127
   13      C       5.2820236468     0.1729310285    -0.6373312332
   14      O       6.4788810747    -0.1608282038    -0.7716035421
   15      O      -4.7570908318     2.1337585561    -0.4269471814
   16      O       4.8472222887     1.5165015225    -0.4435646648
   17      O       2.8408308438     1.7292778994     1.6237579751
   18      C       5.9952916182     2.4451518065    -0.3575848149
   19      C       2.7410183429    -1.2362894086     1.3827859406
   20      C       2.1244868804    -2.6166112932     0.9316575975
   21      C       3.2898579665    -3.1770375107     0.0324838479
   22      C       4.3973428207    -2.0662127221     0.2258886068
   23      O       4.1688867094    -1.5646653667     1.6022858473
   24      H       1.8754003936    -0.4918918109    -0.5292441238
   25      H       3.8074652468    -1.0525048768    -1.6989676131
   26      H       2.3043169279    -0.7816436478     2.2934055655
   27      H       1.9437375426    -3.2622027434     1.8061193054
   28      H       1.1782987910    -2.4954974395     0.3799049409
   29      H       3.6524411913    -4.1505538501     0.3987061058
   30      H       2.9955676207    -3.2858724582    -1.0238735452
   31      H       5.4444049303    -2.4057653180     0.1018552586
   32      O      -2.5726894973     1.0715505421     1.0361673273
   33      C      -5.0840658662     3.2965886167     0.4280486055
   34      C      -4.9794127215    -1.6744261723     0.0271062457
   35      C      -4.9546548730    -2.8076321938    -1.0704151408
   36      C      -3.4181393762    -2.8636635648    -1.4099307060
   37      C      -2.8413520684    -1.7894302631    -0.4048556825
   38      O      -3.7209373462    -1.9005737494     0.7787243120
   39      H      -5.2957100937    -0.2204668995    -1.6466395698
   40      H      -2.9338594686    -0.2356086425    -2.0336182340
   41      H      -4.5174468174     3.2618758077     1.3812368756
   42      H      -5.8463776089    -1.6812420775     0.7161139111
   43      H      -5.3082186296    -3.7617492643    -0.6481317221
   44      H      -5.5753037180    -2.5555291839    -1.9449307656
   45      H      -2.9923953094    -3.8567218688    -1.1950669224
   46      H      -3.2039606094    -2.6065313666    -2.4595056622
   47      H      -1.7815451199    -1.9358370243    -0.1183235278
   48      H      -6.1673514212     3.3424192445     0.6611351496
   49      H      -4.7883147365     4.1934657207    -0.1466344348
   50      H       5.5589714557     3.4491045754    -0.2037821283
   51      H       6.5922666714     2.4339640830    -1.2921697242
   52      H       6.6590804501     2.1900192643     0.4935739850
   53      H       0.7790256417     1.9151072939    -2.0090932607
   54      H       0.6954021840     3.3322100328    -0.9156732950
   55      H       0.3220276185     0.5051697329     0.3085336832
   56      H      -0.3997916016     2.0660191036     0.8164011568
 ----------------------------------------------------------------

    9   -1510.2468214322      5.63E-09 Convergence criterion met
 Total energy in the final basis set = -1510.24682143
 Final energy is   -1510.24682143217
 **  OPTIMIZATION CONVERGED  **

                    Orbital Energies (a.u.)
 --------------------------------------------------------------

 Alpha MOs
 -- Occupied --
-18.948 -18.931 -18.930 -18.896 -18.893 -18.892 -18.889 -18.886
-18.880 -18.874 -10.110 -10.106 -10.106 -10.098 -10.077 -10.070
-10.069 -10.068 -10.062 -10.061 -10.061 -10.061 -10.044 -10.042
-10.039 -10.037 -10.026 -10.024 -10.023 -10.023  -1.020  -1.016
 -1.007  -0.999  -0.975  -0.973  -0.944  -0.943  -0.934  -0.929
 -0.767  -0.766  -0.729  -0.726  -0.714  -0.707  -0.701  -0.667
 -0.660  -0.619  -0.603  -0.586  -0.550  -0.547  -0.542  -0.540
 -0.516  -0.512  -0.486  -0.478  -0.466  -0.463  -0.456  -0.447
 -0.438  -0.435  -0.430  -0.417  -0.413  -0.413  -0.410  -0.400
 -0.395  -0.382  -0.377  -0.376  -0.367  -0.360  -0.358  -0.354
 -0.349  -0.344  -0.337  -0.334  -0.332  -0.330  -0.324  -0.317
 -0.315  -0.311  -0.308  -0.306  -0.300  -0.294  -0.287  -0.276
 -0.275  -0.256  -0.253  -0.251  -0.238  -0.238  -0.233  -0.183
 -0.180  -0.174  -0.164  -0.161  -0.153  -0.151  -0.150  -0.148
 -0.144

          Ground-State Mulliken Net Atomic Charges

     Atom                 Charge (a.u.)
  ----------------------------------------
      1 O                    -0.209278
      2 C                     0.215090
      3 C                    -0.079678
      4 C                    -0.078253
      5 C                     0.213909
      6 O                    -0.179087
      7 C                    -0.056490
      8 C                    -0.051920
      9 O                    -0.193769
     10 C                     0.229773
     11 C                    -0.085543
     12 C                    -0.076846
     13 C                     0.214545
     14 O                    -0.211250
     15 O                    -0.174944
     16 O                    -0.161966
     17 O                    -0.186167
     18 C                    -0.124070
     19 C                     0.021396
     20 C                    -0.142682
     21 C                    -0.144997
     22 C                     0.024111
     23 O                    -0.189408
     24 H                     0.075981
     25 H                     0.085865
     26 H                     0.088651
     27 H                     0.079948
     28 H                     0.069097
     29 H                     0.079586
     30 H                     0.072831
     31 H                     0.090219
     32 O                    -0.204551
     33 C                    -0.128791
     34 C                     0.024522
     35 C                    -0.143527
     36 C                    -0.143947
     37 C                     0.025449
     38 O                    -0.186764
     39 H                     0.084536
     40 H                     0.086510
     41 H                     0.092813
     42 H                     0.092252
     43 H                     0.079044
     44 H                     0.073955
     45 H                     0.078298
     46 H                     0.074014
     47 H                     0.077783
     48 H                     0.089335
     49 H                     0.088952
     50 H                     0.098424
     51 H                     0.091795
     52 H                     0.093592
     53 H                     0.082833
     54 H                     0.083953
     55 H                     0.078384
     56 H                     0.096478
  ----------------------------------------
  Sum of atomic charges =    -0.000000

                    Cartesian Multipole Moments
 -----------------------------------------------------------------
    Charge (ESU x 10^10)
                -0.0000
    Dipole Moment (Debye)
         X      -1.1197      Y      -0.9122      Z      -3.9417
       Tot       4.1980
    Quadrupole Moments (Debye-Ang)
        XX    -170.7607     XY       2.0636     YY    -150.4708
        XZ       5.9945     YZ       2.6214     ZZ    -166.6201

 Total job time:  46.90s(wall), 2226.28s(cpu)
        *  Thank you very much for using Q-Chem.  Have a nice day.  *
