 Q-Chem 5.0, Q-Chem, Inc., Pleasanton, CA (2017)
 Q-Chem 5.0.1 for Intel X86 EM64T Linux

User input:
--------------------------------------------------------------
$molecule
0  1
O -5.8630947654 0.8761266634 1.2584316423
C -5.1864940551 0.9234007531 0.2102206688
C -4.7406112352 -0.2827977444 -0.692536341
C -3.181402726 -0.3364436953 -0.9624736229
C -2.3707368403 0.728924742 -0.1491741938
O -1.2523446586 1.1701646428 -0.9441902687
C -0.0919140529 1.463906631 -0.0649154532
C 0.9445879373 2.2487602671 -0.9583847285
O 2.3982357181 2.1101567554 -0.6782698837
C 2.6819280097 1.2612984455 0.4785311244
C 2.7470092827 -0.281359641 0.1145280289
C 4.0387953538 -0.7907474696 -0.6499016127
C 5.2820236468 0.1729310285 -0.6373312332
O 6.4788810747 -0.1608282038 -0.7716035421
O -4.7570908318 2.1337585561 -0.4269471814
O 4.8472222887 1.5165015225 -0.4435646648
O 2.8408308438 1.7292778994 1.6237579751
C 5.9952916182 2.4451518065 -0.3575848149
C 2.7410183429 -1.2362894086 1.3827859406
C 2.1244868804 -2.6166112932 0.9316575975
C 3.2898579665 -3.1770375107 0.0324838479
C 4.3973428207 -2.0662127221 0.2258886068
O 4.1688867094 -1.5646653667 1.6022858473
H 1.8754003936 -0.4918918109 -0.5292441238
H 3.8074652468 -1.0525048768 -1.6989676131
H 2.3043169279 -0.7816436478 2.2934055655
H 1.9437375426 -3.2622027434 1.8061193054
H 1.178298791 -2.4954974395 0.3799049409
H 3.6524411913 -4.1505538501 0.3987061058
H 2.9955676207 -3.2858724582 -1.0238735452
H 5.4444049303 -2.405765318 0.1018552586
O -2.5726894973 1.0715505421 1.0361673273
C -5.0840658662 3.2965886167 0.4280486055
C -4.9794127215 -1.6744261723 0.0271062457
C -4.954654873 -2.8076321938 -1.0704151408
C -3.4181393762 -2.8636635648 -1.409930706
C -2.8413520684 -1.7894302631 -0.4048556825
O -3.7209373462 -1.9005737494 0.778724312
H -5.2957100937 -0.2204668995 -1.6466395698
H -2.9338594686 -0.2356086425 -2.033618234
H -4.5174468174 3.2618758077 1.3812368756
H -5.8463776089 -1.6812420775 0.7161139111
H -5.3082186296 -3.7617492643 -0.6481317221
H -5.575303718 -2.5555291839 -1.9449307656
H -2.9923953094 -3.8567218688 -1.1950669224
H -3.2039606094 -2.6065313666 -2.4595056622
H -1.7815451199 -1.9358370243 -0.1183235278
H -6.1673514212 3.3424192445 0.6611351496
H -4.7883147365 4.1934657207 -0.1466344348
H 5.5589714557 3.4491045754 -0.2037821283
H 6.5922666714 2.433964083 -1.2921697242
H 6.6590804501 2.1900192643 0.493573985
H 0.7790256417 1.9151072939 -2.0090932607
H 0.695402184 3.3322100328 -0.915673295
H 0.3220276185 0.5051697329 0.3085336832
H -0.3997916016 2.0660191036 0.8164011568
$end

$rem
JOBTYPE                   OPT
METHOD                    B3LYP
DFT_D                     d3_op
BASIS                     STO-3G
GEOM_OPT_MAX_CYCLES       100
GEOM_OPT_TOL_GRADIENT     300
GEOM_OPT_TOL_DISPLACEMENT 1200
GEOM_OPT_TOL_ENERGY       100
SYMMETRY                  False
THRESH                    12
SCF_CONVERGENCE           8
MAX_SUB_FILE_NUM          128
MEM_STATIC                400
MEM_TOTAL                 4000
$end
--------------------------------------------------------------

   16   -1510.2468043909      4.88E-09 Convergence criterion met
 Total energy in the final basis set = -1510.24680439
   15   -1510.2508961460      2.69E-09 Convergence criterion met
 Total energy in the final basis set = -1510.25089615
   14   -1510.2537070613      9.30E-09 Convergence criterion met
 Total energy in the final basis set = -1510.25370706
   15   -1510.2551938950      2.64E-09 Convergence criterion met
 Total energy in the final basis set = -1510.25519390
   14   -1510.2565048640      8.92E-09 Convergence criterion met
 Total energy in the final basis set = -1510.25650486
   14   -1510.2576451247      7.00E-09 Convergence criterion met
 Total energy in the final basis set = -1510.25764512
   15   -1510.2592217275      2.27E-09 Convergence criterion met
 Total energy in the final basis set = -1510.25922173
   15   -1510.2588957078      2.94E-09 Convergence criterion met
    9   -1510.2922013052      5.90E-09 Convergence criterion met
 Total energy in the final basis set = -1510.29220131
    9   -1510.2922022456      8.50E-09 Convergence criterion met
 Total energy in the final basis set = -1510.29220225
   10   -1510.2922019111      7.87E-09 Convergence criterion met
 Total energy in the final basis set = -1510.29220191
    9   -1510.2922026232      1.72E-09 Convergence criterion met
 Total energy in the final basis set = -1510.29220262
    9   -1510.2922049741      3.19E-09 Convergence criterion met
 Total energy in the final basis set = -1510.29220497
    9   -1510.2922060583      2.65E-09 Convergence criterion met
 Total energy in the final basis set = -1510.29220606

             Standard Nuclear Orientation (Angstroms)
    I     Atom           X                Y                Z
 ----------------------------------------------------------------
    1      O      -3.4092355604     1.3315368803     1.8798735448
    2      C      -3.2811399609     1.1163463481     0.6554778758
    3      C      -4.4048206938     0.6724563753    -0.3475473163
    4      C      -4.0508219410    -0.6385856401    -1.1702808359
    5      C      -2.6551169215    -1.2329849530    -0.7882239809
    6      O      -1.8569061880    -1.3071573476    -1.9818347881
    7      C      -0.4869122007    -1.7631111215    -1.6475145996
    8      C       0.5232156065    -0.6348117796    -2.0676912602
    9      O       1.9200357598    -0.9970921618    -1.7218536212
   10      C       2.2035319449    -0.6856010991    -0.3543601990
   11      C       3.7006729098    -1.0430743600    -0.0661072486
   12      C       4.5994798262     0.2339061498     0.2240588580
   13      C       3.8194358001     1.5942306288     0.1495947784
   14      O       3.8300403369     2.5260622460     0.9800504409
   15      O      -2.0590449540     1.2548515554    -0.0757484252
   16      O       3.0709222965     1.6100191531    -1.0737915807
   17      O       1.3683804128    -0.2423984867     0.4665077188
   18      C       2.2625051797     2.8464349264    -1.1685773696
   19      C       3.8537950929    -1.8237344155     1.3110398701
   20      C       5.2981172971    -2.4623516737     1.3607654458
   21      C       6.1833499635    -1.1928287770     1.6493880027
   22      C       5.0844000152    -0.0615043253     1.7022620151
   23      O       3.9159269758    -0.7372153540     2.3136993314
   24      H       4.0902420926    -1.6217780155    -0.9214768098
   25      H       5.4466569528     0.2797896117    -0.4853183875
   26      H       3.0199038344    -2.5149684756     1.5407268634
   27      H       5.3651177524    -3.1971657293     2.1787279348
   28      H       5.5636314179    -2.9608559133     0.4148723957
   29      H       6.7008350583    -1.2734306785     2.6184746499
   30      H       6.9313349501    -1.0075149022     0.8623198237
   31      H       5.3486840375     0.8488018499     2.2749695829
   32      O      -2.2688144235    -1.6156399990     0.3380208647
   33      C      -0.9439452325     1.6193053184     0.8336857294
   34      C      -5.7057620245     0.2075079408     0.4259956736
   35      C      -6.9101862742     0.1755931214    -0.5934844979
   36      C      -6.5660521403    -1.1152681825    -1.4273781941
   37      C      -5.2390791753    -1.5943088532    -0.7161106811
   38      O      -5.4476054707    -1.2259894761     0.7010822636
   39      H      -4.6129530774     1.5146275192    -1.0328837371
   40      H      -4.0623786501    -0.4521754013    -2.2580672976
   41      H      -0.1099726141     0.8960683579     0.6813678645
   42      H      -5.8827945525     0.7553653167     1.3721236146
   43      H      -7.8664698645     0.0659226221    -0.0575965517
   44      H      -6.9551775677     1.0845893172    -1.2144136318
   45      H      -7.3514980860    -1.8813698763    -1.3292256746
   46      H      -6.4112715697    -0.9033867246    -2.4975961911
   47      H      -5.0190970637    -2.6757279272    -0.8075160169
   48      H      -1.2995741491     1.5909977205     1.8821756275
   49      H      -0.6060549255     2.6460384953     0.5893936450
   50      H       1.7104968708     2.7766494285    -2.1239095379
   51      H       2.9014008295     3.7528228204    -1.1733537143
   52      H       1.5426447954     2.9241792454    -0.3289909368
   53      H       0.5108891885    -0.5021179602    -3.1681301547
   54      H       0.2263231869     0.3173859267    -1.5807983271
   55      H      -0.2738299103    -2.7010314030    -2.2013929514
   56      H      -0.4372871823    -1.9493399390    -0.5518447988
 ----------------------------------------------------------------

    9   -1510.2922097184      1.98E-09 Convergence criterion met
 Total energy in the final basis set = -1510.29220972
 Final energy is   -1510.29220971843
 **  OPTIMIZATION CONVERGED  **

                    Orbital Energies (a.u.)
 --------------------------------------------------------------

 Alpha MOs
 -- Occupied --
-18.942 -18.941 -18.930 -18.923 -18.889 -18.885 -18.885 -18.881
-18.873 -18.871 -10.109 -10.106 -10.097 -10.093 -10.074 -10.070
-10.065 -10.063 -10.060 -10.059 -10.055 -10.043 -10.041 -10.036
-10.035 -10.034 -10.022 -10.021 -10.019 -10.018  -1.022  -1.014
 -1.010  -1.001  -0.972  -0.967  -0.944  -0.943  -0.934  -0.928
 -0.767  -0.761  -0.728  -0.722  -0.713  -0.705  -0.695  -0.668
 -0.648  -0.620  -0.598  -0.580  -0.549  -0.542  -0.540  -0.535
 -0.514  -0.506  -0.484  -0.475  -0.466  -0.458  -0.455  -0.449
 -0.437  -0.432  -0.428  -0.420  -0.415  -0.407  -0.404  -0.398
 -0.393  -0.382  -0.378  -0.364  -0.359  -0.358  -0.355  -0.353
 -0.352  -0.336  -0.335  -0.332  -0.329  -0.325  -0.323  -0.313
 -0.308  -0.307  -0.302  -0.301  -0.293  -0.289  -0.283  -0.277
 -0.269  -0.258  -0.257  -0.245  -0.240  -0.236  -0.231  -0.189
 -0.184  -0.171  -0.165  -0.162  -0.157  -0.155  -0.149  -0.146
 -0.141

          Ground-State Mulliken Net Atomic Charges

     Atom                 Charge (a.u.)
  ----------------------------------------
      1 O                    -0.209508
      2 C                     0.214000
      3 C                    -0.078265
      4 C                    -0.078408
      5 C                     0.213836
      6 O                    -0.174208
      7 C                    -0.059225
      8 C                    -0.050083
      9 O                    -0.167497
     10 C                     0.219841
     11 C                    -0.078730
     12 C                    -0.078133
     13 C                     0.213137
     14 O                    -0.205149
     15 O                    -0.180020
     16 O                    -0.172021
     17 O                    -0.217689
     18 C                    -0.129309
     19 C                     0.025972
     20 C                    -0.143893
     21 C                    -0.143957
     22 C                     0.024222
     23 O                    -0.185306
     24 H                     0.087106
     25 H                     0.085944
     26 H                     0.085430
     27 H                     0.079260
     28 H                     0.073535
     29 H                     0.079265
     30 H                     0.073156
     31 H                     0.091452
     32 O                    -0.210926
     33 C                    -0.153259
     34 C                     0.024423
     35 C                    -0.144005
     36 C                    -0.143959
     37 C                     0.025896
     38 O                    -0.185885
     39 H                     0.083706
     40 H                     0.085762
     41 H                     0.111141
     42 H                     0.091438
     43 H                     0.078141
     44 H                     0.072573
     45 H                     0.077923
     46 H                     0.072950
     47 H                     0.082759
     48 H                     0.099165
     49 H                     0.070938
     50 H                     0.091067
     51 H                     0.090679
     52 H                     0.092430
     53 H                     0.089685
     54 H                     0.095138
     55 H                     0.082604
     56 H                     0.104861
  ----------------------------------------
  Sum of atomic charges =     0.000000

                    Cartesian Multipole Moments
 -----------------------------------------------------------------
    Charge (ESU x 10^10)
                 0.0000
    Dipole Moment (Debye)
         X       1.6210      Y      -0.1442      Z      -4.6789
       Tot       4.9538
    Quadrupole Moments (Debye-Ang)
        XX    -140.2954     XY      -8.2227     YY    -155.0018
        XZ       8.2389     YZ      -2.1361     ZZ    -167.5036

 Total job time:  172.53s(wall), 8227.99s(cpu)
        *  Thank you very much for using Q-Chem.  Have a nice day.  *
