 Q-Chem 5.0, Q-Chem, Inc., Pleasanton, CA (2017)
 Q-Chem 5.0.1 for Intel X86 EM64T Linux

User input:
--------------------------------------------------------------
$molecule
0  1
O -3.94934 -3.66094 2.70899
C -3.26408 -4.56952 2.26188
C -3.36658 -6.02376 2.66595
C -2.10273 -6.88599 2.51398
C -0.82993 -6.15756 2.14324
O -0.9403 -5.64254 0.88308
C 0.30644 -5.18096 0.35219
C 0.07864 -4.45726 -0.97087
O 1.23252 -4.60326 -1.81356
C 1.07936 -5.43611 -2.87284
C 0.02743 -4.96168 -3.84701
C 0.12562 -5.57091 -5.25323
C 1.00494 -6.79853 -5.38158
O 1.0616 -7.53078 -6.3589
O -2.90855 -4.36925 0.96601
O 2.23351 -6.67794 -4.79908
O 1.19211 -6.63147 -2.63306
C 3.29408 -7.55313 -4.94576
C -1.51869 -5.34162 -3.65803
C -2.38523 -4.30448 -4.38303
C -2.14617 -4.68453 -5.82099
C -1.30242 -5.942 -5.61969
O -1.74834 -6.49652 -4.42332
H 0.10044 -3.85078 -3.88862
H 0.56447 -4.83982 -5.96877
H -2.01003 -5.43275 -2.68506
H -3.4505 -4.53713 -4.14745
H -2.19076 -3.24185 -4.1229
H -3.12329 -4.93059 -6.29348
H -1.60846 -3.92547 -6.42995
H -1.36127 -6.59984 -6.51468
O 0.17435 -6.08817 2.84406
C -3.00388 -3.17149 0.28186
C -3.61631 -6.18039 4.18237
C -4.26936 -7.53215 4.46648
C -3.10281 -8.4643 4.22321
C -1.99023 -7.4481 3.94465
O -2.33425 -6.33937 4.73723
H -4.237 -6.44188 2.11196
H -2.23487 -7.69887 1.76543
H -2.36739 -2.40242 0.76895
H -4.23758 -5.36723 4.61726
H -4.5196 -7.55569 5.55153
H -5.18441 -7.74955 3.8747
H -2.89418 -9.01886 5.16523
H -3.23232 -9.1795 3.38223
H -0.99884 -7.90904 4.1486
H -4.05944 -2.82633 0.25336
H -2.66176 -3.31842 -0.76227
H 4.14747 -7.19414 -4.33486
H 3.61416 -7.60038 -6.00856
H 3.00245 -8.56565 -4.59365
H -0.74416 -5.01736 -1.328
H -0.23484 -3.40002 -0.84931
H 0.92671 -6.08725 0.16463
H 0.86083 -4.49873 1.03557
$end

$opt
CONSTRAINT
tors           1           2           3           4    -153.487
tors           3           4           5           6     -66.316
tors           4           5           6           7    -167.860
tors           5           6           7           8    -172.573
tors           6           7           8           9    -150.358
tors           7           8           9          10    +107.592
tors           8           9          10          11     +62.761
tors           9          10          11          12    +160.537
tors          11          12          13          14    +169.028
ENDCONSTRAINT
$end

$rem
JOBTYPE                   OPT
METHOD                    B3LYP
DFT_D                     d3_op
BASIS                     STO-3G
GEOM_OPT_MAX_CYCLES       100
GEOM_OPT_TOL_GRADIENT     300
GEOM_OPT_TOL_DISPLACEMENT 1200
GEOM_OPT_TOL_ENERGY       100
SYMMETRY                  False
THRESH                    12
SCF_CONVERGENCE           8
MAX_SUB_FILE_NUM          128
MEM_STATIC                400
MEM_TOTAL                 4000
$end
--------------------------------------------------------------

   16   -1510.0362276095      4.65E-09 Convergence criterion met
 Total energy in the final basis set = -1510.03622761
   14   -1510.1179773528      5.49E-09 Convergence criterion met
 Total energy in the final basis set = -1510.11797735
   14   -1510.1647744004      5.14E-09 Convergence criterion met
 Total energy in the final basis set = -1510.16477440
   14   -1510.1910624163      7.29E-09 Convergence criterion met
 Total energy in the final basis set = -1510.19106242
   14   -1510.2073548625      7.11E-09 Convergence criterion met
 Total energy in the final basis set = -1510.20735486
   13   -1510.2167604349      5.84E-09 Convergence criterion met
 Total energy in the final basis set = -1510.21676043
   13   -1510.2229392172      4.74E-09 Convergence criterion met
 Total energy in the final basis set = -1510.22293922
   13   -1510.2273937648      4.49E-09 Convergence criterion met
   11   -1510.2436852775      8.56E-09 Convergence criterion met
 Total energy in the final basis set = -1510.24368528
   11   -1510.2437092428      4.28E-09 Convergence criterion met
 Total energy in the final basis set = -1510.24370924
   11   -1510.2437251471      4.29E-09 Convergence criterion met
 Total energy in the final basis set = -1510.24372515
   11   -1510.2437356846      2.63E-09 Convergence criterion met
 Total energy in the final basis set = -1510.24373568
    9   -1510.2437437030      5.02E-09 Convergence criterion met
 Total energy in the final basis set = -1510.24374370
   10   -1510.2437467955      8.49E-09 Convergence criterion met
 Total energy in the final basis set = -1510.24374680

             Standard Nuclear Orientation (Angstroms)
    I     Atom           X                Y                Z
 ----------------------------------------------------------------
    1      O       5.0587646662    -2.4238282936     1.6181052836
    2      C       4.2630824235    -1.5572091595     1.1937392751
    3      C       4.1390477307    -1.0954153858    -0.3105614384
    4      C       3.6016345763     0.3726084363    -0.5668451814
    5      C       2.7154642683     1.0274356812     0.5503318696
    6      O       1.4893111222     0.2822540874     0.6242388020
    7      C       0.4933447299     1.0115844535     1.4445429786
    8      C      -0.7314245016     0.0359316990     1.6252690844
    9      O      -1.9692831502     0.8238168850     1.7658046004
   10      C      -2.8683070257     0.8004717792     0.6283464246
   11      C      -3.5051285137    -0.5951672094     0.2077621196
   12      C      -4.7981105856    -0.4004017836    -0.6860587411
   13      C      -5.7132725764     0.8511116933    -0.4323615448
   14      O      -6.6426623950     1.2299547157    -1.1789001928
   15      O       3.3840225444    -0.8167913075     2.0402205072
   16      O      -5.5473371766     1.3096637223     0.9146623922
   17      O      -3.1689260914     1.8844179911     0.0853075925
   18      C      -6.5041125421     2.4022210987     1.1991111421
   19      C      -2.5741089100    -1.2438223285    -0.9273348444
   20      C      -3.1816327690    -2.6178143868    -1.4315952710
   21      C      -4.2650281097    -2.1256186807    -2.4618334651
   22      C      -4.2418001511    -0.5789427371    -2.1631616941
   23      O      -2.7906344835    -0.3050344612    -2.0516773417
   24      H      -3.6671947872    -1.2454962088     1.0849971876
   25      H      -5.4692814509    -1.2559354845    -0.4744174791
   26      H      -1.4964353588    -1.2973988717    -0.6909197558
   27      H      -2.4033138819    -3.2289693932    -1.9148480274
   28      H      -3.6189362262    -3.1984543725    -0.6033485923
   29      H      -3.9495196728    -2.3205795833    -3.4995175925
   30      H      -5.2556714032    -2.5785434261    -2.2979200882
   31      H      -4.7154487133     0.0747050123    -2.9210323322
   32      O       2.9497150492     2.0710036818     1.1949098298
   33      C       3.5740764808    -1.2104620143     3.4545026617
   34      C       5.6274305535    -0.9270661641    -0.8376292033
   35      C       5.6357205999    -0.6214317906    -2.3882866493
   36      C       5.2719389634     0.9107844343    -2.4089014054
   37      C       4.9509978713     1.1492795527    -0.8837499271
   38      O       6.0077146728     0.3612105539    -0.2065154356
   39      H       3.5590287734    -1.8492040572    -0.8741465711
   40      H       2.9668370823     0.3509848004    -1.4722741046
   41      H       4.6161668475    -1.0320508892     3.7891567034
   42      H       6.3044293414    -1.7381723279    -0.5048557703
   43      H       6.6336943324    -0.8097847794    -2.8142325706
   44      H       4.9003554972    -1.2379733576    -2.9301670278
   45      H       6.1340342127     1.5229994276    -2.7189144364
   46      H       4.4172172757     1.1419791924    -3.0643627509
   47      H       4.9630387952     2.2008002565    -0.5359203779
   48      H       3.3284180114    -2.2800709754     3.6152673357
   49      H       2.8818296385    -0.5774040316     4.0395758127
   50      H      -6.3659396330     2.6568102885     2.2659821732
   51      H      -7.5521021465     2.0845146116     1.0219472261
   52      H      -6.2958662046     3.2958829930     0.5761604981
   53      H      -0.7406490520    -0.6681111240     0.7732646310
   54      H      -0.6021658026    -0.5593088656     2.5547915433
   55      H       0.1541582216     1.9326338632     0.9195250031
   56      H       0.9194052795     1.3135608242     2.4245430086
 ----------------------------------------------------------------

   10   -1510.2437476524      6.58E-09 Convergence criterion met
 Total energy in the final basis set = -1510.24374765
 Final energy is   -1510.24374765238
 **  OPTIMIZATION CONVERGED  **

                    Orbital Energies (a.u.)
 --------------------------------------------------------------

 Alpha MOs
 -- Occupied --
-18.944 -18.932 -18.924 -18.911 -18.894 -18.894 -18.884 -18.876
-18.870 -18.870 -10.106 -10.103 -10.099 -10.099 -10.077 -10.070
-10.068 -10.067 -10.064 -10.061 -10.058 -10.056 -10.044 -10.041
-10.040 -10.035 -10.027 -10.024 -10.020 -10.019  -1.018  -1.011
 -1.005  -1.001  -0.977  -0.969  -0.940  -0.939  -0.932  -0.930
 -0.767  -0.763  -0.727  -0.724  -0.710  -0.708  -0.697  -0.666
 -0.660  -0.612  -0.602  -0.586  -0.549  -0.545  -0.543  -0.537
 -0.521  -0.509  -0.490  -0.478  -0.464  -0.460  -0.453  -0.446
 -0.442  -0.435  -0.427  -0.417  -0.412  -0.411  -0.407  -0.400
 -0.394  -0.387  -0.374  -0.372  -0.369  -0.361  -0.356  -0.349
 -0.345  -0.339  -0.337  -0.329  -0.328  -0.323  -0.322  -0.316
 -0.311  -0.311  -0.307  -0.299  -0.296  -0.294  -0.292  -0.279
 -0.271  -0.252  -0.251  -0.244  -0.241  -0.233  -0.232  -0.184
 -0.174  -0.170  -0.166  -0.158  -0.153  -0.151  -0.148  -0.147
 -0.143

          Ground-State Mulliken Net Atomic Charges

     Atom                 Charge (a.u.)
  ----------------------------------------
      1 O                    -0.214324
      2 C                     0.212478
      3 C                    -0.075826
      4 C                    -0.081697
      5 C                     0.219731
      6 O                    -0.179052
      7 C                    -0.048293
      8 C                    -0.045271
      9 O                    -0.191927
     10 C                     0.223678
     11 C                    -0.080650
     12 C                    -0.078739
     13 C                     0.213568
     14 O                    -0.216933
     15 O                    -0.166224
     16 O                    -0.169924
     17 O                    -0.179965
     18 C                    -0.127085
     19 C                     0.022558
     20 C                    -0.145993
     21 C                    -0.140976
     22 C                     0.025398
     23 O                    -0.189919
     24 H                     0.085218
     25 H                     0.083314
     26 H                     0.077170
     27 H                     0.078373
     28 H                     0.073685
     29 H                     0.078918
     30 H                     0.075405
     31 H                     0.091861
     32 O                    -0.215418
     33 C                    -0.126024
     34 C                     0.023582
     35 C                    -0.145661
     36 C                    -0.142018
     37 C                     0.022762
     38 O                    -0.192180
     39 H                     0.084997
     40 H                     0.083135
     41 H                     0.094213
     42 H                     0.089229
     43 H                     0.078593
     44 H                     0.072879
     45 H                     0.078283
     46 H                     0.073403
     47 H                     0.090296
     48 H                     0.089515
     49 H                     0.091761
     50 H                     0.090832
     51 H                     0.088453
     52 H                     0.091699
     53 H                     0.085693
     54 H                     0.083596
     55 H                     0.089431
     56 H                     0.090391
  ----------------------------------------
  Sum of atomic charges =    -0.000000

                    Cartesian Multipole Moments
 -----------------------------------------------------------------
    Charge (ESU x 10^10)
                 0.0000
    Dipole Moment (Debye)
         X      -1.3646      Y      -3.4333      Z      -0.0381
       Tot       3.6947
    Quadrupole Moments (Debye-Ang)
        XX    -172.1833     XY       7.4344     YY    -162.3070
        XZ     -13.8613     YZ       1.2357     ZZ    -154.0072

 Total job time:  86.14s(wall), 4100.27s(cpu)
        *  Thank you very much for using Q-Chem.  Have a nice day.  *
