 Q-Chem 5.0, Q-Chem, Inc., Pleasanton, CA (2017)
 Q-Chem 5.0.1 for Intel X86 EM64T Linux

User input:
--------------------------------------------------------------
$molecule
0  1
O 5.0587646662 -2.4238282936 1.6181052836
C 4.2630824235 -1.5572091595 1.1937392751
C 4.1390477307 -1.0954153858 -0.3105614384
C 3.6016345763 0.3726084363 -0.5668451814
C 2.7154642683 1.0274356812 0.5503318696
O 1.4893111222 0.2822540874 0.624238802
C 0.4933447299 1.0115844535 1.4445429786
C -0.7314245016 0.035931699 1.6252690844
O -1.9692831502 0.823816885 1.7658046004
C -2.8683070257 0.8004717792 0.6283464246
C -3.5051285137 -0.5951672094 0.2077621196
C -4.7981105856 -0.4004017836 -0.6860587411
C -5.7132725764 0.8511116933 -0.4323615448
O -6.642662395 1.2299547157 -1.1789001928
O 3.3840225444 -0.8167913075 2.0402205072
O -5.5473371766 1.3096637223 0.9146623922
O -3.1689260914 1.8844179911 0.0853075925
C -6.5041125421 2.4022210987 1.1991111421
C -2.57410891 -1.2438223285 -0.9273348444
C -3.181632769 -2.6178143868 -1.431595271
C -4.2650281097 -2.1256186807 -2.4618334651
C -4.2418001511 -0.5789427371 -2.1631616941
O -2.7906344835 -0.3050344612 -2.0516773417
H -3.6671947872 -1.2454962088 1.0849971876
H -5.4692814509 -1.2559354845 -0.4744174791
H -1.4964353588 -1.2973988717 -0.6909197558
H -2.4033138819 -3.2289693932 -1.9148480274
H -3.6189362262 -3.1984543725 -0.6033485923
H -3.9495196728 -2.3205795833 -3.4995175925
H -5.2556714032 -2.5785434261 -2.2979200882
H -4.7154487133 0.0747050123 -2.9210323322
O 2.9497150492 2.0710036818 1.1949098298
C 3.5740764808 -1.2104620143 3.4545026617
C 5.6274305535 -0.9270661641 -0.8376292033
C 5.6357205999 -0.6214317906 -2.3882866493
C 5.2719389634 0.9107844343 -2.4089014054
C 4.9509978713 1.1492795527 -0.8837499271
O 6.0077146728 0.3612105539 -0.2065154356
H 3.5590287734 -1.8492040572 -0.8741465711
H 2.9668370823 0.3509848004 -1.4722741046
H 4.6161668475 -1.0320508892 3.7891567034
H 6.3044293414 -1.7381723279 -0.5048557703
H 6.6336943324 -0.8097847794 -2.8142325706
H 4.9003554972 -1.2379733576 -2.9301670278
H 6.1340342127 1.5229994276 -2.7189144364
H 4.4172172757 1.1419791924 -3.0643627509
H 4.9630387952 2.2008002565 -0.5359203779
H 3.3284180114 -2.2800709754 3.6152673357
H 2.8818296385 -0.5774040316 4.0395758127
H -6.365939633 2.6568102885 2.2659821732
H -7.5521021465 2.0845146116 1.0219472261
H -6.2958662046 3.295882993 0.5761604981
H -0.740649052 -0.668111124 0.773264631
H -0.6021658026 -0.5593088656 2.5547915433
H 0.1541582216 1.9326338632 0.9195250031
H 0.9194052795 1.3135608242 2.4245430086
$end

$rem
JOBTYPE                   OPT
METHOD                    B3LYP
DFT_D                     d3_op
BASIS                     STO-3G
GEOM_OPT_MAX_CYCLES       100
GEOM_OPT_TOL_GRADIENT     300
GEOM_OPT_TOL_DISPLACEMENT 1200
GEOM_OPT_TOL_ENERGY       100
SYMMETRY                  False
THRESH                    12
SCF_CONVERGENCE           8
MAX_SUB_FILE_NUM          128
MEM_STATIC                400
MEM_TOTAL                 4000
$end
--------------------------------------------------------------

   16   -1510.2437854779      4.13E-09 Convergence criterion met
 Total energy in the final basis set = -1510.24378548
   14   -1510.2488508657      2.26E-09 Convergence criterion met
 Total energy in the final basis set = -1510.24885087
   14   -1510.2539538393      3.20E-09 Convergence criterion met
 Total energy in the final basis set = -1510.25395384
   14   -1510.2579101488      3.85E-09 Convergence criterion met
 Total energy in the final basis set = -1510.25791015
   14   -1510.2605962898      1.91E-09 Convergence criterion met
 Total energy in the final basis set = -1510.26059629
   14   -1510.2628306513      2.35E-09 Convergence criterion met
 Total energy in the final basis set = -1510.26283065
   13   -1510.2645310941      9.66E-09 Convergence criterion met
 Total energy in the final basis set = -1510.26453109
   13   -1510.2657650691      2.97E-09 Convergence criterion met
   11   -1510.2869738853      8.77E-09 Convergence criterion met
 Total energy in the final basis set = -1510.28697389
   12   -1510.2869850331      2.16E-09 Convergence criterion met
 Total energy in the final basis set = -1510.28698503
   12   -1510.2869916279      2.82E-09 Convergence criterion met
 Total energy in the final basis set = -1510.28699163
   11   -1510.2869954364      6.84E-09 Convergence criterion met
 Total energy in the final basis set = -1510.28699544
   10   -1510.2869965042      4.58E-09 Convergence criterion met
 Total energy in the final basis set = -1510.28699650
   10   -1510.2869998561      5.91E-09 Convergence criterion met
 Total energy in the final basis set = -1510.28699986

             Standard Nuclear Orientation (Angstroms)
    I     Atom           X                Y                Z
 ----------------------------------------------------------------
    1      O      -3.8521631270     0.8157467240     1.9367810144
    2      C      -2.8755765212     0.4520821231     1.2501431334
    3      C      -2.1813990952     1.2307686185     0.0809789773
    4      C      -1.8426542558     0.3587769284    -1.2036056092
    5      C      -1.9578683131    -1.1877566326    -0.9975814230
    6      O      -0.6395698164    -1.6349981332    -0.6349912802
    7      C      -0.6024483531    -3.0752671821    -0.3128620736
    8      C       0.8278440719    -3.3002224099     0.3025761828
    9      O       1.8452411119    -2.7284733064    -0.6006560712
   10      C       1.9423352375    -1.2870902157    -0.5140396103
   11      C       2.0454671198    -0.6262881319     0.9218914915
   12      C       2.9431791886     0.6856963298     0.8873733891
   13      C       3.5662764952     1.0351904809    -0.5167778163
   14      O       3.2999727388     2.0242391329    -1.2320255767
   15      O      -2.1874148315    -0.7942038195     1.4695694048
   16      O       4.6289513612     0.1039654732    -0.7729446022
   17      O       2.1455878524    -0.6536861062    -1.5742858322
   18      C       5.1963364106     0.3534099020    -2.1164661341
   19      C       0.6730695352    -0.0166976158     1.4392590611
   20      C       0.8273138310     0.3620757594     2.9648617132
   21      C       1.6725425628     1.6870633408     2.8798396375
   22      C       1.9001601380     1.7941133531     1.3236218544
   23      O       0.6233964218     1.2963750724     0.7584242548
   24      H       2.4540547984    -1.3672443513     1.6314272800
   25      H       3.7702790132     0.5995280289     1.6151274626
   26      H      -0.2393160615    -0.6019474259     1.1961097088
   27      H      -0.1636425929     0.5405720763     3.4121693049
   28      H       1.3340313458    -0.4293895311     3.5395563297
   29      H       1.1018043581     2.5546093096     3.2478783455
   30      H       2.6212558356     1.6253207344     3.4363539194
   31      H       2.1280314227     2.8036227974     0.9295145614
   32      O      -2.9390452681    -1.9441894891    -1.1437209833
   33      C      -2.8420427263    -1.5689376124     2.5458903942
   34      C      -3.2051453292     2.2649935355    -0.5333796854
   35      C      -2.4396642141     3.2340675154    -1.5185371861
   36      C      -2.2646315363     2.3145604639    -2.7842688181
   37      C      -2.8730285090     0.9588050879    -2.2537679299
   38      O      -4.0188576679     1.4054294815    -1.4290338236
   39      H      -1.2344336589     1.6754332077     0.4650372505
   40      H      -0.8000066282     0.5614327369    -1.5076082831
   41      H      -3.8434143151    -1.9269510791     2.2303073991
   42      H      -3.8514213374     2.7537965094     0.2214466001
   43      H      -3.0492398445     4.1236505687    -1.7428451430
   44      H      -1.4745550395     3.5611059570    -1.0996910630
   45      H      -2.8529144530     2.6884704396    -3.6374465907
   46      H      -1.2127189214     2.2104492392    -3.0945830173
   47      H      -3.2102821924     0.2456941633    -3.0309205206
   48      H      -2.9556316746    -0.9673243308     3.4702367466
   49      H      -2.1860371027    -2.4366418445     2.7438654462
   50      H       6.0293885541    -0.3632478151    -2.2370403794
   51      H       5.5790142359     1.3899090911    -2.2150425584
   52      H       4.4390998522     0.1789874520    -2.9082746793
   53      H       0.8718721691    -2.8703118199     1.3250880344
   54      H       1.0442925034    -4.3865137974     0.3657103526
   55      H      -0.7315651082    -3.6887125065    -1.2311103958
   56      H      -1.3985039905    -3.3518056564     0.4122484996
 ----------------------------------------------------------------

    9   -1510.2870009992      3.23E-09 Convergence criterion met
 Total energy in the final basis set = -1510.28700100
 Final energy is   -1510.28700099923
 **  OPTIMIZATION CONVERGED  **

                    Orbital Energies (a.u.)
 --------------------------------------------------------------

 Alpha MOs
 -- Occupied --
-18.945 -18.933 -18.928 -18.919 -18.896 -18.888 -18.885 -18.878
-18.876 -18.860 -10.107 -10.104 -10.102 -10.091 -10.086 -10.079
-10.075 -10.061 -10.053 -10.053 -10.052 -10.051 -10.040 -10.035
-10.029 -10.025 -10.024 -10.023 -10.012 -10.011  -1.022  -1.015
 -1.006  -0.996  -0.976  -0.962  -0.946  -0.944  -0.935  -0.924
 -0.764  -0.757  -0.725  -0.722  -0.712  -0.706  -0.695  -0.670
 -0.654  -0.616  -0.600  -0.584  -0.548  -0.542  -0.541  -0.532
 -0.517  -0.507  -0.486  -0.480  -0.464  -0.460  -0.456  -0.443
 -0.436  -0.429  -0.423  -0.421  -0.416  -0.408  -0.403  -0.401
 -0.399  -0.392  -0.380  -0.370  -0.362  -0.356  -0.353  -0.348
 -0.348  -0.341  -0.334  -0.330  -0.328  -0.324  -0.323  -0.313
 -0.307  -0.304  -0.301  -0.298  -0.295  -0.284  -0.282  -0.276
 -0.273  -0.255  -0.253  -0.246  -0.243  -0.236  -0.224  -0.187
 -0.181  -0.173  -0.164  -0.162  -0.156  -0.152  -0.150  -0.141
 -0.137

          Ground-State Mulliken Net Atomic Charges

     Atom                 Charge (a.u.)
  ----------------------------------------
      1 O                    -0.206740
      2 C                     0.212842
      3 C                    -0.090070
      4 C                    -0.083001
      5 C                     0.217859
      6 O                    -0.179189
      7 C                    -0.047870
      8 C                    -0.044943
      9 O                    -0.175033
     10 C                     0.225457
     11 C                    -0.083442
     12 C                    -0.079903
     13 C                     0.216070
     14 O                    -0.218485
     15 O                    -0.177205
     16 O                    -0.177601
     17 O                    -0.191392
     18 C                    -0.128586
     19 C                     0.009375
     20 C                    -0.146450
     21 C                    -0.144572
     22 C                     0.025380
     23 O                    -0.194969
     24 H                     0.078375
     25 H                     0.083018
     26 H                     0.107422
     27 H                     0.074805
     28 H                     0.070477
     29 H                     0.077412
     30 H                     0.074279
     31 H                     0.090677
     32 O                    -0.213274
     33 C                    -0.128264
     34 C                     0.022640
     35 C                    -0.144470
     36 C                    -0.142542
     37 C                     0.024202
     38 O                    -0.191289
     39 H                     0.112382
     40 H                     0.095785
     41 H                     0.094889
     42 H                     0.087527
     43 H                     0.076348
     44 H                     0.077171
     45 H                     0.076444
     46 H                     0.077639
     47 H                     0.084463
     48 H                     0.093004
     49 H                     0.086267
     50 H                     0.086675
     51 H                     0.086264
     52 H                     0.093113
     53 H                     0.081230
     54 H                     0.091958
     55 H                     0.090241
     56 H                     0.087601
  ----------------------------------------
  Sum of atomic charges =    -0.000000

                    Cartesian Multipole Moments
 -----------------------------------------------------------------
    Charge (ESU x 10^10)
                -0.0000
    Dipole Moment (Debye)
         X       2.1726      Y      -1.6813      Z       3.4903
       Tot       4.4417
    Quadrupole Moments (Debye-Ang)
        XX    -173.9799     XY       1.3335     YY    -153.2057
        XZ       2.4283     YZ      -5.2390     ZZ    -153.7702

 Total job time:  190.67s(wall), 9082.36s(cpu)
        *  Thank you very much for using Q-Chem.  Have a nice day.  *
