 Q-Chem 5.0, Q-Chem, Inc., Pleasanton, CA (2017)
 Q-Chem 5.0.1 for Intel X86 EM64T Linux

User input:
--------------------------------------------------------------
$molecule
0  1
O -3.94934 -3.66094 2.70899
C -3.26408 -4.56952 2.26188
C -3.36658 -6.02376 2.66595
C -2.05408 -6.81721 2.77386
C -0.77331 -6.02375 2.63919
O -0.66693 -5.52603 1.37176
C -0.17427 -6.48478 0.42977
C 0.00816 -5.833 -0.93699
O 0.49921 -6.79993 -1.87868
C -0.44362 -7.38701 -2.65686
C 0.14651 -8.26114 -3.73774
C 1.24793 -9.22097 -3.26458
C 1.34784 -9.42488 -1.7662
O 1.81842 -10.4092 -1.21463
O -2.71887 -4.33603 1.03986
O 0.26269 -9.0666 -1.00819
O -1.64624 -7.33804 -2.42388
C -0.16029 -9.70099 0.1648
C -0.84441 -9.23689 -4.39861
C -0.33372 -9.62781 -5.78432
C 0.84236 -10.50723 -5.41432
C 0.70367 -10.52586 -3.88789
O -0.68409 -10.42814 -3.67103
H 0.54867 -7.55792 -4.50129
H 2.26436 -8.96546 -3.63557
H -1.87992 -8.83999 -4.47308
H -1.11727 -10.26324 -6.2562
H -0.09653 -8.77702 -6.45874
H 0.66526 -11.52268 -5.83361
H 1.83824 -10.13107 -5.73412
H 1.19524 -11.43433 -3.47559
O 0.01422 -5.75062 3.53291
C -2.66278 -3.10368 0.41955
C -3.92142 -6.1927 4.0945
C -4.51289 -7.59187 4.26587
C -3.25132 -8.42329 4.3285
C -2.18867 -7.32498 4.22699
O -2.77087 -6.23588 4.89964
H -4.06153 -6.49039 1.93226
H -2.02017 -7.69302 2.09634
H -2.08311 -2.39003 1.04322
H -4.68254 -5.43009 4.36827
H -5.01297 -7.63397 5.2599
H -5.23693 -7.88333 3.47475
H -3.19568 -8.90086 5.3324
H -3.14974 -9.19769 3.53774
H -1.22647 -7.69878 4.64194
H -3.68773 -2.7103 0.24998
H -2.15691 -3.21215 -0.56135
H -1.1455 -9.32269 0.49207
H 0.58985 -9.55952 0.97216
H -0.31247 -10.78634 -0.01974
H -0.94324 -5.35459 -1.26457
H 0.75658 -5.01702 -0.85367
H -0.94606 -7.24515 0.2821
H 0.79412 -6.91758 0.76862
$end

$opt
CONSTRAINT
tors           1           2           3           4    -142.022
tors           3           4           5           6     -66.316
tors           4           5           6           7     -81.020
tors           5           6           7           8    -176.116
tors           6           7           8           9    -179.854
tors           7           8           9          10     +96.735
tors           8           9          10          11    +172.845
tors           9          10          11          12     +47.047
tors          11          12          13          14    +155.184
ENDCONSTRAINT
$end

$rem
JOBTYPE                   OPT
METHOD                    B3LYP
DFT_D                     d3_op
BASIS                     STO-3G
GEOM_OPT_MAX_CYCLES       100
GEOM_OPT_TOL_GRADIENT     300
GEOM_OPT_TOL_DISPLACEMENT 1200
GEOM_OPT_TOL_ENERGY       100
SYMMETRY                  False
THRESH                    12
SCF_CONVERGENCE           8
MAX_SUB_FILE_NUM          128
MEM_STATIC                400
MEM_TOTAL                 4000
$end
--------------------------------------------------------------

   15   -1510.0820854662      7.93E-09 Convergence criterion met
 Total energy in the final basis set = -1510.08208547
   14   -1510.1609310494      6.27E-09 Convergence criterion met
 Total energy in the final basis set = -1510.16093105
   14   -1510.2023631333      7.31E-09 Convergence criterion met
 Total energy in the final basis set = -1510.20236313
   14   -1510.2242635190      7.27E-09 Convergence criterion met
 Total energy in the final basis set = -1510.22426352
   14   -1510.2361116202      4.49E-09 Convergence criterion met
 Total energy in the final basis set = -1510.23611162
   14   -1510.2418880996      3.09E-09 Convergence criterion met
 Total energy in the final basis set = -1510.24188810
   14   -1510.2450341764      3.19E-09 Convergence criterion met
 Total energy in the final basis set = -1510.24503418
   13   -1510.2470991720      3.32E-09 Convergence criterion met
    9   -1510.2522097414      7.22E-09 Convergence criterion met
 Total energy in the final basis set = -1510.25220974
   10   -1510.2522124529      5.06E-09 Convergence criterion met
 Total energy in the final basis set = -1510.25221245
   11   -1510.2522181414      2.38E-09 Convergence criterion met
 Total energy in the final basis set = -1510.25221814
   11   -1510.2522241711      2.64E-09 Convergence criterion met
 Total energy in the final basis set = -1510.25222417
   10   -1510.2522276634      5.62E-09 Convergence criterion met
 Total energy in the final basis set = -1510.25222766
   11   -1510.2522305958      1.84E-09 Convergence criterion met
 Total energy in the final basis set = -1510.25223060

             Standard Nuclear Orientation (Angstroms)
    I     Atom           X                Y                Z
 ----------------------------------------------------------------
    1      O       5.5650426634    -2.1331723534    -1.1307242981
    2      C       4.4753389366    -1.7204713084    -0.6781123331
    3      C       3.7032495451    -0.4278274812    -1.1457041200
    4      C       2.9866346064     0.3903579765     0.0064020497
    5      C       2.6115117304    -0.3989346816     1.3212679725
    6      O       1.5831374204    -1.4269087530     1.1201661340
    7      C       0.2619074168    -0.7606063960     1.1234173910
    8      C      -0.8240038517    -1.8865074486     1.0083462903
    9      O      -2.1763300077    -1.2802214674     1.0027840452
   10      C      -2.6520622588    -1.1271599984    -0.3433027700
   11      C      -4.1450990450    -0.6581375230    -0.2779678577
   12      C      -4.5075683206     0.5229320825     0.7047636554
   13      C      -3.4246486744     1.6648372584     0.8579865608
   14      O      -3.6749302959     2.8406812049     1.2040597294
   15      O       3.7746804091    -2.3463776122     0.3946769918
   16      O      -2.1436904594     1.2590119128     0.3664262005
   17      O      -1.9902714595    -1.4036591402    -1.3663645034
   18      C      -1.2204846455     2.4178257737     0.3585461414
   19      C      -4.7990864238    -0.1588609524    -1.6386299529
   20      C      -6.2986026368    -0.6418473711    -1.6154651307
   21      C      -6.8542803833     0.2323139696    -0.4287313099
   22      C      -5.6451676425     1.2165516771    -0.1654069773
   23      O      -4.9458148740     1.3078907850    -1.4750562600
   24      H      -4.7033834061    -1.5496295444     0.0675243577
   25      H      -4.8419131476     0.1682388005     1.6962868907
   26      H      -4.2151239176    -0.4015871341    -2.5479372032
   27      H      -6.7956403240    -0.3870308576    -2.5654434805
   28      H      -6.3993024627    -1.7247519474    -1.4393926620
   29      H      -7.7562089813     0.7932091571    -0.7195925474
   30      H      -7.0880663728    -0.3703727264     0.4639750957
   31      H      -5.9205040812     2.2260052069     0.1975298617
   32      O       3.1443924067    -0.2216238028     2.4346745081
   33      C       4.5260669664    -3.5168520102     0.9012433988
   34      C       4.8192851459     0.6204717409    -1.5631168151
   35      C       4.1611360328     1.9160370103    -2.1820680787
   36      C       3.6767751800     2.6715093869    -0.8874280581
   37      C       4.0028789546     1.5919510658     0.2152672542
   38      O       5.3105606974     1.0581222228    -0.2320344036
   39      H       3.0054122657    -0.6840473985    -1.9642101639
   40      H       2.0364158484     0.7835651671    -0.3986644213
   41      H       5.5540317594    -3.2375084378     1.2095218620
   42      H       5.6435758004     0.1700257343    -2.1499133482
   43      H       4.9081561547     2.5020854383    -2.7401040335
   44      H       3.3303290833     1.6682961908    -2.8624710632
   45      H       4.2656245339     3.5866091618    -0.7131403914
   46      H       2.6081937754     2.9382084894    -0.9194571972
   47      H       4.0674660514     1.9600842672     1.2577931214
   48      H       4.5891629741    -4.3168281520     0.1353668479
   49      H       3.9582116967    -3.8834147227     1.7759712204
   50      H      -0.3401301326     2.1058895260    -0.2327729279
   51      H      -0.8984840400     2.6842689445     1.3862862594
   52      H      -1.6902115214     3.3073885208    -0.1068330074
   53      H      -0.6562346890    -2.4671920728     0.0766283146
   54      H      -0.7736471920    -2.5582408475     1.8890347155
   55      H       0.1407902508    -0.0718575456     0.2582596225
   56      H       0.0897424409    -0.1756991937     2.0553209995
 ----------------------------------------------------------------

    8   -1510.2522314346      8.91E-09 Convergence criterion met
 Total energy in the final basis set = -1510.25223143
 Final energy is   -1510.25223143464
 **  OPTIMIZATION CONVERGED  **

                    Orbital Energies (a.u.)
 --------------------------------------------------------------

 Alpha MOs
 -- Occupied --
-18.944 -18.943 -18.931 -18.897 -18.897 -18.888 -18.886 -18.877
-18.877 -18.875 -10.107 -10.104 -10.104 -10.102 -10.072 -10.069
-10.066 -10.066 -10.061 -10.061 -10.059 -10.059 -10.044 -10.042
-10.040 -10.036 -10.024 -10.022 -10.022 -10.021  -1.020  -1.017
 -1.010  -1.000  -0.973  -0.970  -0.941  -0.939  -0.938  -0.931
 -0.767  -0.764  -0.728  -0.725  -0.709  -0.704  -0.695  -0.670
 -0.664  -0.611  -0.602  -0.586  -0.548  -0.546  -0.540  -0.539
 -0.514  -0.510  -0.489  -0.481  -0.471  -0.455  -0.451  -0.448
 -0.441  -0.430  -0.426  -0.421  -0.416  -0.414  -0.410  -0.398
 -0.396  -0.387  -0.385  -0.375  -0.362  -0.360  -0.355  -0.349
 -0.344  -0.337  -0.334  -0.333  -0.331  -0.326  -0.319  -0.314
 -0.313  -0.311  -0.309  -0.303  -0.301  -0.296  -0.293  -0.274
 -0.271  -0.254  -0.251  -0.248  -0.239  -0.237  -0.234  -0.187
 -0.180  -0.175  -0.161  -0.159  -0.155  -0.153  -0.149  -0.147
 -0.144

          Ground-State Mulliken Net Atomic Charges

     Atom                 Charge (a.u.)
  ----------------------------------------
      1 O                    -0.211281
      2 C                     0.213260
      3 C                    -0.076048
      4 C                    -0.084878
      5 C                     0.226663
      6 O                    -0.188503
      7 C                    -0.049488
      8 C                    -0.048749
      9 O                    -0.173758
     10 C                     0.218790
     11 C                    -0.080872
     12 C                    -0.073783
     13 C                     0.213788
     14 O                    -0.215020
     15 O                    -0.162772
     16 O                    -0.167921
     17 O                    -0.218474
     18 C                    -0.127015
     19 C                     0.022390
     20 C                    -0.140918
     21 C                    -0.146231
     22 C                     0.023107
     23 O                    -0.193498
     24 H                     0.083332
     25 H                     0.088092
     26 H                     0.090136
     27 H                     0.078577
     28 H                     0.073637
     29 H                     0.079329
     30 H                     0.073831
     31 H                     0.089611
     32 O                    -0.185285
     33 C                    -0.125358
     34 C                     0.023744
     35 C                    -0.145787
     36 C                    -0.141991
     37 C                     0.021703
     38 O                    -0.190681
     39 H                     0.087032
     40 H                     0.074824
     41 H                     0.093680
     42 H                     0.091244
     43 H                     0.079229
     44 H                     0.073395
     45 H                     0.078616
     46 H                     0.069980
     47 H                     0.088211
     48 H                     0.089646
     49 H                     0.096152
     50 H                     0.085116
     51 H                     0.088179
     52 H                     0.097307
     53 H                     0.097482
     54 H                     0.089024
     55 H                     0.072965
     56 H                     0.076238
  ----------------------------------------
  Sum of atomic charges =    -0.000000

                    Cartesian Multipole Moments
 -----------------------------------------------------------------
    Charge (ESU x 10^10)
                -0.0000
    Dipole Moment (Debye)
         X      -2.6776      Y      -0.5662      Z      -0.4735
       Tot       2.7774
    Quadrupole Moments (Debye-Ang)
        XX    -166.2384     XY       9.5864     YY    -157.0581
        XZ      -5.0185     YZ      -4.1976     ZZ    -164.4001

 Total job time:  104.82s(wall), 4989.63s(cpu)
        *  Thank you very much for using Q-Chem.  Have a nice day.  *
