 Q-Chem 5.0, Q-Chem, Inc., Pleasanton, CA (2017)
 Q-Chem 5.0.1 for Intel X86 EM64T Linux

User input:
--------------------------------------------------------------
$molecule
0  1
O 5.5650426634 -2.1331723534 -1.1307242981
C 4.4753389366 -1.7204713084 -0.6781123331
C 3.7032495451 -0.4278274812 -1.14570412
C 2.9866346064 0.3903579765 0.0064020497
C 2.6115117304 -0.3989346816 1.3212679725
O 1.5831374204 -1.426908753 1.120166134
C 0.2619074168 -0.760606396 1.123417391
C -0.8240038517 -1.8865074486 1.0083462903
O -2.1763300077 -1.2802214674 1.0027840452
C -2.6520622588 -1.1271599984 -0.34330277
C -4.145099045 -0.658137523 -0.2779678577
C -4.5075683206 0.5229320825 0.7047636554
C -3.4246486744 1.6648372584 0.8579865608
O -3.6749302959 2.8406812049 1.2040597294
O 3.7746804091 -2.3463776122 0.3946769918
O -2.1436904594 1.2590119128 0.3664262005
O -1.9902714595 -1.4036591402 -1.3663645034
C -1.2204846455 2.4178257737 0.3585461414
C -4.7990864238 -0.1588609524 -1.6386299529
C -6.2986026368 -0.6418473711 -1.6154651307
C -6.8542803833 0.2323139696 -0.4287313099
C -5.6451676425 1.2165516771 -0.1654069773
O -4.945814874 1.307890785 -1.47505626
H -4.7033834061 -1.5496295444 0.0675243577
H -4.8419131476 0.1682388005 1.6962868907
H -4.2151239176 -0.4015871341 -2.5479372032
H -6.795640324 -0.3870308576 -2.5654434805
H -6.3993024627 -1.7247519474 -1.439392662
H -7.7562089813 0.7932091571 -0.7195925474
H -7.0880663728 -0.3703727264 0.4639750957
H -5.9205040812 2.2260052069 0.1975298617
O 3.1443924067 -0.2216238028 2.4346745081
C 4.5260669664 -3.5168520102 0.9012433988
C 4.8192851459 0.6204717409 -1.5631168151
C 4.1611360328 1.9160370103 -2.1820680787
C 3.67677518 2.6715093869 -0.8874280581
C 4.0028789546 1.5919510658 0.2152672542
O 5.3105606974 1.0581222228 -0.2320344036
H 3.0054122657 -0.6840473985 -1.9642101639
H 2.0364158484 0.7835651671 -0.3986644213
H 5.5540317594 -3.2375084378 1.209521862
H 5.6435758004 0.1700257343 -2.1499133482
H 4.9081561547 2.5020854383 -2.7401040335
H 3.3303290833 1.6682961908 -2.8624710632
H 4.2656245339 3.5866091618 -0.7131403914
H 2.6081937754 2.9382084894 -0.9194571972
H 4.0674660514 1.9600842672 1.2577931214
H 4.5891629741 -4.316828152 0.1353668479
H 3.9582116967 -3.8834147227 1.7759712204
H -0.3401301326 2.105889526 -0.2327729279
H -0.89848404 2.6842689445 1.3862862594
H -1.6902115214 3.3073885208 -0.1068330074
H -0.656234689 -2.4671920728 0.0766283146
H -0.773647192 -2.5582408475 1.8890347155
H 0.1407902508 -0.0718575456 0.2582596225
H 0.0897424409 -0.1756991937 2.0553209995
$end

$rem
JOBTYPE                   OPT
METHOD                    B3LYP
DFT_D                     d3_op
BASIS                     STO-3G
GEOM_OPT_MAX_CYCLES       100
GEOM_OPT_TOL_GRADIENT     300
GEOM_OPT_TOL_DISPLACEMENT 1200
GEOM_OPT_TOL_ENERGY       100
SYMMETRY                  False
THRESH                    12
SCF_CONVERGENCE           8
MAX_SUB_FILE_NUM          128
MEM_STATIC                400
MEM_TOTAL                 4000
$end
--------------------------------------------------------------

   16   -1510.2523270194      5.00E-09 Convergence criterion met
 Total energy in the final basis set = -1510.25232702
   13   -1510.2545280411      8.41E-09 Convergence criterion met
 Total energy in the final basis set = -1510.25452804
   13   -1510.2556645165      8.55E-09 Convergence criterion met
 Total energy in the final basis set = -1510.25566452
   13   -1510.2572239030      3.70E-09 Convergence criterion met
 Total energy in the final basis set = -1510.25722390
   13   -1510.2587409762      5.74E-09 Convergence criterion met
 Total energy in the final basis set = -1510.25874098
   13   -1510.2600222840      4.52E-09 Convergence criterion met
 Total energy in the final basis set = -1510.26002228
   13   -1510.2612605069      5.27E-09 Convergence criterion met
 Total energy in the final basis set = -1510.26126051
   13   -1510.2624183449      5.84E-09 Convergence criterion met
   12   -1510.2871970772      7.88E-09 Convergence criterion met
 Total energy in the final basis set = -1510.28719708
   11   -1510.2872941360      7.90E-09 Convergence criterion met
 Total energy in the final basis set = -1510.28729414
   10   -1510.2873286296      9.05E-09 Convergence criterion met
 Total energy in the final basis set = -1510.28732863
   10   -1510.2873438390      9.26E-09 Convergence criterion met
 Total energy in the final basis set = -1510.28734384
   10   -1510.2873435992      7.81E-09 Convergence criterion met
 Total energy in the final basis set = -1510.28734360
   10   -1510.2873457951      2.74E-09 Convergence criterion met
 Total energy in the final basis set = -1510.28734580

             Standard Nuclear Orientation (Angstroms)
    I     Atom           X                Y                Z
 ----------------------------------------------------------------
    1      O      -5.4649531941    -0.4152134263     0.8921285201
    2      C      -4.3341816017    -0.9434098006     0.9368083718
    3      C      -2.9508162789    -0.2282694400     1.1634067037
    4      C      -2.0361818747    -0.1156361165    -0.1234958654
    5      C      -2.6795368413    -0.7839122149    -1.3870148206
    6      O      -1.8796838437    -0.9821119829    -2.5732159996
    7      C      -0.4325756820    -0.7387630609    -2.4144296409
    8      C       0.3113669983    -1.9858489459    -1.7894877548
    9      O       1.6859450418    -1.6258405656    -1.3568674957
   10      C       1.6799685837    -1.0597800780    -0.0470288599
   11      C       3.1541209845    -0.7892374308     0.4006439802
   12      C       3.9540444209     0.2414248806    -0.5002113254
   13      C       3.1608758126     0.8809410676    -1.6876135641
   14      O       3.5452726597     0.9801208749    -2.8727508671
   15      O      -4.0995887154    -2.3628141376     0.9534927339
   16      O       1.9280821045     1.4314110165    -1.1975686154
   17      O       0.6547826031    -0.8861073372     0.6545509507
   18      C       1.3150288961     2.2822336029    -2.2462601512
   19      C       3.1848779300    -0.0623686968     1.8099254496
   20      C       4.6303017665    -0.2280731794     2.4193409599
   21      C       5.4488278196     0.7772014915     1.5259080004
   22      C       4.3136249704     1.3496848577     0.5887960967
   23      O       3.1150263242     1.3734241725     1.4542175822
   24      H       3.6817791456    -1.7603939014     0.4303466814
   25      H       4.8622790326    -0.2216836925    -0.9239262519
   26      H       2.3408614643    -0.3374173775     2.4719063857
   27      H       4.6392234923     0.0730037924     3.4789747890
   28      H       4.9964385899    -1.2642282435     2.3417314212
   29      H       5.8935301938     1.5848817054     2.1286332019
   30      H       6.2482957074     0.2830429681     0.9511168341
   31      H       4.5111747230     2.3552979448     0.1695867819
   32      O      -3.8825041085    -1.1209697657    -1.4769551093
   33      C      -5.3644369215    -3.0778386904     0.6783415213
   34      C      -3.1503586754     1.2989943231     1.5287058813
   35      C      -1.7922437271     1.8567498915     2.1161956538
   36      C      -0.9220596892     1.9890043028     0.8112213533
   37      C      -1.9426351394     1.4703151632    -0.2778442445
   38      O      -3.2527415482     1.9535929329     0.2041494434
   39      H      -2.4127867249    -0.7733212140     1.9596145604
   40      H      -1.0339423440    -0.5386251542     0.0970928205
   41      H      -5.7355643120    -2.8549215108    -0.3431318973
   42      H      -4.0573625355     1.5061674343     2.1290152826
   43      H      -1.9506478186     2.8348285393     2.5975567802
   44      H      -1.3474653528     1.1676109947     2.8515888447
   45      H      -0.6445543431     3.0369144095     0.6153432426
   46      H      -0.0061802183     1.3754017961     0.8439720462
   47      H      -1.7647305391     1.8297903116    -1.3099505517
   48      H      -6.1560314465    -2.8090367639     1.4075398869
   49      H      -5.1347387450    -4.1562420747     0.7611486299
   50      H       0.3409436441     2.6136191823    -1.8443992035
   51      H       1.1629855218     1.7286210282    -3.1943261810
   52      H       1.9448631179     3.1702711037    -2.4572692205
   53      H      -0.2754192989    -2.3830389446    -0.9344423952
   54      H       0.4321003382    -2.7823329128    -2.5497089271
   55      H      -0.2067095347     0.1561407313    -1.8036146178
   56      H      -0.0499224881    -0.5623126017    -3.4399841313
 ----------------------------------------------------------------

    9   -1510.2873462328      3.75E-09 Convergence criterion met
 Total energy in the final basis set = -1510.28734623
 Final energy is   -1510.28734623285
 **  OPTIMIZATION CONVERGED  **

                    Orbital Energies (a.u.)
 --------------------------------------------------------------

 Alpha MOs
 -- Occupied --
-18.962 -18.946 -18.936 -18.908 -18.906 -18.901 -18.888 -18.880
-18.879 -18.850 -10.128 -10.111 -10.099 -10.088 -10.083 -10.080
-10.074 -10.073 -10.070 -10.055 -10.054 -10.051 -10.048 -10.046
-10.031 -10.030 -10.022 -10.018 -10.011 -10.009  -1.039  -1.022
 -1.008  -0.987  -0.983  -0.964  -0.962  -0.948  -0.939  -0.914
 -0.778  -0.752  -0.738  -0.723  -0.713  -0.711  -0.697  -0.673
 -0.646  -0.628  -0.605  -0.589  -0.558  -0.549  -0.538  -0.531
 -0.527  -0.509  -0.498  -0.483  -0.476  -0.467  -0.451  -0.449
 -0.444  -0.434  -0.426  -0.422  -0.421  -0.408  -0.402  -0.401
 -0.394  -0.393  -0.385  -0.378  -0.371  -0.360  -0.357  -0.350
 -0.345  -0.339  -0.338  -0.336  -0.325  -0.323  -0.320  -0.319
 -0.316  -0.313  -0.308  -0.307  -0.300  -0.291  -0.285  -0.274
 -0.265  -0.264  -0.263  -0.247  -0.245  -0.235  -0.226  -0.207
 -0.190  -0.182  -0.172  -0.164  -0.156  -0.155  -0.148  -0.136
 -0.131

          Ground-State Mulliken Net Atomic Charges

     Atom                 Charge (a.u.)
  ----------------------------------------
      1 O                    -0.217863
      2 C                     0.215495
      3 C                    -0.080396
      4 C                    -0.104984
      5 C                     0.208469
      6 O                    -0.169902
      7 C                    -0.052955
      8 C                    -0.053271
      9 O                    -0.166820
     10 C                     0.223129
     11 C                    -0.077973
     12 C                    -0.078799
     13 C                     0.208252
     14 O                    -0.208478
     15 O                    -0.179493
     16 O                    -0.172316
     17 O                    -0.211778
     18 C                    -0.131201
     19 C                     0.024831
     20 C                    -0.143796
     21 C                    -0.143768
     22 C                     0.026615
     23 O                    -0.185687
     24 H                     0.089147
     25 H                     0.088554
     26 H                     0.091063
     27 H                     0.080564
     28 H                     0.074693
     29 H                     0.080400
     30 H                     0.075612
     31 H                     0.084170
     32 O                    -0.193905
     33 C                    -0.128924
     34 C                     0.025262
     35 C                    -0.143560
     36 C                    -0.147580
     37 C                     0.020769
     38 O                    -0.188822
     39 H                     0.082795
     40 H                     0.106498
     41 H                     0.092077
     42 H                     0.087221
     43 H                     0.075632
     44 H                     0.073872
     45 H                     0.073128
     46 H                     0.085491
     47 H                     0.071998
     48 H                     0.085423
     49 H                     0.083380
     50 H                     0.092639
     51 H                     0.091155
     52 H                     0.089790
     53 H                     0.095152
     54 H                     0.096849
     55 H                     0.090559
     56 H                     0.091587
  ----------------------------------------
  Sum of atomic charges =    -0.000000

                    Cartesian Multipole Moments
 -----------------------------------------------------------------
    Charge (ESU x 10^10)
                -0.0000
    Dipole Moment (Debye)
         X       6.0980      Y      -1.1000      Z       1.2135
       Tot       6.3141
    Quadrupole Moments (Debye-Ang)
        XX    -173.9908     XY       2.3863     YY    -154.7302
        XZ       1.2511     YZ      -3.1018     ZZ    -161.7856

 Total job time:  143.61s(wall), 6849.73s(cpu)
        *  Thank you very much for using Q-Chem.  Have a nice day.  *
