 Q-Chem 5.0, Q-Chem, Inc., Pleasanton, CA (2017)
 Q-Chem 5.0.1 for Intel X86 EM64T Linux

User input:
--------------------------------------------------------------
$molecule
0  1
O -3.94934 -3.66094 2.70899
C -3.26408 -4.56952 2.26188
C -3.36658 -6.02376 2.66595
C -2.09498 -6.69205 3.21393
C -0.91038 -5.78508 3.46337
O 0.25173 -6.47203 3.25599
C 1.38991 -5.84859 3.86024
C 2.6593 -6.61668 3.50693
O 3.66327 -6.39007 4.50871
C 4.11466 -7.50024 5.14347
C 5.62199 -7.57308 5.2012
C 6.29646 -6.42743 5.96987
C 5.38569 -5.5974 6.85205
O 5.73858 -4.95813 7.83254
O -2.37778 -4.29323 1.26945
O 4.03791 -5.55634 6.69271
O 3.37189 -8.37649 5.56743
C 3.14002 -4.85139 7.47381
C 6.16285 -8.80354 5.95434
C 7.59119 -9.09881 5.50011
C 8.33143 -7.94004 6.13192
C 7.18867 -7.27449 6.90698
O 6.3504 -8.34513 7.2675
H 5.96846 -7.61211 4.1438
H 6.90402 -5.73304 5.34979
H 5.53321 -9.71195 5.83526
H 7.90865 -10.04011 6.00372
H 7.72653 -9.20669 4.40239
H 9.09041 -8.3513 6.83424
H 8.81306 -7.23585 5.41944
H 7.60582 -6.68333 7.75187
O -0.98683 -4.72506 4.07643
C -2.15469 -3.03344 0.75499
C -4.33426 -6.23726 3.84609
C -4.80199 -7.69314 3.89029
C -3.55549 -8.37212 4.41374
C -2.63042 -7.16503 4.58198
O -3.50427 -6.13441 4.97454
H -3.74102 -6.55829 1.76451
H -1.76624 -7.5693 2.61029
H -1.79062 -2.35336 1.55459
H -5.21632 -5.5609 3.82013
H -5.60138 -7.78178 4.66019
H -5.17933 -8.07458 2.91704
H -3.78213 -8.79686 5.41744
H -3.13102 -9.16323 3.75869
H -1.81325 -7.40907 5.29718
H -3.09041 -2.62852 0.31363
H -1.38287 -3.09648 -0.03922
H 2.11309 -5.01973 7.09175
H 3.36395 -3.76432 7.42737
H 3.18892 -5.20315 8.52638
H 2.39448 -7.69878 3.44483
H 3.0197 -6.32107 2.499
H 1.24446 -5.91956 4.96178
H 1.51524 -4.77885 3.57691
$end

$opt
CONSTRAINT
tors           1           2           3           4    -122.685
tors           3           4           5           6    -148.363
tors           4           5           6           7    -161.446
tors           5           6           7           8    -176.116
tors           6           7           8           9    -155.246
tors           7           8           9          10    +120.779
tors           8           9          10          11    +131.339
tors           9          10          11          12     +61.815
tors          11          12          13          14    +155.184
ENDCONSTRAINT
$end

$rem
JOBTYPE                   OPT
METHOD                    B3LYP
DFT_D                     d3_op
BASIS                     STO-3G
GEOM_OPT_MAX_CYCLES       100
GEOM_OPT_TOL_GRADIENT     300
GEOM_OPT_TOL_DISPLACEMENT 1200
GEOM_OPT_TOL_ENERGY       100
SYMMETRY                  False
THRESH                    12
SCF_CONVERGENCE           8
MAX_SUB_FILE_NUM          128
MEM_STATIC                400
MEM_TOTAL                 4000
$end
--------------------------------------------------------------

   15   -1510.1254082951      5.32E-09 Convergence criterion met
 Total energy in the final basis set = -1510.12540830
   14   -1510.1985707796      5.46E-09 Convergence criterion met
 Total energy in the final basis set = -1510.19857078
   14   -1510.2386858556      6.57E-09 Convergence criterion met
 Total energy in the final basis set = -1510.23868586
   14   -1510.2556683390      1.73E-09 Convergence criterion met
 Total energy in the final basis set = -1510.25566834
   14   -1510.2607804998      3.70E-09 Convergence criterion met
 Total energy in the final basis set = -1510.26078050
   14   -1510.2632294870      3.29E-09 Convergence criterion met
 Total energy in the final basis set = -1510.26322949
   13   -1510.2640543467      6.55E-09 Convergence criterion met
 Total energy in the final basis set = -1510.26405435
   13   -1510.2645479374      7.62E-09 Convergence criterion met
   11   -1510.2647424152      8.72E-09 Convergence criterion met
 Total energy in the final basis set = -1510.26474242
   10   -1510.2647572138      6.79E-09 Convergence criterion met
 Total energy in the final basis set = -1510.26475721
   11   -1510.2647666145      2.31E-09 Convergence criterion met
 Total energy in the final basis set = -1510.26476661
    9   -1510.2647723124      8.83E-09 Convergence criterion met
 Total energy in the final basis set = -1510.26477231
    9   -1510.2647762168      7.17E-09 Convergence criterion met
 Total energy in the final basis set = -1510.26477622
    9   -1510.2647783806      6.61E-09 Convergence criterion met
 Total energy in the final basis set = -1510.26477838

             Standard Nuclear Orientation (Angstroms)
    I     Atom           X                Y                Z
 ----------------------------------------------------------------
    1      O      -6.1765668169     1.7694090644     0.3583753898
    2      C      -5.5313358942     1.1295492108    -0.4976882903
    3      C      -5.3447910908    -0.4282537787    -0.5900664293
    4      C      -3.8316918041    -0.8952396308    -0.5747811344
    5      C      -2.8290441161     0.2802471035    -0.3228231929
    6      O      -1.6093956644    -0.0044684237    -1.0188573542
    7      C      -0.5024882446     0.8197738809    -0.4683335481
    8      C       0.7670852378     0.5242435053    -1.3461530793
    9      O       1.9910211180     0.8009872295    -0.5587374691
   10      C       2.8029108609    -0.3986916320    -0.4576085933
   11      C       4.2937428713    -0.0627484321    -0.8235185774
   12      C       5.0598277965     0.9826102544     0.0832011890
   13      C       4.5353827102     1.1094050821     1.5660044101
   14      O       5.2031347634     1.5023376479     2.5471298209
   15      O      -4.9000420400     1.7161030677    -1.6446749989
   16      O       3.2048523541     0.6053594801     1.6703276306
   17      O       2.3291004572    -1.5430995505    -0.2988686267
   18      C       2.7343135289     0.6346060772     3.0723572967
   19      C       5.2843872607    -1.3033402891    -0.7815188411
   20      C       6.3892326750    -1.0466992744    -1.8755612525
   21      C       7.1637560599     0.1596558445    -1.2218745435
   22      C       6.4672931751     0.2525709363     0.1935061422
   23      O       6.0384641918    -1.1390206389     0.4834597134
   24      H       4.2461061549     0.3403760229    -1.8528532887
   25      H       5.1157993174     1.9831289999    -0.3831515896
   26      H       4.7787328423    -2.2883245061    -0.8128218502
   27      H       7.0389471708    -1.9305644921    -1.9798217826
   28      H       5.9630624680    -0.8003050060    -2.8611600969
   29      H       8.2376465978    -0.0578082808    -1.1104658217
   30      H       7.0518531589     1.0943872198    -1.7950857330
   31      H       7.1004501270     0.6434222008     1.0139437144
   32      O      -3.0049692879     1.2737509437     0.4167317925
   33      C      -4.9866791124     3.1910019925    -1.5665240080
   34      C      -5.9083228572    -1.1628655753     0.6958931436
   35      C      -6.1142786068    -2.6865504133     0.3424025980
   36      C      -4.6226820322    -3.1885400256     0.2970229465
   37      C      -3.8419920475    -1.8701013841     0.6841917413
   38      O      -4.7526369001    -1.1813607004     1.6246228006
   39      H      -5.8471043990    -0.7790117039    -1.5102100749
   40      H      -3.5426163943    -1.4213810926    -1.5012019995
   41      H      -4.4353034156     3.5780426828    -0.6850152192
   42      H      -6.7709851331    -0.6509854731     1.1653779531
   43      H      -6.6850199970    -3.1927547125     1.1373093822
   44      H      -6.6413263881    -2.8259500729    -0.6150141191
   45      H      -4.4370284153    -3.9773860807     1.0430549033
   46      H      -4.3305225160    -3.5659452694    -0.6961810843
   47      H      -2.8492294733    -2.0308154107     1.1480161270
   48      H      -6.0383973750     3.5382927818    -1.5067244917
   49      H      -4.5212209312     3.5756540320    -2.4926329778
   50      H       1.7191220823     0.1968362671     3.0594317489
   51      H       2.6876215510     1.6721842821     3.4617762366
   52      H       3.3931033721     0.0351836200     3.7332698226
   53      H       0.7262886318    -0.5407816440    -1.6602379467
   54      H       0.7761147634     1.1737194995    -2.2476878051
   55      H      -0.2943963620     0.5250098489     0.5839707985
   56      H      -0.7638584737     1.8995165593    -0.4768831720
 ----------------------------------------------------------------

    9   -1510.2647784208      3.16E-09 Convergence criterion met
 Total energy in the final basis set = -1510.26477842
 Final energy is   -1510.26477842080
 **  OPTIMIZATION CONVERGED  **

                    Orbital Energies (a.u.)
 --------------------------------------------------------------

 Alpha MOs
 -- Occupied --
-18.946 -18.932 -18.925 -18.911 -18.887 -18.886 -18.881 -18.877
-18.876 -18.869 -10.105 -10.104 -10.099 -10.094 -10.071 -10.070
-10.069 -10.060 -10.060 -10.059 -10.058 -10.055 -10.042 -10.038
-10.037 -10.034 -10.023 -10.021 -10.020 -10.018  -1.019  -1.013
 -1.003  -1.002  -0.971  -0.969  -0.940  -0.938  -0.932  -0.929
 -0.765  -0.761  -0.727  -0.723  -0.712  -0.704  -0.695  -0.666
 -0.657  -0.614  -0.599  -0.580  -0.547  -0.544  -0.539  -0.536
 -0.514  -0.509  -0.488  -0.476  -0.462  -0.452  -0.451  -0.447
 -0.444  -0.430  -0.428  -0.417  -0.411  -0.409  -0.406  -0.398
 -0.395  -0.386  -0.376  -0.366  -0.362  -0.355  -0.353  -0.349
 -0.343  -0.341  -0.338  -0.331  -0.330  -0.325  -0.318  -0.314
 -0.310  -0.309  -0.303  -0.301  -0.297  -0.291  -0.281  -0.271
 -0.269  -0.255  -0.250  -0.248  -0.239  -0.235  -0.233  -0.183
 -0.178  -0.169  -0.167  -0.159  -0.154  -0.151  -0.146  -0.145
 -0.142

          Ground-State Mulliken Net Atomic Charges

     Atom                 Charge (a.u.)
  ----------------------------------------
      1 O                    -0.210557
      2 C                     0.215251
      3 C                    -0.079851
      4 C                    -0.078015
      5 C                     0.212741
      6 O                    -0.175040
      7 C                    -0.048108
      8 C                    -0.050059
      9 O                    -0.186134
     10 C                     0.226495
     11 C                    -0.080614
     12 C                    -0.075560
     13 C                     0.214937
     14 O                    -0.212618
     15 O                    -0.176086
     16 O                    -0.163900
     17 O                    -0.209295
     18 C                    -0.124409
     19 C                     0.022062
     20 C                    -0.142061
     21 C                    -0.145603
     22 C                     0.023723
     23 O                    -0.192283
     24 H                     0.081592
     25 H                     0.087035
     26 H                     0.090189
     27 H                     0.078523
     28 H                     0.072561
     29 H                     0.079112
     30 H                     0.073381
     31 H                     0.089492
     32 O                    -0.211115
     33 C                    -0.128795
     34 C                     0.024461
     35 C                    -0.143696
     36 C                    -0.143768
     37 C                     0.025351
     38 O                    -0.187722
     39 H                     0.083619
     40 H                     0.086433
     41 H                     0.092291
     42 H                     0.090719
     43 H                     0.078090
     44 H                     0.072968
     45 H                     0.078462
     46 H                     0.073926
     47 H                     0.082524
     48 H                     0.088054
     49 H                     0.087180
     50 H                     0.094297
     51 H                     0.091786
     52 H                     0.094121
     53 H                     0.094367
     54 H                     0.081915
     55 H                     0.087564
     56 H                     0.090067
  ----------------------------------------
  Sum of atomic charges =    -0.000000

                    Cartesian Multipole Moments
 -----------------------------------------------------------------
    Charge (ESU x 10^10)
                -0.0000
    Dipole Moment (Debye)
         X       0.7481      Y      -0.2659      Z      -3.6999
       Tot       3.7842
    Quadrupole Moments (Debye-Ang)
        XX    -161.8711     XY      11.6183     YY    -157.4700
        XZ      -1.2658     YZ      -3.9750     ZZ    -158.5012

 Total job time:  45.79s(wall), 2172.36s(cpu)
        *  Thank you very much for using Q-Chem.  Have a nice day.  *
