 Q-Chem 5.0, Q-Chem, Inc., Pleasanton, CA (2017)
 Q-Chem 5.0.1 for Intel X86 EM64T Linux

User input:
--------------------------------------------------------------
$molecule
0  1
O -6.1765668169 1.7694090644 0.3583753898
C -5.5313358942 1.1295492108 -0.4976882903
C -5.3447910908 -0.4282537787 -0.5900664293
C -3.8316918041 -0.8952396308 -0.5747811344
C -2.8290441161 0.2802471035 -0.3228231929
O -1.6093956644 -0.0044684237 -1.0188573542
C -0.5024882446 0.8197738809 -0.4683335481
C 0.7670852378 0.5242435053 -1.3461530793
O 1.991021118 0.8009872295 -0.5587374691
C 2.8029108609 -0.398691632 -0.4576085933
C 4.2937428713 -0.0627484321 -0.8235185774
C 5.0598277965 0.9826102544 0.083201189
C 4.5353827102 1.1094050821 1.5660044101
O 5.2031347634 1.5023376479 2.5471298209
O -4.90004204 1.7161030677 -1.6446749989
O 3.2048523541 0.6053594801 1.6703276306
O 2.3291004572 -1.5430995505 -0.2988686267
C 2.7343135289 0.6346060772 3.0723572967
C 5.2843872607 -1.3033402891 -0.7815188411
C 6.389232675 -1.0466992744 -1.8755612525
C 7.1637560599 0.1596558445 -1.2218745435
C 6.4672931751 0.2525709363 0.1935061422
O 6.0384641918 -1.1390206389 0.4834597134
H 4.2461061549 0.3403760229 -1.8528532887
H 5.1157993174 1.9831289999 -0.3831515896
H 4.7787328423 -2.2883245061 -0.8128218502
H 7.0389471708 -1.9305644921 -1.9798217826
H 5.963062468 -0.800305006 -2.8611600969
H 8.2376465978 -0.0578082808 -1.1104658217
H 7.0518531589 1.0943872198 -1.795085733
H 7.100450127 0.6434222008 1.0139437144
O -3.0049692879 1.2737509437 0.4167317925
C -4.9866791124 3.1910019925 -1.566524008
C -5.9083228572 -1.1628655753 0.6958931436
C -6.1142786068 -2.6865504133 0.342402598
C -4.6226820322 -3.1885400256 0.2970229465
C -3.8419920475 -1.8701013841 0.6841917413
O -4.7526369001 -1.1813607004 1.6246228006
H -5.847104399 -0.7790117039 -1.5102100749
H -3.5426163943 -1.4213810926 -1.5012019995
H -4.4353034156 3.5780426828 -0.6850152192
H -6.7709851331 -0.6509854731 1.1653779531
H -6.685019997 -3.1927547125 1.1373093822
H -6.6413263881 -2.8259500729 -0.6150141191
H -4.4370284153 -3.9773860807 1.0430549033
H -4.330522516 -3.5659452694 -0.6961810843
H -2.8492294733 -2.0308154107 1.148016127
H -6.038397375 3.5382927818 -1.5067244917
H -4.5212209312 3.575654032 -2.4926329778
H 1.7191220823 0.1968362671 3.0594317489
H 2.687621551 1.6721842821 3.4617762366
H 3.3931033721 0.03518362 3.7332698226
H 0.7262886318 -0.540781644 -1.6602379467
H 0.7761147634 1.1737194995 -2.2476878051
H -0.294396362 0.5250098489 0.5839707985
H -0.7638584737 1.8995165593 -0.476883172
$end

$rem
JOBTYPE                   OPT
METHOD                    B3LYP
DFT_D                     d3_op
BASIS                     STO-3G
GEOM_OPT_MAX_CYCLES       100
GEOM_OPT_TOL_GRADIENT     300
GEOM_OPT_TOL_DISPLACEMENT 1200
GEOM_OPT_TOL_ENERGY       100
SYMMETRY                  False
THRESH                    12
SCF_CONVERGENCE           8
MAX_SUB_FILE_NUM          128
MEM_STATIC                400
MEM_TOTAL                 4000
$end
--------------------------------------------------------------

   16   -1510.2645215389      4.57E-09 Convergence criterion met
 Total energy in the final basis set = -1510.26452154
   14   -1510.2696925952      5.35E-09 Convergence criterion met
 Total energy in the final basis set = -1510.26969260
   14   -1510.2745408350      4.34E-09 Convergence criterion met
 Total energy in the final basis set = -1510.27454083
   14   -1510.2780815803      6.61E-09 Convergence criterion met
 Total energy in the final basis set = -1510.27808158
   14   -1510.2803359149      4.59E-09 Convergence criterion met
 Total energy in the final basis set = -1510.28033591
   13   -1510.2815427449      9.73E-09 Convergence criterion met
 Total energy in the final basis set = -1510.28154274
   14   -1510.2823253520      4.02E-09 Convergence criterion met
 Total energy in the final basis set = -1510.28232535
   14   -1510.2831669182      2.56E-09 Convergence criterion met
   11   -1510.3009179965      7.11E-09 Convergence criterion met
 Total energy in the final basis set = -1510.30091800
   11   -1510.3009268957      8.16E-09 Convergence criterion met
 Total energy in the final basis set = -1510.30092690
   11   -1510.3009290560      6.48E-09 Convergence criterion met
 Total energy in the final basis set = -1510.30092906
    9   -1510.3009297350      8.76E-09 Convergence criterion met
 Total energy in the final basis set = -1510.30092973
    9   -1510.3009292426      8.78E-09 Convergence criterion met
 Total energy in the final basis set = -1510.30092924
    9   -1510.3009304158      5.60E-09 Convergence criterion met
 Total energy in the final basis set = -1510.30093042

             Standard Nuclear Orientation (Angstroms)
    I     Atom           X                Y                Z
 ----------------------------------------------------------------
    1      O      -3.2838327548     1.9209309767     1.6262664844
    2      C      -3.6758525343     1.2679720694     0.6367309708
    3      C      -3.6474874010    -0.2928356936     0.4429318261
    4      C      -2.5676128737    -0.7775012751    -0.6100963074
    5      C      -1.8010463514     0.3845310776    -1.3159187937
    6      O      -1.4354800857    -0.0627476290    -2.6260597813
    7      C      -0.5702050504     0.9349948008    -3.2957857593
    8      C       0.7967035989     0.2559492798    -3.6944700057
    9      O       1.9584068806     0.6468324725    -2.8603163683
   10      C       1.8751248524     0.0963395543    -1.5412485859
   11      C       3.2561054210     0.3205447663    -0.8428589494
   12      C       3.1977944537     0.2041678391     0.7321388168
   13      C       1.7542903699     0.1640901347     1.3614458144
   14      O       1.2507767659    -0.7819154038     2.0051516744
   15      O      -4.3106879929     1.8398703706    -0.5153325503
   16      O       1.1538480958     1.4382151264     1.1481910564
   17      O       0.8818816386    -0.5153128736    -1.0918050206
   18      C      -0.1580438562     1.5273779072     1.8406752574
   19      C       4.1959432061    -0.9188397512    -1.1866994219
   20      C       5.6642052407    -0.6093012342    -0.6893256589
   21      C       5.5238300502    -0.8549420623     0.8596031555
   22      C       3.9803560239    -1.1542649259     0.9723282006
   23      O       3.7053197958    -1.9516945190    -0.2480079057
   24      H       3.6841903877     1.2785850546    -1.1861793851
   25      H       3.7358713325     1.0554604099     1.1870996218
   26      H       4.1192063778    -1.2709018419    -2.2340976842
   27      H       6.3823468256    -1.3063050885    -1.1494790245
   28      H       5.9701092894     0.4218963695    -0.9287593702
   29      H       6.1114566059    -1.7294017004     1.1819024463
   30      H       5.8273508530     0.0173613158     1.4599286127
   31      H       3.6503842759    -1.7053643848     1.8742133037
   32      O      -1.5301975781     1.5181820479    -0.8604004477
   33      C      -4.2563617222     3.3163089734    -0.4336737029
   34      C      -3.1374461497    -1.0187355769     1.7515682701
   35      C      -3.4177034462    -2.5671652825     1.6252643793
   36      C      -2.2823538362    -3.0094370018     0.6257337384
   37      C      -1.5890127209    -1.6281480310     0.3207942879
   38      O      -1.6622882329    -0.9336275134     1.6255639017
   39      H      -4.6580428573    -0.6264486806     0.1454569293
   40      H      -3.0148341626    -1.4154558285    -1.3921395794
   41      H      -3.2074424301     3.6766443249    -0.4649094156
   42      H      -3.4680209559    -0.5414459623     2.6941409236
   43      H      -3.3087587270    -3.0605147820     2.6040146566
   44      H      -4.4280155264    -2.7718381119     1.2363597574
   45      H      -1.5671706559    -3.6951698330     1.1073669669
   46      H      -2.6768270889    -3.4896659090    -0.2839341769
   47      H      -0.5406413627    -1.6553922727    -0.0417497313
   48      H      -4.7337311772     3.6948130418     0.4930916479
   49      H      -4.8050573896     3.6943396601    -1.3158238655
   50      H      -0.7494700283     0.5803817473     1.7499290764
   51      H      -0.7041249391     2.3578870263     1.3587552906
   52      H      -0.0037904614     1.7634954373     2.9133372127
   53      H       0.6535409808    -0.8472136970    -3.6763441113
   54      H       1.0814039041     0.5650069829    -4.7203040654
   55      H      -0.4147480182     1.7982103502    -2.6109060711
   56      H      -1.0929663696     1.2826489179    -4.2116574596
 ----------------------------------------------------------------

    9   -1510.3009306158      3.21E-09 Convergence criterion met
 Total energy in the final basis set = -1510.30093062
 Final energy is   -1510.30093061585
 **  OPTIMIZATION CONVERGED  **

                    Orbital Energies (a.u.)
 --------------------------------------------------------------

 Alpha MOs
 -- Occupied --
-18.939 -18.934 -18.924 -18.903 -18.898 -18.883 -18.882 -18.878
-18.867 -18.848 -10.106 -10.102 -10.092 -10.079 -10.076 -10.071
-10.059 -10.058 -10.057 -10.053 -10.050 -10.036 -10.036 -10.034
-10.024 -10.018 -10.018 -10.016 -10.015 -10.009  -1.020  -1.011
 -1.001  -0.983  -0.972  -0.966  -0.943  -0.937  -0.928  -0.909
 -0.762  -0.758  -0.726  -0.719  -0.711  -0.701  -0.694  -0.656
 -0.631  -0.618  -0.592  -0.577  -0.544  -0.539  -0.534  -0.531
 -0.511  -0.504  -0.481  -0.464  -0.459  -0.449  -0.449  -0.444
 -0.436  -0.428  -0.425  -0.411  -0.406  -0.400  -0.397  -0.390
 -0.378  -0.375  -0.374  -0.361  -0.354  -0.352  -0.349  -0.345
 -0.341  -0.334  -0.329  -0.328  -0.325  -0.321  -0.317  -0.307
 -0.305  -0.302  -0.296  -0.295  -0.294  -0.279  -0.271  -0.269
 -0.265  -0.257  -0.249  -0.246  -0.239  -0.230  -0.215  -0.190
 -0.172  -0.168  -0.160  -0.157  -0.153  -0.145  -0.141  -0.139
 -0.129

          Ground-State Mulliken Net Atomic Charges

     Atom                 Charge (a.u.)
  ----------------------------------------
      1 O                    -0.212437
      2 C                     0.214533
      3 C                    -0.080750
      4 C                    -0.079158
      5 C                     0.222046
      6 O                    -0.171205
      7 C                    -0.056625
      8 C                    -0.050215
      9 O                    -0.172209
     10 C                     0.219262
     11 C                    -0.077141
     12 C                    -0.081295
     13 C                     0.209952
     14 O                    -0.216695
     15 O                    -0.175674
     16 O                    -0.181172
     17 O                    -0.213374
     18 C                    -0.151864
     19 C                     0.024699
     20 C                    -0.144187
     21 C                    -0.143351
     22 C                     0.023587
     23 O                    -0.191090
     24 H                     0.087682
     25 H                     0.082135
     26 H                     0.080334
     27 H                     0.077204
     28 H                     0.073520
     29 H                     0.077110
     30 H                     0.073455
     31 H                     0.091084
     32 O                    -0.214138
     33 C                    -0.128951
     34 C                     0.026924
     35 C                    -0.143638
     36 C                    -0.142523
     37 C                     0.023453
     38 O                    -0.178315
     39 H                     0.084817
     40 H                     0.087416
     41 H                     0.092182
     42 H                     0.090160
     43 H                     0.079745
     44 H                     0.072831
     45 H                     0.082648
     46 H                     0.073593
     47 H                     0.111544
     48 H                     0.088022
     49 H                     0.086873
     50 H                     0.119331
     51 H                     0.085856
     52 H                     0.068741
     53 H                     0.093939
     54 H                     0.090435
     55 H                     0.105811
     56 H                     0.085083
  ----------------------------------------
  Sum of atomic charges =     0.000000

                    Cartesian Multipole Moments
 -----------------------------------------------------------------
    Charge (ESU x 10^10)
                -0.0000
    Dipole Moment (Debye)
         X      -0.1910      Y       0.2162      Z      -3.0229
       Tot       3.0367
    Quadrupole Moments (Debye-Ang)
        XX    -141.1112     XY       4.8805     YY    -158.9974
        XZ      -0.1686     YZ      -2.7012     ZZ    -154.2342

 Total job time:  216.32s(wall), 10305.88s(cpu)
        *  Thank you very much for using Q-Chem.  Have a nice day.  *
