 Q-Chem 5.0, Q-Chem, Inc., Pleasanton, CA (2017)
 Q-Chem 5.0.1 for Intel X86 EM64T Linux

User input:
--------------------------------------------------------------
$molecule
0  1
O -3.94934 -3.66094 2.70899
C -3.26408 -4.56952 2.26188
C -3.36658 -6.02376 2.66595
C -4.28267 -6.35999 3.85405
C -5.13119 -5.22943 4.39249
O -4.3308 -4.2735 4.95017
C -5.04831 -3.34941 5.77508
C -4.10967 -2.25999 6.28327
O -4.79354 -1.42949 7.23483
C -4.24483 -1.38946 8.47437
C -4.0445 0.01797 8.98396
C -4.07177 1.10797 7.90256
C -4.6386 0.69262 6.55984
O -5.27792 1.41296 5.80689
O -2.38861 -4.29391 1.25987
O -3.52392 0.25155 5.90142
O -4.07639 -2.38898 9.15786
C -3.1927 0.49773 4.5736
C -5.15272 0.47245 9.94041
C -4.6334 1.60515 10.82267
C -4.54892 2.72907 9.81212
C -5.12366 2.03117 8.57264
O -6.06593 1.12896 9.10112
H -3.05568 0.01596 9.49558
H -3.1233 1.67951 7.7697
H -5.56096 -0.35325 10.56345
H -5.43272 1.84704 11.55931
H -3.68854 1.38166 11.36341
H -5.22863 3.54608 10.14238
H -3.52963 3.13352 9.63121
H -5.52908 2.79777 7.87614
O -6.35737 -5.20169 4.38744
C -2.18318 -3.03599 0.73296
C -3.99568 -6.88762 1.56008
C -3.57676 -8.34591 1.73789
C -4.39115 -8.72647 2.95642
C -5.17349 -7.429 3.1869
O -5.36306 -6.91729 1.88948
H -2.324 -6.35274 2.87696
H -3.72219 -6.78126 4.71856
H -1.82127 -2.34435 1.52374
H -3.74593 -6.53817 0.53428
H -3.96369 -8.91463 0.86217
H -2.48107 -8.50818 1.82803
H -5.08859 -9.54502 2.66977
H -3.80112 -9.0273 3.84902
H -6.09602 -7.64451 3.76941
H -3.12684 -2.64539 0.29552
H -1.41715 -3.0972 -0.06699
H -2.23303 -0.00657 4.33814
H -3.06906 1.58888 4.4064
H -3.98133 0.1032 3.8972
H -3.21645 -2.75321 6.73491
H -3.78208 -1.8052 5.34701
H -5.47339 -3.89353 6.64871
H -5.87392 -2.8582 5.20971
$end

$opt
CONSTRAINT
tors           1           2           3           4      -7.940
tors           3           4           5           6     -66.316
tors           4           5           6           7    -164.971
tors           5           6           7           8    -176.116
tors           6           7           8           9    -173.154
tors           7           8           9          10    +120.291
tors           8           9          10          11    +129.756
tors           9          10          11          12     -18.042
tors          11          12          13          14    +146.076
ENDCONSTRAINT
$end

$rem
JOBTYPE                   OPT
METHOD                    B3LYP
DFT_D                     d3_op
BASIS                     STO-3G
GEOM_OPT_MAX_CYCLES       100
GEOM_OPT_TOL_GRADIENT     300
GEOM_OPT_TOL_DISPLACEMENT 1200
GEOM_OPT_TOL_ENERGY       100
SYMMETRY                  False
THRESH                    12
SCF_CONVERGENCE           8
MAX_SUB_FILE_NUM          128
MEM_STATIC                400
MEM_TOTAL                 4000
$end
--------------------------------------------------------------

   15   -1510.0809014031      8.93E-09 Convergence criterion met
 Total energy in the final basis set = -1510.08090140
   14   -1510.1574753001      7.05E-09 Convergence criterion met
 Total energy in the final basis set = -1510.15747530
   14   -1510.1971831778      7.45E-09 Convergence criterion met
 Total energy in the final basis set = -1510.19718318
   15   -1510.2260619073      2.30E-09 Convergence criterion met
 Total energy in the final basis set = -1510.22606191
   14   -1510.2392346778      5.54E-09 Convergence criterion met
 Total energy in the final basis set = -1510.23923468
   14   -1510.2470082975      3.29E-09 Convergence criterion met
 Total energy in the final basis set = -1510.24700830
   13   -1510.2518881857      4.07E-09 Convergence criterion met
 Total energy in the final basis set = -1510.25188819
   12   -1510.2551209360      8.12E-09 Convergence criterion met
    9   -1510.2632755001      5.40E-09 Convergence criterion met
 Total energy in the final basis set = -1510.26327550
   12   -1510.2633057920      4.06E-09 Convergence criterion met
 Total energy in the final basis set = -1510.26330579
    9   -1510.2633224216      9.75E-09 Convergence criterion met
 Total energy in the final basis set = -1510.26332242
    9   -1510.2633254731      4.55E-09 Convergence criterion met
 Total energy in the final basis set = -1510.26332547
    9   -1510.2633267577      1.47E-09 Convergence criterion met
 Total energy in the final basis set = -1510.26332676
    8   -1510.2633279364      9.74E-09 Convergence criterion met
 Total energy in the final basis set = -1510.26332794

             Standard Nuclear Orientation (Angstroms)
    I     Atom           X                Y                Z
 ----------------------------------------------------------------
    1      O      -2.9290447850     1.2124336551     1.3298653670
    2      C      -3.7039262802     1.4211725882     0.3691599071
    3      C      -4.4114911291     0.3416516058    -0.5182329750
    4      C      -3.8889003039    -1.1166275951    -0.2037767790
    5      C      -2.5897054715    -1.1862862230     0.6830275550
    6      O      -1.5065628188    -0.6261580875    -0.0784010739
    7      C      -0.2093802423    -0.9857857709     0.5424460221
    8      C       0.8903565813    -0.2474703669    -0.2995568548
    9      O       2.2362947535    -0.6815527903     0.1491215546
   10      C       2.9825331114    -1.2886476691    -0.9326140109
   11      C       4.4315016409    -0.6848794167    -1.0929350653
   12      C       4.6686127699     0.7094370410    -0.4039870799
   13      C       3.4238182083     1.6463157897    -0.2863259233
   14      O       3.1523853499     2.4515942310     0.6298619745
   15      O      -4.1089856353     2.7195053981    -0.0677335627
   16      O       2.7574731330     1.6273504721    -1.5650769962
   17      O       2.4975905044    -2.1601079518    -1.6860893351
   18      C       1.7701141033     2.7277827590    -1.6538906428
   19      C       5.3799256017    -1.5812779250    -0.1733781057
   20      C       6.8889650884    -1.1262750145    -0.3116646001
   21      C       6.9197676047     0.1458128562     0.6171241946
   22      C       5.3854626739     0.2913383427     0.9505123753
   23      O       4.9777386902    -1.1155037751     1.1765307532
   24      H       4.7021859815    -0.7042566745    -2.1628701674
   25      H       5.3863087697     1.2795311610    -1.0255613534
   26      H       5.2090007175    -2.6707022180    -0.2770409693
   27      H       7.5658929754    -1.9148098814     0.0529918804
   28      H       7.1504486304    -0.8940549667    -1.3567850284
   29      H       7.4945050030    -0.0445696435     1.5379163288
   30      H       7.3339498844     1.0354232237     0.1163471006
   31      H       5.1287304335     0.9232530368     1.8228992237
   32      O      -2.4568355076    -1.7687625331     1.7793934743
   33      C      -3.4855172641     3.7570335692     0.7874263123
   34      C      -5.9300904247     0.2036588592    -0.0648484702
   35      C      -6.6880825291    -0.7461316959    -1.0760352509
   36      C      -6.1847239775    -2.1621946503    -0.6074756578
   37      C      -5.1522826716    -1.7532164601     0.5131828652
   38      O      -5.8156709819    -0.6021503696     1.1716527100
   39      H      -4.3149786761     0.6139956589    -1.5842161360
   40      H      -3.6651862448    -1.6478123047    -1.1469387632
   41      H      -2.3798774118     3.7462116261     0.6984514508
   42      H      -6.4307075638     1.1700114353     0.1403557359
   43      H      -7.7785245977    -0.6423551485    -0.9591732794
   44      H      -6.4233709191    -0.5260690781    -2.1227594572
   45      H      -7.0056161736    -2.7566800860    -0.1754086385
   46      H      -5.7172910811    -2.7408840168    -1.4200993940
   47      H      -4.9026075141    -2.5343955374     1.2574724458
   48      H      -3.7535655912     3.6203589442     1.8548131356
   49      H      -3.8764381306     4.7258598486     0.4260323746
   50      H       0.8064661389     2.3179806712    -2.0122885278
   51      H       2.1325830757     3.4849283316    -2.3781587666
   52      H       1.6447588154     3.1982589846    -0.6576458994
   53      H       0.7288149432    -0.4560782836    -1.3774967944
   54      H       0.8058350343     0.8423622760    -0.1180696520
   55      H      -0.0461197464    -2.0854694869     0.5020674195
   56      H      -0.1667707076    -0.6684843627     1.6066048414
 ----------------------------------------------------------------

    9   -1510.2633288005      1.89E-09 Convergence criterion met
 Total energy in the final basis set = -1510.26332880
 Final energy is   -1510.26332880046
 **  OPTIMIZATION CONVERGED  **

                    Orbital Energies (a.u.)
 --------------------------------------------------------------

 Alpha MOs
 -- Occupied --
-18.941 -18.930 -18.918 -18.916 -18.889 -18.887 -18.885 -18.883
-18.879 -18.863 -10.105 -10.104 -10.103 -10.091 -10.070 -10.068
-10.061 -10.061 -10.061 -10.060 -10.060 -10.055 -10.042 -10.040
-10.039 -10.032 -10.022 -10.021 -10.020 -10.018  -1.017  -1.014
 -1.006  -0.998  -0.971  -0.969  -0.941  -0.939  -0.937  -0.925
 -0.766  -0.762  -0.727  -0.723  -0.709  -0.705  -0.694  -0.666
 -0.663  -0.609  -0.598  -0.579  -0.548  -0.543  -0.539  -0.536
 -0.514  -0.509  -0.490  -0.474  -0.464  -0.455  -0.452  -0.449
 -0.434  -0.430  -0.429  -0.416  -0.415  -0.411  -0.411  -0.398
 -0.394  -0.377  -0.374  -0.368  -0.367  -0.357  -0.350  -0.349
 -0.342  -0.339  -0.338  -0.331  -0.331  -0.327  -0.323  -0.314
 -0.311  -0.306  -0.303  -0.300  -0.295  -0.290  -0.278  -0.275
 -0.271  -0.257  -0.251  -0.244  -0.240  -0.234  -0.233  -0.184
 -0.177  -0.168  -0.165  -0.163  -0.157  -0.154  -0.145  -0.144
 -0.141

          Ground-State Mulliken Net Atomic Charges

     Atom                 Charge (a.u.)
  ----------------------------------------
      1 O                    -0.204259
      2 C                     0.214955
      3 C                    -0.077522
      4 C                    -0.080942
      5 C                     0.217428
      6 O                    -0.183719
      7 C                    -0.047140
      8 C                    -0.044037
      9 O                    -0.182428
     10 C                     0.221068
     11 C                    -0.075553
     12 C                    -0.077582
     13 C                     0.215968
     14 O                    -0.214606
     15 O                    -0.169763
     16 O                    -0.179811
     17 O                    -0.198931
     18 C                    -0.138579
     19 C                     0.024186
     20 C                    -0.145657
     21 C                    -0.141554
     22 C                     0.025075
     23 O                    -0.188378
     24 H                     0.089821
     25 H                     0.084415
     26 H                     0.083917
     27 H                     0.079008
     28 H                     0.073475
     29 H                     0.078805
     30 H                     0.073076
     31 H                     0.091538
     32 O                    -0.213894
     33 C                    -0.128299
     34 C                     0.024802
     35 C                    -0.144399
     36 C                    -0.143177
     37 C                     0.023930
     38 O                    -0.190280
     39 H                     0.086498
     40 H                     0.082845
     41 H                     0.089151
     42 H                     0.084144
     43 H                     0.078016
     44 H                     0.073224
     45 H                     0.078141
     46 H                     0.073216
     47 H                     0.091496
     48 H                     0.092852
     49 H                     0.091392
     50 H                     0.085249
     51 H                     0.083684
     52 H                     0.100296
     53 H                     0.091659
     54 H                     0.087412
     55 H                     0.085484
     56 H                     0.094284
  ----------------------------------------
  Sum of atomic charges =    -0.000000

                    Cartesian Multipole Moments
 -----------------------------------------------------------------
    Charge (ESU x 10^10)
                 0.0000
    Dipole Moment (Debye)
         X       0.7172      Y       2.2548      Z      -3.9016
       Tot       4.5631
    Quadrupole Moments (Debye-Ang)
        XX    -138.4077     XY      -0.6325     YY    -154.7426
        XZ       4.0130     YZ       0.6044     ZZ    -167.4507

 Total job time:  113.47s(wall), 5397.54s(cpu)
        *  Thank you very much for using Q-Chem.  Have a nice day.  *
