 Q-Chem 5.0, Q-Chem, Inc., Pleasanton, CA (2017)
 Q-Chem 5.0.1 for Intel X86 EM64T Linux

User input:
--------------------------------------------------------------
$molecule
0  1
O -2.929044785 1.2124336551 1.329865367
C -3.7039262802 1.4211725882 0.3691599071
C -4.4114911291 0.3416516058 -0.518232975
C -3.8889003039 -1.1166275951 -0.203776779
C -2.5897054715 -1.186286223 0.683027555
O -1.5065628188 -0.6261580875 -0.0784010739
C -0.2093802423 -0.9857857709 0.5424460221
C 0.8903565813 -0.2474703669 -0.2995568548
O 2.2362947535 -0.6815527903 0.1491215546
C 2.9825331114 -1.2886476691 -0.9326140109
C 4.4315016409 -0.6848794167 -1.0929350653
C 4.6686127699 0.709437041 -0.4039870799
C 3.4238182083 1.6463157897 -0.2863259233
O 3.1523853499 2.451594231 0.6298619745
O -4.1089856353 2.7195053981 -0.0677335627
O 2.757473133 1.6273504721 -1.5650769962
O 2.4975905044 -2.1601079518 -1.6860893351
C 1.7701141033 2.727782759 -1.6538906428
C 5.3799256017 -1.581277925 -0.1733781057
C 6.8889650884 -1.1262750145 -0.3116646001
C 6.9197676047 0.1458128562 0.6171241946
C 5.3854626739 0.2913383427 0.9505123753
O 4.9777386902 -1.1155037751 1.1765307532
H 4.7021859815 -0.7042566745 -2.1628701674
H 5.3863087697 1.279531161 -1.0255613534
H 5.2090007175 -2.670702218 -0.2770409693
H 7.5658929754 -1.9148098814 0.0529918804
H 7.1504486304 -0.8940549667 -1.3567850284
H 7.494505003 -0.0445696435 1.5379163288
H 7.3339498844 1.0354232237 0.1163471006
H 5.1287304335 0.9232530368 1.8228992237
O -2.4568355076 -1.7687625331 1.7793934743
C -3.4855172641 3.7570335692 0.7874263123
C -5.9300904247 0.2036588592 -0.0648484702
C -6.6880825291 -0.7461316959 -1.0760352509
C -6.1847239775 -2.1621946503 -0.6074756578
C -5.1522826716 -1.7532164601 0.5131828652
O -5.8156709819 -0.6021503696 1.17165271
H -4.3149786761 0.6139956589 -1.584216136
H -3.6651862448 -1.6478123047 -1.1469387632
H -2.3798774118 3.7462116261 0.6984514508
H -6.4307075638 1.1700114353 0.1403557359
H -7.7785245977 -0.6423551485 -0.9591732794
H -6.4233709191 -0.5260690781 -2.1227594572
H -7.0056161736 -2.756680086 -0.1754086385
H -5.7172910811 -2.7408840168 -1.420099394
H -4.9026075141 -2.5343955374 1.2574724458
H -3.7535655912 3.6203589442 1.8548131356
H -3.8764381306 4.7258598486 0.4260323746
H 0.8064661389 2.3179806712 -2.0122885278
H 2.1325830757 3.4849283316 -2.3781587666
H 1.6447588154 3.1982589846 -0.6576458994
H 0.7288149432 -0.4560782836 -1.3774967944
H 0.8058350343 0.842362276 -0.118069652
H -0.0461197464 -2.0854694869 0.5020674195
H -0.1667707076 -0.6684843627 1.6066048414
$end

$rem
JOBTYPE                   OPT
METHOD                    B3LYP
DFT_D                     d3_op
BASIS                     STO-3G
GEOM_OPT_MAX_CYCLES       100
GEOM_OPT_TOL_GRADIENT     300
GEOM_OPT_TOL_DISPLACEMENT 1200
GEOM_OPT_TOL_ENERGY       100
SYMMETRY                  False
THRESH                    12
SCF_CONVERGENCE           8
MAX_SUB_FILE_NUM          128
MEM_STATIC                400
MEM_TOTAL                 4000
$end
--------------------------------------------------------------

   15   -1510.2633642595      9.02E-09 Convergence criterion met
 Total energy in the final basis set = -1510.26336426
   14   -1510.2697464799      2.29E-09 Convergence criterion met
 Total energy in the final basis set = -1510.26974648
   13   -1510.2758699720      7.60E-09 Convergence criterion met
 Total energy in the final basis set = -1510.27586997
   13   -1510.2801944112      7.63E-09 Convergence criterion met
 Total energy in the final basis set = -1510.28019441
   13   -1510.2830677135      5.22E-09 Convergence criterion met
 Total energy in the final basis set = -1510.28306771
   14   -1510.2846376447      1.62E-09 Convergence criterion met
 Total energy in the final basis set = -1510.28463764
   13   -1510.2857373573      5.01E-09 Convergence criterion met
 Total energy in the final basis set = -1510.28573736
   13   -1510.2864620746      4.65E-09 Convergence criterion met
   12   -1510.2879522588      7.00E-09 Convergence criterion met
 Total energy in the final basis set = -1510.28795226
   13   -1510.2878713318      5.12E-09 Convergence criterion met
 Total energy in the final basis set = -1510.28787133
   12   -1510.2879871463      9.62E-09 Convergence criterion met
 Total energy in the final basis set = -1510.28798715
   11   -1510.2879938013      8.47E-09 Convergence criterion met
 Total energy in the final basis set = -1510.28799380
   11   -1510.2880066975      6.84E-09 Convergence criterion met
 Total energy in the final basis set = -1510.28800670
   10   -1510.2880095821      8.91E-09 Convergence criterion met
 Total energy in the final basis set = -1510.28800958

             Standard Nuclear Orientation (Angstroms)
    I     Atom           X                Y                Z
 ----------------------------------------------------------------
    1      O      -2.6545671961     0.8861456115     1.2410756144
    2      C      -3.6679814716     1.1611315239     0.5595350474
    3      C      -4.4928416586     0.1883987194    -0.3478304964
    4      C      -3.8000657056    -1.2236061175    -0.5241756078
    5      C      -2.3806319482    -1.3481785406     0.1446586262
    6      O      -1.4440939264    -0.6515344178    -0.6916771861
    7      C      -0.0901555136    -0.7122946523    -0.0919878489
    8      C       0.7921314711     0.3028035608    -0.8965940848
    9      O       2.1987557732     0.2289698977    -0.4380239354
   10      C       2.9766036229    -0.5905091669    -1.3251268280
   11      C       4.4393301338    -0.6396698561    -0.7764742858
   12      C       5.0386423664     0.7908249785    -0.4423305684
   13      C       4.0635124105     1.9746959065    -0.7755221619
   14      O       3.6884236065     2.8916838700    -0.0148656840
   15      O      -4.2772100492     2.4527116777     0.5174991723
   16      O       3.7058828814     1.8677972277    -2.1635688048
   17      O       2.5198016728    -1.1656150995    -2.3362398220
   18      C       2.7530987330     2.9375156366    -2.5370786014
   19      C       4.4930264728    -1.3177608159     0.6634289942
   20      C       5.9989298159    -1.6606138254     0.9965108250
   21      C       6.5669757050    -0.2338266367     1.3438307029
   22      C       5.2888295337     0.6643003301     1.1166638924
   23      O       4.1755202202    -0.1989979965     1.5767880118
   24      H       5.0582187831    -1.1833646476    -1.5110033539
   25      H       5.9819908909     0.9553677061    -0.9951439347
   26      H       3.7772196884    -2.1506836411     0.8049211231
   27      H       6.0558262415    -2.3403205289     1.8614599919
   28      H       6.5155344593    -2.1292131877     0.1435258433
   29      H       6.8962465407    -0.1759992967     2.3935273867
   30      H       7.4057266733     0.0610263069     0.6931357309
   31      H       5.2733651514     1.6328024960     1.6533334386
   32      O      -2.0706619781    -2.0262884222     1.1461098953
   33      C      -3.5427877013     3.3877740160     1.4022385705
   34      C      -5.8488969885    -0.2370915399     0.3697497523
   35      C      -6.7735540567    -0.9548955676    -0.6918464669
   36      C      -6.0794106874    -2.3637179295    -0.8002162228
   37      C      -4.8571742372    -2.1727396307     0.1798442112
   38      O      -5.4173350337    -1.3324786611     1.2651369086
   39      H      -4.6871965015     0.6820086097    -1.3167642668
   40      H      -3.6889200798    -1.4641462493    -1.5968298385
   41      H      -2.4847929093     3.4990840849     1.0885470330
   42      H      -6.3323481856     0.5758652970     0.9459335448
   43      H      -7.8039754166    -1.0381773726    -0.3114104233
   44      H      -6.7935691510    -0.4159902767    -1.6525177790
   45      H      -6.7412422188    -3.1673760996    -0.4399193211
   46      H      -5.7575273465    -2.6031636520    -1.8263486784
   47      H      -4.4213593572    -3.1003015039     0.5989965291
   48      H      -3.5628700445     3.0491803693     2.4582597172
   49      H      -4.0603948763     4.3605450522     1.3141380298
   50      H       1.8010515128     2.4750223173    -2.8639325622
   51      H       3.1803501434     3.5225183063    -3.3748967243
   52      H       2.5761495822     3.5966766126    -1.6629491681
   53      H       0.7367409589     0.0636170583    -1.9803333460
   54      H       0.4451756809     1.3398605149    -0.7151095960
   55      H       0.3355243149    -1.7365855368    -0.1808882449
   56      H      -0.1207015684    -0.4410139424     0.9850885351
 ----------------------------------------------------------------

   10   -1510.2880103939      4.63E-09 Convergence criterion met
 Total energy in the final basis set = -1510.28801039
 Final energy is   -1510.28801039390
 **  OPTIMIZATION CONVERGED  **

                    Orbital Energies (a.u.)
 --------------------------------------------------------------

 Alpha MOs
 -- Occupied --
-18.941 -18.932 -18.930 -18.918 -18.887 -18.886 -18.884 -18.876
-18.876 -18.862 -10.104 -10.100 -10.100 -10.091 -10.068 -10.067
-10.062 -10.061 -10.061 -10.058 -10.057 -10.055 -10.039 -10.039
-10.038 -10.032 -10.020 -10.020 -10.019 -10.018  -1.018  -1.016
 -1.005  -0.998  -0.969  -0.969  -0.941  -0.937  -0.935  -0.925
 -0.764  -0.762  -0.727  -0.722  -0.710  -0.705  -0.693  -0.666
 -0.660  -0.612  -0.596  -0.578  -0.546  -0.544  -0.537  -0.536
 -0.513  -0.509  -0.485  -0.472  -0.464  -0.453  -0.450  -0.449
 -0.433  -0.431  -0.429  -0.415  -0.414  -0.411  -0.408  -0.395
 -0.391  -0.379  -0.374  -0.368  -0.362  -0.357  -0.350  -0.349
 -0.342  -0.340  -0.336  -0.331  -0.329  -0.324  -0.322  -0.311
 -0.309  -0.304  -0.303  -0.301  -0.293  -0.292  -0.276  -0.273
 -0.272  -0.257  -0.249  -0.248  -0.242  -0.233  -0.233  -0.184
 -0.176  -0.172  -0.165  -0.161  -0.158  -0.152  -0.144  -0.143
 -0.141

          Ground-State Mulliken Net Atomic Charges

     Atom                 Charge (a.u.)
  ----------------------------------------
      1 O                    -0.206635
      2 C                     0.214096
      3 C                    -0.078045
      4 C                    -0.081307
      5 C                     0.216978
      6 O                    -0.180841
      7 C                    -0.047221
      8 C                    -0.050775
      9 O                    -0.170495
     10 C                     0.213161
     11 C                    -0.078376
     12 C                    -0.077458
     13 C                     0.218532
     14 O                    -0.212853
     15 O                    -0.169449
     16 O                    -0.176115
     17 O                    -0.213049
     18 C                    -0.136516
     19 C                     0.026105
     20 C                    -0.143854
     21 C                    -0.143896
     22 C                     0.024853
     23 O                    -0.185034
     24 H                     0.086075
     25 H                     0.085002
     26 H                     0.082985
     27 H                     0.078646
     28 H                     0.073844
     29 H                     0.078517
     30 H                     0.073024
     31 H                     0.090643
     32 O                    -0.214363
     33 C                    -0.128353
     34 C                     0.025194
     35 C                    -0.143880
     36 C                    -0.143819
     37 C                     0.024788
     38 O                    -0.188989
     39 H                     0.086595
     40 H                     0.083578
     41 H                     0.090444
     42 H                     0.084502
     43 H                     0.078134
     44 H                     0.073452
     45 H                     0.078091
     46 H                     0.073258
     47 H                     0.090000
     48 H                     0.091972
     49 H                     0.091784
     50 H                     0.083711
     51 H                     0.085084
     52 H                     0.101067
     53 H                     0.097770
     54 H                     0.088750
     55 H                     0.082584
     56 H                     0.098099
  ----------------------------------------
  Sum of atomic charges =     0.000000

                    Cartesian Multipole Moments
 -----------------------------------------------------------------
    Charge (ESU x 10^10)
                 0.0000
    Dipole Moment (Debye)
         X       0.1470      Y       1.3876      Z      -2.3789
       Tot       2.7579
    Quadrupole Moments (Debye-Ang)
        XX    -134.5787     XY      -6.5608     YY    -154.7577
        XZ       6.8449     YZ       0.4927     ZZ    -166.3142

 Total job time:  65.32s(wall), 3103.40s(cpu)
        *  Thank you very much for using Q-Chem.  Have a nice day.  *
