 Q-Chem 5.0, Q-Chem, Inc., Pleasanton, CA (2017)
 Q-Chem 5.0.1 for Intel X86 EM64T Linux

User input:
--------------------------------------------------------------
$molecule
0  1
O -3.1978186176 0.9670136308 2.0591605309
C -3.2319733837 1.2307271723 0.8377969456
C -4.3064350668 0.7888600699 -0.2175768747
C -4.0317651889 -0.5535414071 -1.0188670603
C -2.8317145198 -1.4503039274 -0.539440497
O -1.8469883944 -0.6542788963 0.1179283186
C -0.6572194932 -1.4687336533 0.4711689576
C 0.288854701 -0.4999994121 1.2695060698
O 1.6000196642 -1.1153909333 1.5578072894
C 2.4636846894 -0.9066755956 0.3928746635
C 3.0750767142 0.5437702261 0.3474855912
C 4.6606921314 0.5963403844 0.2757831688
C 5.3186737543 -0.7923194196 -0.0487622695
O 5.5165503228 -1.3009047056 -1.1718831816
O -2.3406710846 2.1523002917 0.1829947519
O 5.6082362336 -1.4444029352 1.1940146218
O 2.7741209862 -1.8577786078 -0.3516933104
C 6.1230153951 -2.80960019 0.9366860597
C 2.68163776 1.3713150447 -0.9593830115
C 2.833513189 2.9013788643 -0.6036306986
C 4.401154782 3.0340330702 -0.5422801979
C 4.8540159046 1.5769835068 -0.9570753002
O 3.7981015224 1.1267081365 -1.8943893628
H 2.7234055151 1.0689313038 1.2524827609
H 5.0850485525 0.9899144972 1.2162222408
H 1.7178947614 1.083091052 -1.4226146173
H 2.4068554802 3.5249443817 -1.4055319743
H 2.3423980082 3.1619243223 0.3476952139
H 4.7735852569 3.7765089354 -1.2656392411
H 4.7640313643 3.3062081578 0.461868622
H 5.8476161534 1.5081011184 -1.4403587951
O -2.7208794759 -2.6818060698 -0.7220951393
C -1.3697278281 2.7072248823 1.1516673553
C -5.7053343388 0.4482498285 0.4594260123
C -6.8284248556 0.6243799233 -0.6349598146
C -6.5659159892 -0.6399768211 -1.5363486467
C -5.3858041959 -1.3381833147 -0.7518271586
O -5.6604169913 -1.0165884131 0.6677875054
H -4.4096111441 1.6239588616 -0.9330307366
H -3.88287927 -0.3430857586 -2.0946621484
H -1.4538132585 2.1662549882 2.1159390799
H -5.8857265952 0.9677974626 1.4204466924
H -7.8264926639 0.58680575 -0.1699431548
H -6.7307356232 1.5720601034 -1.188169369
H -7.4461855634 -1.300907716 -1.5751780997
H -6.2777824221 -0.3757979879 -2.566616911
H -5.2935555612 -2.4326811945 -0.8957658066
H -1.5820303571 3.7835092544 1.3123869486
H -0.3499587538 2.6006153216 0.7336127673
H 6.2813848517 -3.2691785782 1.9295363032
H 7.0826480098 -2.7864533611 0.3808872002
H 5.3946171417 -3.4131469953 0.357339003
H 0.3823016887 0.4516466743 0.7040133491
H -0.1790229886 -0.2704448897 2.2495573726
H -0.1526662217 -1.8411758034 -0.4478952224
H -0.9410670561 -2.3465743797 1.0895345877
$end

$rem
JOBTYPE                   OPT
METHOD                    B3LYP
DFT_D                     d3_op
BASIS                     STO-3G
GEOM_OPT_MAX_CYCLES       100
GEOM_OPT_TOL_GRADIENT     300
GEOM_OPT_TOL_DISPLACEMENT 1200
GEOM_OPT_TOL_ENERGY       100
SYMMETRY                  False
THRESH                    12
SCF_CONVERGENCE           8
MAX_SUB_FILE_NUM          128
MEM_STATIC                400
MEM_TOTAL                 4000
$end
--------------------------------------------------------------

   16   -1510.2600820312      4.65E-09 Convergence criterion met
 Total energy in the final basis set = -1510.26008203
   14   -1510.2619631067      7.14E-09 Convergence criterion met
 Total energy in the final basis set = -1510.26196311
   13   -1510.2640602560      9.92E-09 Convergence criterion met
 Total energy in the final basis set = -1510.26406026
   13   -1510.2660578027      8.92E-09 Convergence criterion met
 Total energy in the final basis set = -1510.26605780
   13   -1510.2678357671      7.31E-09 Convergence criterion met
 Total energy in the final basis set = -1510.26783577
   13   -1510.2691422811      9.46E-09 Convergence criterion met
 Total energy in the final basis set = -1510.26914228
   13   -1510.2701977026      4.26E-09 Convergence criterion met
 Total energy in the final basis set = -1510.27019770
   13   -1510.2709736455      5.12E-09 Convergence criterion met
   11   -1510.2850618346      9.77E-09 Convergence criterion met
 Total energy in the final basis set = -1510.28506183
   11   -1510.2850877789      6.77E-09 Convergence criterion met
 Total energy in the final basis set = -1510.28508778
   10   -1510.2851094233      8.45E-09 Convergence criterion met
 Total energy in the final basis set = -1510.28510942
   10   -1510.2851105836      4.64E-09 Convergence criterion met
 Total energy in the final basis set = -1510.28511058
    9   -1510.2850975886      8.21E-09 Convergence criterion met
 Total energy in the final basis set = -1510.28509759
    9   -1510.2850960746      3.42E-09 Convergence criterion met
 Total energy in the final basis set = -1510.28509607

             Standard Nuclear Orientation (Angstroms)
    I     Atom           X                Y                Z
 ----------------------------------------------------------------
    1      O      -1.5717630272    -0.3296533596     1.5965534482
    2      C      -1.8049115505     0.7817784212     1.0668855569
    3      C      -2.7353529061     1.0769097250    -0.1502060142
    4      C      -3.0687830298    -0.1995715319    -1.0275566579
    5      C      -2.4807596648    -1.5448737054    -0.4698046071
    6      O      -1.1217516134    -1.6836934737    -0.9342655820
    7      C      -0.5002173325    -2.8866157529    -0.3358622837
    8      C       0.3297408856    -2.5162969503     0.9622602267
    9      O       1.7794328802    -2.6801885563     0.7501761890
   10      C       2.5225961308    -1.5725913161     0.2336324850
   11      C       1.9613240221    -0.0924863398     0.2379943656
   12      C       3.1700984292     0.9115385248     0.0374774080
   13      C       4.6080824480     0.3035126732     0.2431519313
   14      O       5.5538405269     0.3211303123    -0.5727434673
   15      O      -1.2243851186     2.0151748473     1.5060628081
   16      O       4.7247941884    -0.0914296409     1.6226286954
   17      O       3.6820949783    -1.8435668244    -0.1646353462
   18      C       6.0500014903    -0.7048814176     1.8524285160
   19      C       1.1382940703     0.2022913405    -1.0906677890
   20      C       0.5835589740     1.6862164637    -1.0685167131
   21      C       1.8618604386     2.5187714800    -1.4452902059
   22      C       2.9434756704     1.3768943403    -1.4636249438
   23      O       2.2207368646     0.2470975187    -2.1001750570
   24      H       1.3899247324     0.1144658274     1.1591315990
   25      H       3.0683020354     1.7646511054     0.7330102297
   26      H       0.3601312523    -0.5592227710    -1.3203767247
   27      H      -0.2032202233     1.7964781590    -1.8310318621
   28      H       0.1614802351     1.9680239009    -0.0894816386
   29      H       1.7658131052     2.9778626133    -2.4422556516
   30      H       2.0940288232     3.3076412971    -0.7124418655
   31      H       3.8836157757     1.5915343127    -2.0084151417
   32      O      -3.0903452612    -2.4303929438     0.1651026806
   33      C      -0.3972286449     1.8052326048     2.7208528538
   34      C      -4.1989168525     1.5100682005     0.3169393588
   35      C      -4.9090722183     2.2038961034    -0.9104989192
   36      C      -5.2285552468     0.9575873773    -1.8176132939
   37      C      -4.6522885996    -0.2186114637    -0.9368572812
   38      O      -4.9118787732     0.2236661827     0.4541643526
   39      H      -2.2705089488     1.8759735796    -0.7522174163
   40      H      -2.7056649079    -0.0651535326    -2.0622378857
   41      H      -0.3892065898     0.7285448193     2.9838155971
   42      H      -4.2275151092     2.0800363011     1.2659500112
   43      H      -5.8299519318     2.7113969762    -0.5818375486
   44      H      -4.2566836149     2.9400347755    -1.4064734993
   45      H      -6.3132249507     0.8321105486    -1.9633320397
   46      H      -4.7441118160     1.0139376144    -2.8055154125
   47      H      -5.1015297714    -1.2150782479    -1.1118063622
   48      H      -0.8279059342     2.3964749928     3.5522984378
   49      H       0.6322917897     2.1570133650     2.5148257884
   50      H       6.1088586175    -0.9185125513     2.9356742378
   51      H       6.8751685898    -0.0228224280     1.5618738708
   52      H       6.1586310201    -1.6510123068     1.2827566599
   53      H       0.0163141830    -1.5063089042     1.3088613568
   54      H       0.0819216772    -3.2422022385     1.7635882442
   55      H       0.1740615937    -3.3238985483    -1.1006957598
   56      H      -1.3036396734    -3.6072115454    -0.0757314737
 ----------------------------------------------------------------

    9   -1510.2850956982      1.91E-09 Convergence criterion met
 Total energy in the final basis set = -1510.28509570
 Final energy is   -1510.28509569823
 **  OPTIMIZATION CONVERGED  **

                    Orbital Energies (a.u.)
 --------------------------------------------------------------

 Alpha MOs
 -- Occupied --
-18.964 -18.942 -18.936 -18.910 -18.909 -18.901 -18.887 -18.878
-18.878 -18.851 -10.129 -10.111 -10.102 -10.084 -10.080 -10.075
-10.073 -10.072 -10.070 -10.056 -10.051 -10.049 -10.048 -10.046
-10.036 -10.031 -10.030 -10.026 -10.014 -10.011  -1.040  -1.020
 -1.009  -0.989  -0.983  -0.964  -0.962  -0.947  -0.936  -0.917
 -0.778  -0.756  -0.736  -0.723  -0.717  -0.706  -0.697  -0.682
 -0.648  -0.624  -0.599  -0.591  -0.558  -0.548  -0.541  -0.532
 -0.528  -0.506  -0.492  -0.481  -0.476  -0.467  -0.456  -0.451
 -0.444  -0.439  -0.436  -0.424  -0.420  -0.410  -0.402  -0.397
 -0.396  -0.394  -0.383  -0.378  -0.373  -0.363  -0.359  -0.356
 -0.348  -0.346  -0.342  -0.339  -0.328  -0.327  -0.321  -0.318
 -0.316  -0.314  -0.304  -0.300  -0.296  -0.291  -0.287  -0.274
 -0.271  -0.269  -0.253  -0.246  -0.240  -0.236  -0.226  -0.201
 -0.193  -0.185  -0.167  -0.165  -0.157  -0.157  -0.148  -0.138
 -0.134

          Ground-State Mulliken Net Atomic Charges

     Atom                 Charge (a.u.)
  ----------------------------------------
      1 O                    -0.211585
      2 C                     0.219928
      3 C                    -0.078792
      4 C                    -0.080319
      5 C                     0.217930
      6 O                    -0.179762
      7 C                    -0.057105
      8 C                    -0.055838
      9 O                    -0.169837
     10 C                     0.216309
     11 C                    -0.083045
     12 C                    -0.080257
     13 C                     0.217443
     14 O                    -0.220840
     15 O                    -0.165653
     16 O                    -0.182557
     17 O                    -0.193579
     18 C                    -0.128965
     19 C                     0.006233
     20 C                    -0.154183
     21 C                    -0.143819
     22 C                     0.023511
     23 O                    -0.191968
     24 H                     0.075013
     25 H                     0.077156
     26 H                     0.098222
     27 H                     0.067911
     28 H                     0.075280
     29 H                     0.075276
     30 H                     0.070121
     31 H                     0.091061
     32 O                    -0.205149
     33 C                    -0.137163
     34 C                     0.026526
     35 C                    -0.142986
     36 C                    -0.144360
     37 C                     0.026511
     38 O                    -0.185348
     39 H                     0.092885
     40 H                     0.088584
     41 H                     0.103164
     42 H                     0.085404
     43 H                     0.080722
     44 H                     0.075486
     45 H                     0.080866
     46 H                     0.075509
     47 H                     0.091071
     48 H                     0.093050
     49 H                     0.090755
     50 H                     0.084215
     51 H                     0.085887
     52 H                     0.091074
     53 H                     0.099449
     54 H                     0.093115
     55 H                     0.095283
     56 H                     0.102158
  ----------------------------------------
  Sum of atomic charges =    -0.000000

                    Cartesian Multipole Moments
 -----------------------------------------------------------------
    Charge (ESU x 10^10)
                -0.0000
    Dipole Moment (Debye)
         X      -3.7227      Y       3.3717      Z       1.1819
       Tot       5.1598
    Quadrupole Moments (Debye-Ang)
        XX    -176.5251     XY      -1.8427     YY    -158.2475
        XZ      17.2791     YZ       2.3766     ZZ    -157.3046

 Total job time:  152.72s(wall), 7281.39s(cpu)
        *  Thank you very much for using Q-Chem.  Have a nice day.  *
