 Q-Chem 5.0, Q-Chem, Inc., Pleasanton, CA (2017)
 Q-Chem 5.0.1 for Intel X86 EM64T Linux

User input:
--------------------------------------------------------------
$molecule
0  1
O -3.94934 -3.66094 2.70899
C -3.26408 -4.56952 2.26188
C -3.36658 -6.02376 2.66595
C -2.45359 -6.50204 3.8068
C -1.66855 -5.43381 4.53528
O -1.46496 -4.36413 3.7108
C -0.63239 -3.35527 4.29243
C -0.529 -2.15531 3.35672
O 0.4307 -1.21711 3.86822
C 1.72203 -1.46401 3.53558
C 2.06392 -1.01878 2.1336
C 3.24302 -0.03989 2.03473
C 4.11642 0.0693 3.2684
O 5.05628 -0.66431 3.53866
O -2.52221 -4.3317 1.14588
O 3.72393 0.99313 4.18394
O 2.49907 -2.01105 4.30357
C 4.35359 1.20559 5.39231
C 2.55437 -2.17183 1.23804
C 2.32317 -1.81379 -0.22866
C 3.35673 -0.72144 -0.41618
C 4.0601 -0.77374 0.94655
O 3.95408 -2.12203 1.33498
H 1.14939 -0.57811 1.67265
H 2.9694 0.98737 1.70705
H 2.08088 -3.14888 1.47871
H 2.62877 -2.70077 -0.82899
H 1.28186 -1.53321 -0.4972
H 4.04699 -1.02972 -1.23252
H 2.94728 0.29113 -0.62246
H 5.09494 -0.37345 0.86139
O -1.07265 -5.62483 5.58947
C -2.53905 -3.15137 0.43091
C -4.75283 -6.33479 3.26676
C -5.04365 -7.83319 3.18275
C -4.11504 -8.35769 4.25467
C -3.52531 -7.04443 4.7764
O -4.58037 -6.12547 4.64426
H -3.24432 -6.63203 1.7412
H -1.73965 -7.30366 3.51576
H -2.24688 -2.29678 1.07199
H -5.5761 -5.76361 2.78341
H -6.09407 -7.99369 3.51579
H -4.9048 -8.27637 2.17318
H -4.7309 -8.83512 5.04943
H -3.33377 -9.06652 3.90464
H -3.13801 -7.19174 5.80885
H -3.55649 -2.97027 0.02365
H -1.82454 -3.22742 -0.41416
H 3.82833 2.01552 5.93872
H 5.40844 1.51189 5.22529
H 4.32323 0.28088 6.00744
H -0.24541 -2.49663 2.33627
H -1.52331 -1.66588 3.29216
H 0.38524 -3.77898 4.44697
H -1.03984 -3.00669 5.26881
$end

$opt
CONSTRAINT
tors           1           2           3           4     -92.226
tors           3           4           5           6     -26.332
tors           4           5           6           7    -175.121
tors           5           6           7           8    -176.116
tors           6           7           8           9    -173.135
tors           7           8           9          10     +84.950
tors           8           9          10          11     +79.308
tors           9          10          11          12    +123.968
tors          11          12          13          14     +85.365
ENDCONSTRAINT
$end

$rem
JOBTYPE                   OPT
METHOD                    B3LYP
DFT_D                     d3_op
BASIS                     STO-3G
GEOM_OPT_MAX_CYCLES       100
GEOM_OPT_TOL_GRADIENT     300
GEOM_OPT_TOL_DISPLACEMENT 1200
GEOM_OPT_TOL_ENERGY       100
SYMMETRY                  False
THRESH                    12
SCF_CONVERGENCE           8
MAX_SUB_FILE_NUM          128
MEM_STATIC                400
MEM_TOTAL                 4000
$end
--------------------------------------------------------------

   15   -1510.1305478526      6.93E-09 Convergence criterion met
 Total energy in the final basis set = -1510.13054785
   14   -1510.2004487036      4.23E-09 Convergence criterion met
 Total energy in the final basis set = -1510.20044870
   14   -1510.2353176340      8.64E-09 Convergence criterion met
 Total energy in the final basis set = -1510.23531763
   15   -1510.2490881476      2.01E-09 Convergence criterion met
 Total energy in the final basis set = -1510.24908815
   14   -1510.2559934558      5.91E-09 Convergence criterion met
 Total energy in the final basis set = -1510.25599346
   14   -1510.2585961184      3.56E-09 Convergence criterion met
 Total energy in the final basis set = -1510.25859612
   12   -1510.2593372519      7.38E-09 Convergence criterion met
 Total energy in the final basis set = -1510.25933725
   12   -1510.2596180256      9.54E-09 Convergence criterion met
   12   -1510.2599114453      2.48E-09 Convergence criterion met
 Total energy in the final basis set = -1510.25991145
   12   -1510.2600107042      9.54E-09 Convergence criterion met
 Total energy in the final basis set = -1510.26001070
   12   -1510.2601016249      3.67E-09 Convergence criterion met
 Total energy in the final basis set = -1510.26010162
   11   -1510.2601466297      5.81E-09 Convergence criterion met
 Total energy in the final basis set = -1510.26014663
   11   -1510.2601534033      5.13E-09 Convergence criterion met
 Total energy in the final basis set = -1510.26015340
   10   -1510.2601582832      6.53E-09 Convergence criterion met
 Total energy in the final basis set = -1510.26015828

             Standard Nuclear Orientation (Angstroms)
    I     Atom           X                Y                Z
 ----------------------------------------------------------------
    1      O      -3.1978186176     0.9670136308     2.0591605309
    2      C      -3.2319733837     1.2307271723     0.8377969456
    3      C      -4.3064350668     0.7888600699    -0.2175768747
    4      C      -4.0317651889    -0.5535414071    -1.0188670603
    5      C      -2.8317145198    -1.4503039274    -0.5394404970
    6      O      -1.8469883944    -0.6542788963     0.1179283186
    7      C      -0.6572194932    -1.4687336533     0.4711689576
    8      C       0.2888547010    -0.4999994121     1.2695060698
    9      O       1.6000196642    -1.1153909333     1.5578072894
   10      C       2.4636846894    -0.9066755956     0.3928746635
   11      C       3.0750767142     0.5437702261     0.3474855912
   12      C       4.6606921314     0.5963403844     0.2757831688
   13      C       5.3186737543    -0.7923194196    -0.0487622695
   14      O       5.5165503228    -1.3009047056    -1.1718831816
   15      O      -2.3406710846     2.1523002917     0.1829947519
   16      O       5.6082362336    -1.4444029352     1.1940146218
   17      O       2.7741209862    -1.8577786078    -0.3516933104
   18      C       6.1230153951    -2.8096001900     0.9366860597
   19      C       2.6816377600     1.3713150447    -0.9593830115
   20      C       2.8335131890     2.9013788643    -0.6036306986
   21      C       4.4011547820     3.0340330702    -0.5422801979
   22      C       4.8540159046     1.5769835068    -0.9570753002
   23      O       3.7981015224     1.1267081365    -1.8943893628
   24      H       2.7234055151     1.0689313038     1.2524827609
   25      H       5.0850485525     0.9899144972     1.2162222408
   26      H       1.7178947614     1.0830910520    -1.4226146173
   27      H       2.4068554802     3.5249443817    -1.4055319743
   28      H       2.3423980082     3.1619243223     0.3476952139
   29      H       4.7735852569     3.7765089354    -1.2656392411
   30      H       4.7640313643     3.3062081578     0.4618686220
   31      H       5.8476161534     1.5081011184    -1.4403587951
   32      O      -2.7208794759    -2.6818060698    -0.7220951393
   33      C      -1.3697278281     2.7072248823     1.1516673553
   34      C      -5.7053343388     0.4482498285     0.4594260123
   35      C      -6.8284248556     0.6243799233    -0.6349598146
   36      C      -6.5659159892    -0.6399768211    -1.5363486467
   37      C      -5.3858041959    -1.3381833147    -0.7518271586
   38      O      -5.6604169913    -1.0165884131     0.6677875054
   39      H      -4.4096111441     1.6239588616    -0.9330307366
   40      H      -3.8828792700    -0.3430857586    -2.0946621484
   41      H      -1.4538132585     2.1662549882     2.1159390799
   42      H      -5.8857265952     0.9677974626     1.4204466924
   43      H      -7.8264926639     0.5868057500    -0.1699431548
   44      H      -6.7307356232     1.5720601034    -1.1881693690
   45      H      -7.4461855634    -1.3009077160    -1.5751780997
   46      H      -6.2777824221    -0.3757979879    -2.5666169110
   47      H      -5.2935555612    -2.4326811945    -0.8957658066
   48      H      -1.5820303571     3.7835092544     1.3123869486
   49      H      -0.3499587538     2.6006153216     0.7336127673
   50      H       6.2813848517    -3.2691785782     1.9295363032
   51      H       7.0826480098    -2.7864533611     0.3808872002
   52      H       5.3946171417    -3.4131469953     0.3573390030
   53      H       0.3823016887     0.4516466743     0.7040133491
   54      H      -0.1790229886    -0.2704448897     2.2495573726
   55      H      -0.1526662217    -1.8411758034    -0.4478952224
   56      H      -0.9410670561    -2.3465743797     1.0895345877
 ----------------------------------------------------------------

    9   -1510.2601590059      2.93E-09 Convergence criterion met
 Total energy in the final basis set = -1510.26015901
 Final energy is   -1510.26015900588
 **  OPTIMIZATION CONVERGED  **

                    Orbital Energies (a.u.)
 --------------------------------------------------------------

 Alpha MOs
 -- Occupied --
-18.944 -18.930 -18.929 -18.913 -18.912 -18.896 -18.888 -18.881
-18.874 -18.872 -10.113 -10.106 -10.101 -10.096 -10.080 -10.076
-10.069 -10.065 -10.061 -10.060 -10.060 -10.059 -10.044 -10.043
-10.042 -10.038 -10.028 -10.026 -10.021 -10.020  -1.021  -1.015
 -1.007  -1.006  -0.977  -0.971  -0.948  -0.942  -0.934  -0.932
 -0.769  -0.765  -0.729  -0.727  -0.713  -0.709  -0.703  -0.664
 -0.661  -0.612  -0.603  -0.591  -0.553  -0.546  -0.545  -0.539
 -0.520  -0.513  -0.489  -0.473  -0.464  -0.459  -0.457  -0.452
 -0.444  -0.434  -0.432  -0.416  -0.415  -0.413  -0.410  -0.405
 -0.395  -0.390  -0.380  -0.371  -0.370  -0.359  -0.356  -0.354
 -0.349  -0.339  -0.337  -0.336  -0.332  -0.331  -0.330  -0.315
 -0.314  -0.312  -0.307  -0.303  -0.299  -0.297  -0.285  -0.284
 -0.273  -0.253  -0.252  -0.250  -0.247  -0.240  -0.235  -0.186
 -0.175  -0.172  -0.170  -0.163  -0.161  -0.152  -0.151  -0.148
 -0.146

          Ground-State Mulliken Net Atomic Charges

     Atom                 Charge (a.u.)
  ----------------------------------------
      1 O                    -0.219214
      2 C                     0.218978
      3 C                    -0.080966
      4 C                    -0.077181
      5 C                     0.213404
      6 O                    -0.173219
      7 C                    -0.048076
      8 C                    -0.048228
      9 O                    -0.188018
     10 C                     0.216089
     11 C                    -0.084932
     12 C                    -0.078260
     13 C                     0.208583
     14 O                    -0.202555
     15 O                    -0.174164
     16 O                    -0.172677
     17 O                    -0.172973
     18 C                    -0.129231
     19 C                     0.023718
     20 C                    -0.143124
     21 C                    -0.144779
     22 C                     0.026766
     23 O                    -0.181851
     24 H                     0.082221
     25 H                     0.087121
     26 H                     0.081621
     27 H                     0.079598
     28 H                     0.071185
     29 H                     0.079705
     30 H                     0.074497
     31 H                     0.087854
     32 O                    -0.209870
     33 C                    -0.135815
     34 C                     0.025137
     35 C                    -0.143463
     36 C                    -0.144644
     37 C                     0.024258
     38 O                    -0.189106
     39 H                     0.085305
     40 H                     0.086403
     41 H                     0.099847
     42 H                     0.086616
     43 H                     0.078399
     44 H                     0.073156
     45 H                     0.079062
     46 H                     0.073451
     47 H                     0.090485
     48 H                     0.082905
     49 H                     0.077656
     50 H                     0.089890
     51 H                     0.087564
     52 H                     0.094275
     53 H                     0.078168
     54 H                     0.092647
     55 H                     0.089019
     56 H                     0.096768
  ----------------------------------------
  Sum of atomic charges =    -0.000000

                    Cartesian Multipole Moments
 -----------------------------------------------------------------
    Charge (ESU x 10^10)
                 0.0000
    Dipole Moment (Debye)
         X      -0.0838      Y       4.0072      Z       0.2357
       Tot       4.0150
    Quadrupole Moments (Debye-Ang)
        XX    -151.1446     XY      -0.7997     YY    -158.6305
        XZ      18.5038     YZ      -0.4297     ZZ    -167.7710

 Total job time:  84.61s(wall), 4030.34s(cpu)
        *  Thank you very much for using Q-Chem.  Have a nice day.  *
