 Q-Chem 5.0, Q-Chem, Inc., Pleasanton, CA (2017)
 Q-Chem 5.0.1 for Intel X86 EM64T Linux

User input:
--------------------------------------------------------------
$molecule
0  1
O -3.8283756317 1.1610792815 1.8952658594
C -3.9656604468 1.3933902135 0.6750249136
C -4.7630549203 0.5561001705 -0.3829237535
C -3.9145997452 -0.5399523052 -1.1598354739
C -2.490488714 -0.8281146803 -0.5577740119
O -1.7559579009 0.3946186157 -0.4481518238
C -0.3920220461 0.1013773237 0.0635845096
C 0.3465744751 1.4821708875 0.1829679825
O 1.8049711534 1.4124187963 0.4581845193
C 2.5311625919 0.452380342 -0.3258269213
C 4.0502799706 0.8611363375 -0.2596341156
C 4.9359079219 0.0329802003 0.7646864023
C 4.2063255472 -1.1302880851 1.52930032
O 4.7377339706 -2.1657674327 1.9835816402
O -3.5020801856 2.5884649301 0.0302447293
O 2.8223706447 -0.8079348016 1.6914392767
O 2.0524015338 -0.4368208351 -1.0670668417
C 2.0909074909 -1.9300578011 2.3225438712
C 4.7932142935 0.5277458838 -1.6245556439
C 6.1289161148 1.3687256767 -1.672494442
C 7.01990796 0.582019337 -0.6408626639
C 6.0354593528 -0.57313925 -0.2058531515
O 5.265123819 -0.863025849 -1.4373439117
H 4.095877379 1.9380608825 -0.0213706996
H 5.3896402146 0.7017094556 1.5199396276
H 4.1510298428 0.598922609 -2.5235325994
H 6.564027953 1.3417184963 -2.6842800425
H 5.9688791389 2.4199709813 -1.3843990481
H 7.918885818 0.1626484405 -1.1199488877
H 7.331651336 1.2031572304 0.2140935035
H 6.5122397218 -1.4934980583 0.1847518639
O -2.0327886977 -1.9460012635 -0.2371617779
C -2.812475252 3.4545087951 1.0116161003
C -5.8992848222 -0.3483279195 0.26330646
C -6.962138597 -0.6599129598 -0.8613897911
C -6.1580711988 -1.6753431204 -1.7566278047
C -4.8184504834 -1.8204287164 -0.9334215395
O -5.2434790617 -1.6575068482 0.477721782
H -5.1920239436 1.2732063366 -1.1054747004
H -3.8034905383 -0.2727967832 -2.2268457481
H -2.0171619176 2.906955495 1.5556433903
H -6.3080610428 0.0402193365 1.2161523028
H -7.8555766016 -1.1317735245 -0.4218790254
H -7.2720460916 0.2434166238 -1.4106275947
H -6.6731440307 -2.6460298202 -1.8311202619
H -5.977907084 -1.293230684 -2.7742958704
H -4.2708667657 -2.7744903626 -1.0612103698
H -3.5225429194 3.8671433572 1.7580381796
H -2.3652378769 4.2830134292 0.4322619797
H 1.0749580834 -1.5510944933 2.5373725214
H 2.5797475756 -2.2531769109 3.2635695772
H 2.0234556483 -2.7993973386 1.6370315548
H 0.1810035259 2.0440368543 -0.7645897387
H -0.0733649311 2.0808682257 1.0158331318
H 0.1966017056 -0.532446382 -0.6365668048
H -0.4426811428 -0.4053638194 1.0501524219
$end

$rem
JOBTYPE                   OPT
METHOD                    B3LYP
DFT_D                     d3_op
BASIS                     STO-3G
GEOM_OPT_MAX_CYCLES       100
GEOM_OPT_TOL_GRADIENT     300
GEOM_OPT_TOL_DISPLACEMENT 1200
GEOM_OPT_TOL_ENERGY       100
SYMMETRY                  False
THRESH                    12
SCF_CONVERGENCE           8
MAX_SUB_FILE_NUM          128
MEM_STATIC                400
MEM_TOTAL                 4000
$end
--------------------------------------------------------------

   16   -1510.2765350406      5.44E-09 Convergence criterion met
 Total energy in the final basis set = -1510.27653504
   14   -1510.2778559684      8.60E-09 Convergence criterion met
 Total energy in the final basis set = -1510.27785597
   14   -1510.2801873464      4.26E-09 Convergence criterion met
 Total energy in the final basis set = -1510.28018735
   13   -1510.2824495684      9.23E-09 Convergence criterion met
 Total energy in the final basis set = -1510.28244957
   13   -1510.2828455725      9.65E-09 Convergence criterion met
 Total energy in the final basis set = -1510.28284557
   13   -1510.2848579069      8.35E-09 Convergence criterion met
 Total energy in the final basis set = -1510.28485791
   13   -1510.2860980919      7.81E-09 Convergence criterion met
 Total energy in the final basis set = -1510.28609809
   14   -1510.2863956555      4.50E-09 Convergence criterion met
   12   -1510.2905601021      2.31E-09 Convergence criterion met
 Total energy in the final basis set = -1510.29056010
   11   -1510.2905705671      5.61E-09 Convergence criterion met
 Total energy in the final basis set = -1510.29057057
    9   -1510.2905742897      6.35E-09 Convergence criterion met
 Total energy in the final basis set = -1510.29057429
    9   -1510.2905776580      9.14E-09 Convergence criterion met
 Total energy in the final basis set = -1510.29057766
   10   -1510.2905813998      5.66E-09 Convergence criterion met
 Total energy in the final basis set = -1510.29058140
   10   -1510.2905836533      5.28E-09 Convergence criterion met
 Total energy in the final basis set = -1510.29058365

             Standard Nuclear Orientation (Angstroms)
    I     Atom           X                Y                Z
 ----------------------------------------------------------------
    1      O      -3.6700915582     1.6862781175     1.8425551206
    2      C      -4.0416688008     1.6956824596     0.6492200211
    3      C      -4.6708282753     0.5167357976    -0.1738642544
    4      C      -3.6523660435    -0.6565776979    -0.5050455167
    5      C      -2.2123306493    -0.4437021988     0.0789848649
    6      O      -1.7942929543     0.8890529470    -0.2188372524
    7      C      -0.4714964805     1.1891458598     0.3848279879
    8      C       0.5061024093     1.6739082302    -0.7404172130
    9      O       1.8725757396     1.7396320574    -0.1707461185
   10      C       2.7429351040     0.8330479911    -0.8700025900
   11      C       4.1300686896     0.8469239954    -0.1498400724
   12      C       4.5596247350    -0.5762980111     0.4081876885
   13      C       3.5348260825    -1.7251169715     0.0912547295
   14      O       3.7841337304    -2.8215606303    -0.4529307319
   15      O      -4.0127034279     2.8559803002    -0.1940834835
   16      O       2.2351665507    -1.3235934834     0.5372484133
   17      O       2.4128837243     0.1954215537    -1.8940792955
   18      C       1.2340802719    -2.3551543913     0.1691089192
   19      C       5.3178221987     1.1306120944    -1.1682327564
   20      C       6.6014201364     1.5181099436    -0.3331916776
   21      C       7.0302909033     0.1135442674     0.2345557982
   22      C       5.9128635777    -0.8170632378    -0.3786680240
   23      O       5.6404508291    -0.2100788966    -1.7036623495
   24      H       4.0885562688     1.5996536341     0.6566805879
   25      H       4.7161682740    -0.5344135010     1.5019607702
   26      H       5.0602119120     1.8252055139    -1.9911183028
   27      H       7.3755755976     1.9400952319    -0.9936900411
   28      H       6.3770310550     2.2492772870     0.4597770729
   29      H       8.0250632921    -0.1843138300    -0.1333166178
   30      H       7.0378374886     0.0832763798     1.3358976981
   31      H       6.1759845086    -1.8867948272    -0.4918658210
   32      O      -1.5250309652    -1.2871180403     0.6985128611
   33      C      -3.4068810403     3.9924467362     0.5355363500
   34      C      -5.7546247210    -0.2775032901     0.6770571271
   35      C      -6.6219040676    -1.1512649466    -0.3130134408
   36      C      -5.6137285955    -2.3098751685    -0.6592976848
   37      C      -4.3583207523    -1.8873148152     0.1988348397
   38      O      -4.9511040184    -1.2800409141     1.4128959788
   39      H      -5.1004942282     0.9379431457    -1.0994132090
   40      H      -3.5623465332    -0.8005003893    -1.5981415046
   41      H      -2.3518586851     3.7844905758     0.8069866581
   42      H      -6.3304785071     0.3497416735     1.3847207210
   43      H      -7.5181699092    -1.5358803284     0.1990883466
   44      H      -6.9385614105    -0.5824771368    -1.2017139926
   45      H      -5.9940013226    -3.2893593054    -0.3282479602
   46      H      -5.3829103559    -2.3664123538    -1.7352155085
   47      H      -3.6602952702    -2.7022813748     0.4729085444
   48      H      -3.9669806264     4.2300864054     1.4630175145
   49      H      -3.4464942910     4.8559273190    -0.1536222575
   50      H       0.2373286702    -1.9423995721     0.4388785803
   51      H       1.4121809923    -3.2996917402     0.7215510430
   52      H       1.2718872291    -2.5716857525    -0.9173497642
   53      H       0.5144053250     0.9577347658    -1.5921267344
   54      H       0.2177776080     2.6822182962    -1.1036344247
   55      H      -0.0720521434     0.2762191006     0.8742387658
   56      H      -0.6151996368     1.9797303004     1.1508506370
 ----------------------------------------------------------------

    9   -1510.2905842977      5.98E-09 Convergence criterion met
 Total energy in the final basis set = -1510.29058430
 Final energy is   -1510.29058429771
 **  OPTIMIZATION CONVERGED  **

                    Orbital Energies (a.u.)
 --------------------------------------------------------------

 Alpha MOs
 -- Occupied --
-18.950 -18.932 -18.932 -18.927 -18.896 -18.890 -18.886 -18.875
-18.871 -18.869 -10.117 -10.100 -10.098 -10.094 -10.074 -10.069
-10.065 -10.062 -10.062 -10.060 -10.056 -10.046 -10.043 -10.039
-10.037 -10.036 -10.023 -10.022 -10.020 -10.018  -1.027  -1.013
 -1.007  -1.003  -0.973  -0.968  -0.953  -0.936  -0.933  -0.930
 -0.768  -0.762  -0.731  -0.723  -0.712  -0.707  -0.698  -0.664
 -0.651  -0.619  -0.599  -0.582  -0.549  -0.544  -0.540  -0.536
 -0.516  -0.508  -0.486  -0.477  -0.463  -0.460  -0.457  -0.450
 -0.439  -0.433  -0.429  -0.417  -0.413  -0.410  -0.404  -0.401
 -0.400  -0.386  -0.373  -0.367  -0.363  -0.360  -0.355  -0.351
 -0.347  -0.337  -0.334  -0.333  -0.330  -0.327  -0.325  -0.314
 -0.309  -0.308  -0.304  -0.302  -0.293  -0.289  -0.282  -0.277
 -0.270  -0.258  -0.254  -0.249  -0.245  -0.237  -0.232  -0.193
 -0.175  -0.174  -0.173  -0.169  -0.159  -0.150  -0.148  -0.146
 -0.142

          Ground-State Mulliken Net Atomic Charges

     Atom                 Charge (a.u.)
  ----------------------------------------
      1 O                    -0.218635
      2 C                     0.211692
      3 C                    -0.079563
      4 C                    -0.077249
      5 C                     0.223370
      6 O                    -0.169738
      7 C                    -0.054026
      8 C                    -0.055942
      9 O                    -0.173258
     10 C                     0.214665
     11 C                    -0.079096
     12 C                    -0.078440
     13 C                     0.211885
     14 O                    -0.209234
     15 O                    -0.169647
     16 O                    -0.177054
     17 O                    -0.215126
     18 C                    -0.143943
     19 C                     0.025788
     20 C                    -0.143753
     21 C                    -0.144203
     22 C                     0.024232
     23 O                    -0.186543
     24 H                     0.086560
     25 H                     0.084664
     26 H                     0.082934
     27 H                     0.077981
     28 H                     0.073348
     29 H                     0.078300
     30 H                     0.073155
     31 H                     0.091549
     32 O                    -0.209525
     33 C                    -0.128023
     34 C                     0.025644
     35 C                    -0.143851
     36 C                    -0.144068
     37 C                     0.024415
     38 O                    -0.186470
     39 H                     0.086743
     40 H                     0.087789
     41 H                     0.084817
     42 H                     0.084717
     43 H                     0.078795
     44 H                     0.073962
     45 H                     0.079314
     46 H                     0.073577
     47 H                     0.090951
     48 H                     0.088955
     49 H                     0.089313
     50 H                     0.107157
     51 H                     0.082890
     52 H                     0.086422
     53 H                     0.102479
     54 H                     0.084088
     55 H                     0.106378
     56 H                     0.088856
  ----------------------------------------
  Sum of atomic charges =     0.000000

                    Cartesian Multipole Moments
 -----------------------------------------------------------------
    Charge (ESU x 10^10)
                -0.0000
    Dipole Moment (Debye)
         X      -1.3446      Y       2.6086      Z      -0.1594
       Tot       2.9391
    Quadrupole Moments (Debye-Ang)
        XX    -144.8509     XY       8.3514     YY    -155.5818
        XZ      18.9191     YZ      -0.4387     ZZ    -169.1804

 Total job time:  135.42s(wall), 6455.97s(cpu)
        *  Thank you very much for using Q-Chem.  Have a nice day.  *
