 Q-Chem 5.0, Q-Chem, Inc., Pleasanton, CA (2017)
 Q-Chem 5.0.1 for Intel X86 EM64T Linux

User input:
--------------------------------------------------------------
$molecule
0  1
O -3.94934 -3.66094 2.70899
C -3.26408 -4.56952 2.26188
C -3.36658 -6.02376 2.66595
C -2.45359 -6.50204 3.8068
C -1.66855 -5.43381 4.53528
O -0.94284 -4.70002 3.64068
C -0.12575 -3.70232 4.26214
C 0.6337 -2.91029 3.20286
O 1.61968 -2.07495 3.82969
C 2.35678 -2.67041 4.79988
C 3.64029 -1.93324 5.09961
C 3.59814 -1.04189 6.3494
C 2.43998 -1.28548 7.29599
O 2.44885 -1.06484 8.49841
O -2.34965 -4.28269 1.29838
O 1.20529 -1.37275 6.72869
O 2.45671 -3.88616 4.91154
C 0.0198 -1.46593 7.43055
C 4.87523 -2.81131 5.42995
C 6.15975 -2.03228 5.14797
C 6.13056 -1.02228 6.27402
C 4.89567 -1.5041 7.04231
O 4.87958 -2.89502 6.83254
H 3.89091 -1.33709 4.1916
H 3.59422 0.044 6.10935
H 4.90479 -3.77608 4.87855
H 7.00923 -2.73149 5.32192
H 6.24518 -1.60293 4.12662
H 7.05077 -1.15289 6.88594
H 6.02871 0.03903 5.95953
H 4.95779 -1.17333 8.10225
O -1.76395 -5.18656 5.73347
C -2.23365 -3.05194 0.68583
C -4.74314 -6.34558 3.29954
C -5.05023 -7.83558 3.15629
C -4.06832 -8.42108 4.14748
C -3.48834 -7.13716 4.75124
O -4.54686 -6.21552 4.68661
H -3.29064 -6.62902 1.73441
H -1.70251 -7.23426 3.43641
H -2.04091 -2.25917 1.43756
H -5.57702 -5.7498 2.86703
H -6.08168 -7.9913 3.54696
H -4.98658 -8.24449 2.12504
H -4.63938 -8.99573 4.91023
H -3.27196 -9.05921 3.70664
H -3.07634 -7.34436 5.76321
H -3.16917 -2.8128 0.13659
H -1.39215 -3.08139 -0.03623
H -0.82614 -1.51579 6.71617
H -0.11699 -0.57227 8.07605
H 0.018 -2.38554 8.05393
H 1.16887 -3.64003 2.55573
H -0.0368 -2.30713 2.56145
H 0.39814 -4.23552 5.06264
H -0.76912 -2.96858 4.79558
$end

$opt
CONSTRAINT
tors           1           2           3           4     -92.226
tors           3           4           5           6     -54.481
tors           4           5           6           7    -177.461
tors           5           6           7           8    -179.024
tors           6           7           8           9    -170.025
tors           7           8           9          10     +44.947
tors           8           9          10          11    +161.053
tors           9          10          11          12    +100.223
tors          11          12          13          14    +152.811
ENDCONSTRAINT
$end

$rem
JOBTYPE                   OPT
METHOD                    B3LYP
DFT_D                     d3_op
BASIS                     STO-3G
GEOM_OPT_MAX_CYCLES       100
GEOM_OPT_TOL_GRADIENT     300
GEOM_OPT_TOL_DISPLACEMENT 1200
GEOM_OPT_TOL_ENERGY       100
SYMMETRY                  False
THRESH                    12
SCF_CONVERGENCE           8
MAX_SUB_FILE_NUM          128
MEM_STATIC                400
MEM_TOTAL                 4000
$end
--------------------------------------------------------------

   15   -1510.1182590793      6.94E-09 Convergence criterion met
 Total energy in the final basis set = -1510.11825908
   14   -1510.1929940605      7.49E-09 Convergence criterion met
 Total energy in the final basis set = -1510.19299406
   14   -1510.2348825399      5.17E-09 Convergence criterion met
 Total energy in the final basis set = -1510.23488254
   15   -1510.2571151079      2.27E-09 Convergence criterion met
 Total energy in the final basis set = -1510.25711511
   14   -1510.2685059043      3.16E-09 Convergence criterion met
 Total energy in the final basis set = -1510.26850590
    2   -1510.2685059041      3.57E-09 Convergence criterion met
 Total energy in the final basis set = -1510.26850590
   13   -1510.2731805855      6.12E-09 Convergence criterion met
 Total energy in the final basis set = -1510.27318059
   13   -1510.2745918852      4.30E-09 Convergence criterion met
    9   -1510.2765568622      5.20E-09 Convergence criterion met
 Total energy in the final basis set = -1510.27655686
    9   -1510.2765598246      6.90E-09 Convergence criterion met
 Total energy in the final basis set = -1510.27655982
   11   -1510.2765649939      4.09E-09 Convergence criterion met
 Total energy in the final basis set = -1510.27656499
    9   -1510.2765679339      4.77E-09 Convergence criterion met
 Total energy in the final basis set = -1510.27656793
   11   -1510.2765734889      6.74E-09 Convergence criterion met
 Total energy in the final basis set = -1510.27657349
   10   -1510.2765761581      4.92E-09 Convergence criterion met
 Total energy in the final basis set = -1510.27657616

             Standard Nuclear Orientation (Angstroms)
    I     Atom           X                Y                Z
 ----------------------------------------------------------------
    1      O      -3.8283756317     1.1610792815     1.8952658594
    2      C      -3.9656604468     1.3933902135     0.6750249136
    3      C      -4.7630549203     0.5561001705    -0.3829237535
    4      C      -3.9145997452    -0.5399523052    -1.1598354739
    5      C      -2.4904887140    -0.8281146803    -0.5577740119
    6      O      -1.7559579009     0.3946186157    -0.4481518238
    7      C      -0.3920220461     0.1013773237     0.0635845096
    8      C       0.3465744751     1.4821708875     0.1829679825
    9      O       1.8049711534     1.4124187963     0.4581845193
   10      C       2.5311625919     0.4523803420    -0.3258269213
   11      C       4.0502799706     0.8611363375    -0.2596341156
   12      C       4.9359079219     0.0329802003     0.7646864023
   13      C       4.2063255472    -1.1302880851     1.5293003200
   14      O       4.7377339706    -2.1657674327     1.9835816402
   15      O      -3.5020801856     2.5884649301     0.0302447293
   16      O       2.8223706447    -0.8079348016     1.6914392767
   17      O       2.0524015338    -0.4368208351    -1.0670668417
   18      C       2.0909074909    -1.9300578011     2.3225438712
   19      C       4.7932142935     0.5277458838    -1.6245556439
   20      C       6.1289161148     1.3687256767    -1.6724944420
   21      C       7.0199079600     0.5820193370    -0.6408626639
   22      C       6.0354593528    -0.5731392500    -0.2058531515
   23      O       5.2651238190    -0.8630258490    -1.4373439117
   24      H       4.0958773790     1.9380608825    -0.0213706996
   25      H       5.3896402146     0.7017094556     1.5199396276
   26      H       4.1510298428     0.5989226090    -2.5235325994
   27      H       6.5640279530     1.3417184963    -2.6842800425
   28      H       5.9688791389     2.4199709813    -1.3843990481
   29      H       7.9188858180     0.1626484405    -1.1199488877
   30      H       7.3316513360     1.2031572304     0.2140935035
   31      H       6.5122397218    -1.4934980583     0.1847518639
   32      O      -2.0327886977    -1.9460012635    -0.2371617779
   33      C      -2.8124752520     3.4545087951     1.0116161003
   34      C      -5.8992848222    -0.3483279195     0.2633064600
   35      C      -6.9621385970    -0.6599129598    -0.8613897911
   36      C      -6.1580711988    -1.6753431204    -1.7566278047
   37      C      -4.8184504834    -1.8204287164    -0.9334215395
   38      O      -5.2434790617    -1.6575068482     0.4777217820
   39      H      -5.1920239436     1.2732063366    -1.1054747004
   40      H      -3.8034905383    -0.2727967832    -2.2268457481
   41      H      -2.0171619176     2.9069554950     1.5556433903
   42      H      -6.3080610428     0.0402193365     1.2161523028
   43      H      -7.8555766016    -1.1317735245    -0.4218790254
   44      H      -7.2720460916     0.2434166238    -1.4106275947
   45      H      -6.6731440307    -2.6460298202    -1.8311202619
   46      H      -5.9779070840    -1.2932306840    -2.7742958704
   47      H      -4.2708667657    -2.7744903626    -1.0612103698
   48      H      -3.5225429194     3.8671433572     1.7580381796
   49      H      -2.3652378769     4.2830134292     0.4322619797
   50      H       1.0749580834    -1.5510944933     2.5373725214
   51      H       2.5797475756    -2.2531769109     3.2635695772
   52      H       2.0234556483    -2.7993973386     1.6370315548
   53      H       0.1810035259     2.0440368543    -0.7645897387
   54      H      -0.0733649311     2.0808682257     1.0158331318
   55      H       0.1966017056    -0.5324463820    -0.6365668048
   56      H      -0.4426811428    -0.4053638194     1.0501524219
 ----------------------------------------------------------------

    9   -1510.2765769775      3.69E-09 Convergence criterion met
 Total energy in the final basis set = -1510.27657698
 Final energy is   -1510.27657697749
 **  OPTIMIZATION CONVERGED  **

                    Orbital Energies (a.u.)
 --------------------------------------------------------------

 Alpha MOs
 -- Occupied --
-18.945 -18.933 -18.932 -18.930 -18.888 -18.884 -18.881 -18.875
-18.874 -18.870 -10.106 -10.105 -10.097 -10.096 -10.075 -10.068
-10.063 -10.061 -10.059 -10.058 -10.057 -10.055 -10.041 -10.037
-10.037 -10.035 -10.022 -10.021 -10.018 -10.017  -1.020  -1.013
 -1.006  -1.004  -0.971  -0.967  -0.942  -0.939  -0.934  -0.932
 -0.765  -0.761  -0.728  -0.722  -0.711  -0.703  -0.697  -0.666
 -0.662  -0.616  -0.597  -0.585  -0.546  -0.544  -0.539  -0.536
 -0.514  -0.507  -0.484  -0.473  -0.464  -0.456  -0.454  -0.447
 -0.439  -0.429  -0.428  -0.415  -0.414  -0.410  -0.409  -0.397
 -0.387  -0.385  -0.376  -0.374  -0.365  -0.361  -0.352  -0.349
 -0.344  -0.337  -0.333  -0.332  -0.330  -0.328  -0.326  -0.313
 -0.308  -0.307  -0.304  -0.300  -0.295  -0.292  -0.284  -0.274
 -0.271  -0.254  -0.252  -0.251  -0.242  -0.235  -0.231  -0.184
 -0.180  -0.174  -0.173  -0.160  -0.155  -0.147  -0.146  -0.145
 -0.141

          Ground-State Mulliken Net Atomic Charges

     Atom                 Charge (a.u.)
  ----------------------------------------
      1 O                    -0.216072
      2 C                     0.210805
      3 C                    -0.080490
      4 C                    -0.077330
      5 C                     0.210661
      6 O                    -0.175060
      7 C                    -0.063909
      8 C                    -0.048026
      9 O                    -0.172416
     10 C                     0.223267
     11 C                    -0.080122
     12 C                    -0.078193
     13 C                     0.213918
     14 O                    -0.209377
     15 O                    -0.168804
     16 O                    -0.166983
     17 O                    -0.216976
     18 C                    -0.126870
     19 C                     0.025465
     20 C                    -0.143899
     21 C                    -0.144130
     22 C                     0.024132
     23 O                    -0.187679
     24 H                     0.085015
     25 H                     0.086059
     26 H                     0.085816
     27 H                     0.078370
     28 H                     0.073119
     29 H                     0.078862
     30 H                     0.073336
     31 H                     0.090448
     32 O                    -0.208907
     33 C                    -0.127624
     34 C                     0.024681
     35 C                    -0.143096
     36 C                    -0.145106
     37 C                     0.024080
     38 O                    -0.188328
     39 H                     0.084745
     40 H                     0.085380
     41 H                     0.086537
     42 H                     0.085864
     43 H                     0.077822
     44 H                     0.072663
     45 H                     0.078200
     46 H                     0.072793
     47 H                     0.090887
     48 H                     0.086030
     49 H                     0.088478
     50 H                     0.093250
     51 H                     0.094501
     52 H                     0.095009
     53 H                     0.084435
     54 H                     0.086500
     55 H                     0.115432
     56 H                     0.082837
  ----------------------------------------
  Sum of atomic charges =     0.000000

                    Cartesian Multipole Moments
 -----------------------------------------------------------------
    Charge (ESU x 10^10)
                 0.0000
    Dipole Moment (Debye)
         X       0.0933      Y       3.9039      Z      -0.9685
       Tot       4.0233
    Quadrupole Moments (Debye-Ang)
        XX    -146.3188     XY       6.7868     YY    -161.0967
        XZ       9.9282     YZ       0.8229     ZZ    -160.2887

 Total job time:  72.22s(wall), 3435.83s(cpu)
        *  Thank you very much for using Q-Chem.  Have a nice day.  *
