 Q-Chem 5.0, Q-Chem, Inc., Pleasanton, CA (2017)
 Q-Chem 5.0.1 for Intel X86 EM64T Linux

User input:
--------------------------------------------------------------
$molecule
0  1
O -3.94934 -3.66094 2.70899
C -3.26408 -4.56952 2.26188
C -3.36658 -6.02376 2.66595
C -2.78861 -6.41476 4.03596
C -2.33274 -5.27879 4.9247
O -1.46817 -4.47263 4.24055
C -0.96612 -3.38817 5.02867
C -0.08693 -2.48062 4.17455
O 0.49748 -1.45467 4.99232
C 1.85246 -1.39982 4.9793
C 2.39229 -0.07404 5.46051
C 3.83884 -0.11229 5.97462
C 4.63725 -1.34772 5.60998
O 5.82259 -1.52278 5.85265
O -2.44876 -4.30724 1.20605
O 4.41248 -1.75893 4.31933
O 2.39641 -2.48271 5.1436
C 5.07234 -2.75976 3.622
C 2.51233 0.97861 4.34107
C 2.4865 2.37785 4.95441
C 3.83571 2.40713 5.6461
C 4.41674 1.07031 5.1684
O 3.84215 0.88371 3.8973
H 1.68833 0.31012 6.23446
H 3.92506 0.03085 7.07381
H 1.72629 0.8814 3.56046
H 2.50559 3.1002 4.10676
H 1.61506 2.6045 5.6056
H 4.41836 3.26391 5.24078
H 3.80046 2.45792 6.75598
H 5.5285 1.09628 5.19847
O -2.76958 -5.04459 6.0465
C -2.30914 -3.06779 0.61738
C -4.82355 -6.49199 2.82915
C -4.90758 -8.00802 2.6589
C -4.25707 -8.47395 3.94529
C -4.01307 -7.12938 4.63957
O -5.08443 -6.32654 4.20305
H -2.87008 -6.61513 1.86236
H -1.90998 -7.08906 3.92749
H -1.93721 -2.32946 1.35731
H -5.52511 -5.98564 2.13027
H -5.98598 -8.28443 2.68777
H -4.45233 -8.40315 1.72535
H -5.00053 -9.07319 4.51677
H -3.31761 -9.05469 3.82016
H -3.9254 -7.27975 5.73779
H -3.2842 -2.72728 0.20808
H -1.57849 -3.14015 -0.21406
H 4.3303 -3.50867 3.27692
H 5.8284 -3.28714 4.2415
H 5.57163 -2.31889 2.73537
H 0.66851 -3.10507 3.64272
H -0.71588 -2.00316 3.39551
H -0.35303 -3.79687 5.86353
H -1.79614 -2.77196 5.44402
$end

$opt
CONSTRAINT
tors           1           2           3           4     -74.764
tors           3           4           5           6     -52.717
tors           4           5           6           7    -178.593
tors           5           6           7           8    -176.116
tors           6           7           8           9    -175.532
tors           7           8           9          10    +122.726
tors           8           9          10          11    +161.053
tors           9          10          11          12    +157.701
tors          11          12          13          14    +175.080
ENDCONSTRAINT
$end

$rem
JOBTYPE                   OPT
METHOD                    B3LYP
DFT_D                     d3_op
BASIS                     STO-3G
GEOM_OPT_MAX_CYCLES       100
GEOM_OPT_TOL_GRADIENT     300
GEOM_OPT_TOL_DISPLACEMENT 1200
GEOM_OPT_TOL_ENERGY       100
SYMMETRY                  False
THRESH                    12
SCF_CONVERGENCE           8
MAX_SUB_FILE_NUM          128
MEM_STATIC                400
MEM_TOTAL                 4000
$end
--------------------------------------------------------------

   15   -1510.0950979142      8.53E-09 Convergence criterion met
 Total energy in the final basis set = -1510.09509791
   14   -1510.1718209889      9.49E-09 Convergence criterion met
 Total energy in the final basis set = -1510.17182099
   15   -1510.2132022126      1.32E-09 Convergence criterion met
 Total energy in the final basis set = -1510.21320221
   14   -1510.2353815346      7.82E-09 Convergence criterion met
 Total energy in the final basis set = -1510.23538153
   14   -1510.2480225779      6.45E-09 Convergence criterion met
 Total energy in the final basis set = -1510.24802258
   14   -1510.2548144066      4.04E-09 Convergence criterion met
 Total energy in the final basis set = -1510.25481441
   13   -1510.2590858663      8.91E-09 Convergence criterion met
 Total energy in the final basis set = -1510.25908587
   13   -1510.2617007715      4.23E-09 Convergence criterion met
   11   -1510.2741696754      3.03E-09 Convergence criterion met
 Total energy in the final basis set = -1510.27416968
   11   -1510.2741780726      2.78E-09 Convergence criterion met
 Total energy in the final basis set = -1510.27417807
    9   -1510.2741795287      3.52E-09 Convergence criterion met
 Total energy in the final basis set = -1510.27417953
    9   -1510.2741817202      3.21E-09 Convergence criterion met
 Total energy in the final basis set = -1510.27418172
    9   -1510.2741831231      2.60E-09 Convergence criterion met
 Total energy in the final basis set = -1510.27418312
    9   -1510.2741842239      3.41E-09 Convergence criterion met
 Total energy in the final basis set = -1510.27418422

             Standard Nuclear Orientation (Angstroms)
    I     Atom           X                Y                Z
 ----------------------------------------------------------------
    1      O      -3.6651930140     1.8186459666     1.1154566449
    2      C      -3.8190540329     1.5037660530    -0.0851586261
    3      C      -4.7736486378     0.4138122980    -0.6812376414
    4      C      -4.2824993439    -1.0810487889    -0.4610522196
    5      C      -3.0147651675    -1.2141451234     0.4560788980
    6      O      -1.9883415274    -0.3551408760    -0.0533054348
    7      C      -0.7625888300    -0.4853460558     0.7757915941
    8      C       0.2681148781     0.5511212231     0.2191820969
    9      O       1.5540791138     0.3933401738     0.9393427262
   10      C       2.6180804392     0.1228229971     0.0058228691
   11      C       3.9651331234     0.4517655928     0.7381458976
   12      C       5.2456046796    -0.2597975740     0.1509133974
   13      C       5.0694761834    -1.6345111172    -0.5838137558
   14      O       5.9820168179    -2.2604429596    -1.1693738804
   15      O      -3.1841357009     2.1727607639    -1.1857824446
   16      O       3.7881502797    -2.1961919809    -0.2809171266
   17      O       2.4326020700    -0.1128748442    -1.2071623465
   18      C       3.6344031541    -3.5225109058    -0.9204262370
   19      C       4.2998017966     1.9595428225     0.3389162508
   20      C       5.5773029998     2.4591911205     1.1251563373
   21      C       6.7368253553     1.7983130966     0.2895502805
   22      C       5.9010121644     0.9090296487    -0.7104366062
   23      O       4.7674901130     1.7968445809    -1.0582832221
   24      H       3.8478780058     0.3034711920     1.8254320476
   25      H       5.9253031306    -0.4903750426     0.9939978933
   26      H       3.4283675244     2.6416825729     0.3804884326
   27      H       5.6366853258     3.5588663087     1.1081192746
   28      H       5.5675264470     2.1233063658     2.1747300732
   29      H       7.3146588962     2.5560783630    -0.2637321165
   30      H       7.4285227258     1.2046877091     0.9085036660
   31      H       6.4345654740     0.5718917904    -1.6202650863
   32      O      -2.8762835298    -1.9544141977     1.4523863618
   33      C      -2.2929238185     3.2467629941    -0.6916208966
   34      C      -6.1839162125     0.3697874561     0.0529934570
   35      C      -7.2031460917    -0.3701498585    -0.9000532854
   36      C      -6.7199383820    -1.8619983505    -0.7587599572
   37      C      -5.5380488745    -1.7041245535     0.2763719162
   38      O      -5.9813181866    -0.5963603344     1.1549665820
   39      H      -4.8865823663     0.6270972645    -1.7585518795
   40      H      -4.0717555102    -1.5738107275    -1.4281786461
   41      H      -2.3106020416     3.2569568533     0.4175711540
   42      H      -6.5258262699     1.3447178779     0.4510560625
   43      H      -8.2334132234    -0.2442022066    -0.5306838615
   44      H      -7.1504388367    -0.0000836218    -1.9363021773
   45      H      -7.5118898969    -2.5066666068    -0.3457178524
   46      H      -6.3791073354    -2.2909963042    -1.7145907462
   47      H      -5.2976956765    -2.6013056392     0.8794844223
   48      H      -2.6466913053     4.2206952389    -1.0838098685
   49      H      -1.2655693060     3.0584894189    -1.0597491631
   50      H       3.2663900271    -4.2345829799    -0.1569269608
   51      H       4.6131881307    -3.8547208892    -1.3220100202
   52      H       2.8951420801    -3.4497691070    -1.7431366715
   53      H       0.4415522298     0.3815474483    -0.8661414649
   54      H      -0.1012443671     1.5836751765     0.3884714661
   55      H      -0.3475747096    -1.5143669570     0.6998489634
   56      H      -0.9883588555    -0.2835508595     1.8452576058
 ----------------------------------------------------------------

    9   -1510.2741845439      1.75E-09 Convergence criterion met
 Total energy in the final basis set = -1510.27418454
 Final energy is   -1510.27418454391
 **  OPTIMIZATION CONVERGED  **

                    Orbital Energies (a.u.)
 --------------------------------------------------------------

 Alpha MOs
 -- Occupied --
-18.937 -18.936 -18.929 -18.929 -18.891 -18.886 -18.880 -18.877
-18.875 -18.870 -10.102 -10.102 -10.101 -10.097 -10.073 -10.068
-10.065 -10.063 -10.059 -10.059 -10.057 -10.056 -10.042 -10.041
-10.039 -10.036 -10.024 -10.022 -10.020 -10.019  -1.017  -1.014
 -1.008  -1.005  -0.974  -0.969  -0.941  -0.938  -0.933  -0.932
 -0.767  -0.763  -0.730  -0.724  -0.713  -0.706  -0.698  -0.661
 -0.660  -0.617  -0.597  -0.581  -0.547  -0.545  -0.540  -0.538
 -0.516  -0.509  -0.485  -0.470  -0.464  -0.458  -0.454  -0.451
 -0.439  -0.435  -0.430  -0.414  -0.414  -0.410  -0.409  -0.403
 -0.391  -0.385  -0.376  -0.368  -0.365  -0.357  -0.352  -0.349
 -0.345  -0.343  -0.337  -0.333  -0.331  -0.328  -0.322  -0.316
 -0.309  -0.308  -0.305  -0.298  -0.296  -0.290  -0.285  -0.274
 -0.272  -0.255  -0.247  -0.246  -0.246  -0.237  -0.233  -0.181
 -0.179  -0.171  -0.169  -0.161  -0.159  -0.155  -0.150  -0.147
 -0.143

          Ground-State Mulliken Net Atomic Charges

     Atom                 Charge (a.u.)
  ----------------------------------------
      1 O                    -0.218594
      2 C                     0.212835
      3 C                    -0.079558
      4 C                    -0.077786
      5 C                     0.212818
      6 O                    -0.173877
      7 C                    -0.046596
      8 C                    -0.055279
      9 O                    -0.177827
     10 C                     0.219137
     11 C                    -0.075617
     12 C                    -0.079346
     13 C                     0.213293
     14 O                    -0.216916
     15 O                    -0.169912
     16 O                    -0.168809
     17 O                    -0.208680
     18 C                    -0.134922
     19 C                     0.024926
     20 C                    -0.145104
     21 C                    -0.141596
     22 C                     0.025965
     23 O                    -0.187925
     24 H                     0.088804
     25 H                     0.085366
     26 H                     0.082410
     27 H                     0.079047
     28 H                     0.074685
     29 H                     0.078923
     30 H                     0.074667
     31 H                     0.089699
     32 O                    -0.207381
     33 C                    -0.137211
     34 C                     0.025590
     35 C                    -0.143430
     36 C                    -0.144624
     37 C                     0.024298
     38 O                    -0.187057
     39 H                     0.086588
     40 H                     0.085893
     41 H                     0.100034
     42 H                     0.084618
     43 H                     0.078121
     44 H                     0.073537
     45 H                     0.078439
     46 H                     0.073064
     47 H                     0.090570
     48 H                     0.084202
     49 H                     0.083435
     50 H                     0.086424
     51 H                     0.102443
     52 H                     0.088335
     53 H                     0.103686
     54 H                     0.084031
     55 H                     0.088243
     56 H                     0.093923
  ----------------------------------------
  Sum of atomic charges =    -0.000000

                    Cartesian Multipole Moments
 -----------------------------------------------------------------
    Charge (ESU x 10^10)
                 0.0000
    Dipole Moment (Debye)
         X       0.3217      Y       0.5870      Z      -0.5413
       Tot       0.8609
    Quadrupole Moments (Debye-Ang)
        XX    -152.8703     XY       5.0730     YY    -152.0931
        XZ      24.1181     YZ       3.6531     ZZ    -168.0123

 Total job time:  127.60s(wall), 6071.92s(cpu)
        *  Thank you very much for using Q-Chem.  Have a nice day.  *
