 Q-Chem 5.0, Q-Chem, Inc., Pleasanton, CA (2017)
 Q-Chem 5.0.1 for Intel X86 EM64T Linux

User input:
--------------------------------------------------------------
$molecule
0  1
O -3.665193014 1.8186459666 1.1154566449
C -3.8190540329 1.503766053 -0.0851586261
C -4.7736486378 0.413812298 -0.6812376414
C -4.2824993439 -1.0810487889 -0.4610522196
C -3.0147651675 -1.2141451234 0.456078898
O -1.9883415274 -0.355140876 -0.0533054348
C -0.76258883 -0.4853460558 0.7757915941
C 0.2681148781 0.5511212231 0.2191820969
O 1.5540791138 0.3933401738 0.9393427262
C 2.6180804392 0.1228229971 0.0058228691
C 3.9651331234 0.4517655928 0.7381458976
C 5.2456046796 -0.259797574 0.1509133974
C 5.0694761834 -1.6345111172 -0.5838137558
O 5.9820168179 -2.2604429596 -1.1693738804
O -3.1841357009 2.1727607639 -1.1857824446
O 3.7881502797 -2.1961919809 -0.2809171266
O 2.43260207 -0.1128748442 -1.2071623465
C 3.6344031541 -3.5225109058 -0.920426237
C 4.2998017966 1.9595428225 0.3389162508
C 5.5773029998 2.4591911205 1.1251563373
C 6.7368253553 1.7983130966 0.2895502805
C 5.9010121644 0.9090296487 -0.7104366062
O 4.767490113 1.7968445809 -1.0582832221
H 3.8478780058 0.303471192 1.8254320476
H 5.9253031306 -0.4903750426 0.9939978933
H 3.4283675244 2.6416825729 0.3804884326
H 5.6366853258 3.5588663087 1.1081192746
H 5.567526447 2.1233063658 2.1747300732
H 7.3146588962 2.556078363 -0.2637321165
H 7.4285227258 1.2046877091 0.908503666
H 6.434565474 0.5718917904 -1.6202650863
O -2.8762835298 -1.9544141977 1.4523863618
C -2.2929238185 3.2467629941 -0.6916208966
C -6.1839162125 0.3697874561 0.052993457
C -7.2031460917 -0.3701498585 -0.9000532854
C -6.719938382 -1.8619983505 -0.7587599572
C -5.5380488745 -1.7041245535 0.2763719162
O -5.9813181866 -0.5963603344 1.154966582
H -4.8865823663 0.6270972645 -1.7585518795
H -4.0717555102 -1.5738107275 -1.4281786461
H -2.3106020416 3.2569568533 0.417571154
H -6.5258262699 1.3447178779 0.4510560625
H -8.2334132234 -0.2442022066 -0.5306838615
H -7.1504388367 -8.36218e-05 -1.9363021773
H -7.5118898969 -2.5066666068 -0.3457178524
H -6.3791073354 -2.2909963042 -1.7145907462
H -5.2976956765 -2.6013056392 0.8794844223
H -2.6466913053 4.2206952389 -1.0838098685
H -1.265569306 3.0584894189 -1.0597491631
H 3.2663900271 -4.2345829799 -0.1569269608
H 4.6131881307 -3.8547208892 -1.3220100202
H 2.8951420801 -3.449769107 -1.7431366715
H 0.4415522298 0.3815474483 -0.8661414649
H -0.1012443671 1.5836751765 0.3884714661
H -0.3475747096 -1.514366957 0.6998489634
H -0.9883588555 -0.2835508595 1.8452576058
$end

$rem
JOBTYPE                   OPT
METHOD                    B3LYP
DFT_D                     d3_op
BASIS                     STO-3G
GEOM_OPT_MAX_CYCLES       100
GEOM_OPT_TOL_GRADIENT     300
GEOM_OPT_TOL_DISPLACEMENT 1200
GEOM_OPT_TOL_ENERGY       100
SYMMETRY                  False
THRESH                    12
SCF_CONVERGENCE           8
MAX_SUB_FILE_NUM          128
MEM_STATIC                400
MEM_TOTAL                 4000
$end
--------------------------------------------------------------

   16   -1510.2742249701      5.50E-09 Convergence criterion met
 Total energy in the final basis set = -1510.27422497
   14   -1510.2772264997      3.53E-09 Convergence criterion met
 Total energy in the final basis set = -1510.27722650
   13   -1510.2790524471      9.13E-09 Convergence criterion met
 Total energy in the final basis set = -1510.27905245
   13   -1510.2809361464      7.08E-09 Convergence criterion met
 Total energy in the final basis set = -1510.28093615
   14   -1510.2822987288      7.08E-09 Convergence criterion met
 Total energy in the final basis set = -1510.28229873
   13   -1510.2834072493      8.27E-09 Convergence criterion met
 Total energy in the final basis set = -1510.28340725
   12   -1510.2844341544      8.03E-09 Convergence criterion met
 Total energy in the final basis set = -1510.28443415
   13   -1510.2851230004      4.30E-09 Convergence criterion met
   13   -1510.2905317188      4.87E-09 Convergence criterion met
 Total energy in the final basis set = -1510.29053172
   12   -1510.2906408760      6.45E-09 Convergence criterion met
 Total energy in the final basis set = -1510.29064088
   12   -1510.2906855021      4.88E-09 Convergence criterion met
 Total energy in the final basis set = -1510.29068550
   11   -1510.2907125097      7.29E-09 Convergence criterion met
 Total energy in the final basis set = -1510.29071251
   11   -1510.2907427188      5.81E-09 Convergence criterion met
 Total energy in the final basis set = -1510.29074272
   11   -1510.2907484770      5.32E-09 Convergence criterion met
 Total energy in the final basis set = -1510.29074848

             Standard Nuclear Orientation (Angstroms)
    I     Atom           X                Y                Z
 ----------------------------------------------------------------
    1      O      -3.7435456173     1.0744410512     1.7690147443
    2      C      -4.1254467363     1.3360596154     0.6066794430
    3      C      -4.6738242642     0.3340168265    -0.4656570899
    4      C      -3.5928861700    -0.7254525011    -0.9486206715
    5      C      -2.1941152084    -0.5545277266    -0.2615461497
    6      O      -1.8069241591     0.8137265587    -0.3968383374
    7      C      -0.5147354404     1.0901621800     0.2783437302
    8      C       0.5490888391     1.5111502152    -0.7947647027
    9      O       1.8554990449     1.6636693260    -0.1140270032
   10      C       2.8378520737     0.8035454180    -0.7186261923
   11      C       4.1465352660     0.9232274649     0.1293349810
   12      C       4.5153957467    -0.4022265726     0.9228575929
   13      C       3.5935987301    -1.6313927060     0.5915165208
   14      O       3.9680440038    -2.7779647862     0.2656446601
   15      O      -4.1693390903     2.6559941880     0.0459525040
   16      O       2.2236283552    -1.2401157284     0.7249160229
   17      O       2.6435422351     0.1395108550    -1.7600035880
   18      C       1.3375062330    -2.3556476709     0.3082762587
   19      C       5.4456033194     1.0967254223    -0.7734884839
   20      C       6.5978208051     1.6700879642     0.1412775727
   21      C       6.9599460328     0.3999866955     0.9989617657
   22      C       5.9784205940    -0.6749857221     0.3867486776
   23      O       5.8789552568    -0.2920030530    -1.0417129603
   24      H       4.0177356695     1.7717512544     0.8234650679
   25      H       4.4929650291    -0.2247268135     2.0140034131
   26      H       5.2765292078     1.6397192905    -1.7237051488
   27      H       7.4499953874     1.9964266033    -0.4760064410
   28      H       6.2597701836     2.5200821635     0.7553747726
   29      H       8.0082305492     0.0966190890     0.8497879179
   30      H       6.7855716876     0.5520722249     2.0762700803
   31      H       6.2945409628    -1.7321591822     0.4807077679
   32      O      -1.5208259503    -1.4418679989     0.3085042885
   33      C      -3.6288365168     3.6402759520     1.0118237910
   34      C      -5.7741223756    -0.6394327744     0.1460569132
   35      C      -6.5351272261    -1.3367238137    -1.0501879263
   36      C      -5.4612888216    -2.3851431848    -1.5258631785
   37      C      -4.2808862004    -2.0873385173    -0.5222522099
   38      O      -4.9740166119    -1.7341430653     0.7385338514
   39      H      -5.0671719583     0.9191533392    -1.3148499851
   40      H      -3.4470136888    -0.6619895365    -2.0430965146
   41      H      -3.3770077243     3.1219657568     1.9597044006
   42      H      -6.4221842401    -0.1747406188     0.9140711174
   43      H      -7.4500468037    -1.8316238628    -0.6875371702
   44      H      -6.8099409201    -0.6200747361    -1.8405182638
   45      H      -5.8221206538    -3.4182211424    -1.3993134118
   46      H      -5.1613937446    -2.2417157636    -2.5761968583
   47      H      -3.5654516828    -2.9154116754    -0.3523018629
   48      H      -4.3926053110     4.4212172356     1.1938531231
   49      H      -2.7218797282     4.1091063369     0.5814558551
   50      H       0.2939007552    -1.9759940002     0.3690311252
   51      H       1.4596889265    -3.2322206774     0.9755483173
   52      H       1.5640382462    -2.6708389391    -0.7299820216
   53      H       0.6471751456     0.7355276775    -1.5862864590
   54      H       0.2662894370     2.4783771027    -1.2610383292
   55      H      -0.1704187958     0.1862467335     0.8220941684
   56      H      -0.6863641844     1.9140193184     1.0017431449
 ----------------------------------------------------------------

    9   -1510.2907494446      7.76E-09 Convergence criterion met
 Total energy in the final basis set = -1510.29074944
 Final energy is   -1510.29074944464
 **  OPTIMIZATION CONVERGED  **

                    Orbital Energies (a.u.)
 --------------------------------------------------------------

 Alpha MOs
 -- Occupied --
-18.948 -18.933 -18.930 -18.928 -18.897 -18.891 -18.885 -18.873
-18.873 -18.871 -10.117 -10.101 -10.099 -10.094 -10.075 -10.069
-10.063 -10.062 -10.059 -10.058 -10.055 -10.046 -10.041 -10.041
-10.037 -10.035 -10.024 -10.023 -10.019 -10.018  -1.027  -1.012
 -1.009  -1.003  -0.974  -0.968  -0.953  -0.935  -0.935  -0.930
 -0.769  -0.762  -0.731  -0.723  -0.713  -0.707  -0.697  -0.663
 -0.650  -0.619  -0.599  -0.582  -0.550  -0.543  -0.541  -0.536
 -0.516  -0.507  -0.485  -0.477  -0.464  -0.459  -0.457  -0.448
 -0.439  -0.434  -0.429  -0.416  -0.415  -0.410  -0.403  -0.401
 -0.399  -0.388  -0.373  -0.367  -0.364  -0.361  -0.356  -0.351
 -0.347  -0.336  -0.335  -0.334  -0.330  -0.327  -0.325  -0.315
 -0.309  -0.308  -0.304  -0.302  -0.294  -0.289  -0.283  -0.277
 -0.270  -0.259  -0.249  -0.248  -0.245  -0.237  -0.232  -0.193
 -0.174  -0.174  -0.172  -0.168  -0.158  -0.156  -0.148  -0.147
 -0.142

          Ground-State Mulliken Net Atomic Charges

     Atom                 Charge (a.u.)
  ----------------------------------------
      1 O                    -0.218871
      2 C                     0.212595
      3 C                    -0.078516
      4 C                    -0.077208
      5 C                     0.223560
      6 O                    -0.171028
      7 C                    -0.053093
      8 C                    -0.055220
      9 O                    -0.173971
     10 C                     0.215375
     11 C                    -0.079725
     12 C                    -0.078244
     13 C                     0.211624
     14 O                    -0.209155
     15 O                    -0.169873
     16 O                    -0.176647
     17 O                    -0.216010
     18 C                    -0.144638
     19 C                     0.025550
     20 C                    -0.143445
     21 C                    -0.144565
     22 C                     0.024247
     23 O                    -0.187058
     24 H                     0.086023
     25 H                     0.084739
     26 H                     0.083588
     27 H                     0.077897
     28 H                     0.073049
     29 H                     0.078244
     30 H                     0.072939
     31 H                     0.091369
     32 O                    -0.208189
     33 C                    -0.137131
     34 C                     0.025899
     35 C                    -0.143827
     36 C                    -0.143938
     37 C                     0.024565
     38 O                    -0.185872
     39 H                     0.087676
     40 H                     0.087658
     41 H                     0.101284
     42 H                     0.084770
     43 H                     0.078974
     44 H                     0.074129
     45 H                     0.079509
     46 H                     0.073768
     47 H                     0.091060
     48 H                     0.084943
     49 H                     0.083139
     50 H                     0.108977
     51 H                     0.083645
     52 H                     0.086041
     53 H                     0.100606
     54 H                     0.083357
     55 H                     0.105642
     56 H                     0.089786
  ----------------------------------------
  Sum of atomic charges =    -0.000000

                    Cartesian Multipole Moments
 -----------------------------------------------------------------
    Charge (ESU x 10^10)
                -0.0000
    Dipole Moment (Debye)
         X      -1.7220      Y       3.0523      Z      -0.2721
       Tot       3.5151
    Quadrupole Moments (Debye-Ang)
        XX    -149.1962     XY       8.9778     YY    -158.3027
        XZ      18.8604     YZ       3.0725     ZZ    -163.0520

 Total job time:  118.61s(wall), 5651.55s(cpu)
        *  Thank you very much for using Q-Chem.  Have a nice day.  *
