 Q-Chem 5.0, Q-Chem, Inc., Pleasanton, CA (2017)
 Q-Chem 5.0.1 for Intel X86 EM64T Linux

User input:
--------------------------------------------------------------
$molecule
0  1
O -3.8486322379 2.4900124677 0.6941450314
C -3.636300294 1.7421796658 -0.2843594366
C -4.4917333684 0.5112201157 -0.7485121787
C -3.919874938 -0.9359649963 -0.4398756966
C -2.7376488124 -1.0368864776 0.5947266941
O -1.8725439434 0.0984407074 0.498861053
C -0.5622860384 -0.2080264993 1.127375252
C 0.2927867714 1.1055602112 1.0459133363
O 1.6963152618 0.8647545326 1.4607250785
C 2.4693610342 0.3789479236 0.3509465904
C 3.982562567 0.5979113103 0.6711884249
C 4.8884433317 -0.6770427845 0.3912887153
C 4.0957795296 -1.8233090358 -0.3332308337
O 4.0203248626 -2.0455865223 -1.5593593602
O -2.657267373 2.010524469 -1.299618597
O 3.3635823117 -2.5488045365 0.6648701821
O 1.9667400582 -0.0748345203 -0.7002982476
C 2.4624960361 -3.5273416986 0.0140453635
C 4.6585353176 1.667541545 -0.2973141295
C 5.9837926167 2.1677376925 0.4001278389
C 6.9109454486 0.9090832174 0.2175537639
C 5.9631172996 -0.0582242425 -0.5957451167
O 5.1502853379 0.8581425997 -1.4314343025
H 4.0588959155 0.9150201454 1.7260801473
H 5.3304324847 -1.0658971075 1.3256925194
H 3.9789642163 2.4660419725 -0.653517707
H 6.3862756517 3.0459887636 -0.1295291834
H 5.8255221163 2.4326711889 1.4576489996
H 7.812298142 1.1509357077 -0.3675028929
H 7.2209565271 0.4685686704 1.1786103585
H 6.4748203379 -0.8035001373 -1.2346676277
O -2.5191048192 -2.0132566394 1.3446843527
C -1.9175925659 3.2480693791 -0.9674656592
C -5.9079120012 0.4352715631 -0.0300990543
C -6.8894149585 -0.3392116895 -0.9930877571
C -6.323101158 -1.803901773 -0.8744747114
C -5.1953395107 -1.6133829788 0.2149656867
O -5.7070731372 -0.5239169893 1.0799830239
H -4.6186682127 0.6174235988 -1.841192762
H -3.5962150744 -1.4429660764 -1.3682181286
H -1.5146469643 3.2235521391 0.0643710344
H -6.2728935079 1.4057941551 0.3585129719
H -7.923248698 -0.2766013877 -0.6169618572
H -6.8631955789 0.0488657001 -2.0238477825
H -7.0906620525 -2.5089623523 -0.5180932089
H -5.9151698904 -2.1786203703 -1.8269771884
H -4.952077665 -2.5092452253 0.8192801515
H -2.5642249055 4.1446589361 -1.0665926783
H -1.0861209152 3.3149146118 -1.6932151765
H 1.9215497444 -4.0377071256 0.8321946603
H 3.0263697422 -4.274134154 -0.581195464
H 1.7367714335 -3.0199945538 -0.6546681478
H 0.2513690054 1.4893917116 0.0047973182
H -0.1080581583 1.8693525667 1.7423133873
H -0.0503383998 -1.018211824 0.56379984
H -0.6875934572 -0.5370494066 2.1813602771
$end

$rem
JOBTYPE                   OPT
METHOD                    B3LYP
DFT_D                     d3_op
BASIS                     STO-3G
GEOM_OPT_MAX_CYCLES       100
GEOM_OPT_TOL_GRADIENT     300
GEOM_OPT_TOL_DISPLACEMENT 1200
GEOM_OPT_TOL_ENERGY       100
SYMMETRY                  False
THRESH                    12
SCF_CONVERGENCE           8
MAX_SUB_FILE_NUM          128
MEM_STATIC                400
MEM_TOTAL                 4000
$end
--------------------------------------------------------------

   16   -1510.2761650467      6.41E-09 Convergence criterion met
 Total energy in the final basis set = -1510.27616505
   14   -1510.2797749588      5.88E-09 Convergence criterion met
 Total energy in the final basis set = -1510.27977496
   14   -1510.2817315900      7.51E-09 Convergence criterion met
 Total energy in the final basis set = -1510.28173159
   14   -1510.2833111510      5.55E-09 Convergence criterion met
 Total energy in the final basis set = -1510.28331115
   13   -1510.2842873275      7.37E-09 Convergence criterion met
 Total energy in the final basis set = -1510.28428733
   14   -1510.2847763261      4.11E-09 Convergence criterion met
 Total energy in the final basis set = -1510.28477633
   14   -1510.2853237317      4.34E-09 Convergence criterion met
 Total energy in the final basis set = -1510.28532373
   13   -1510.2850453402      6.90E-09 Convergence criterion met
   12   -1510.2901809467      3.69E-09 Convergence criterion met
 Total energy in the final basis set = -1510.29018095
   12   -1510.2901996297      4.63E-09 Convergence criterion met
 Total energy in the final basis set = -1510.29019963
   11   -1510.2902011797      4.20E-09 Convergence criterion met
 Total energy in the final basis set = -1510.29020118
   11   -1510.2902064119      3.32E-09 Convergence criterion met
 Total energy in the final basis set = -1510.29020641
   11   -1510.2901968188      4.65E-09 Convergence criterion met
 Total energy in the final basis set = -1510.29019682
    9   -1510.2902004453      5.29E-09 Convergence criterion met
 Total energy in the final basis set = -1510.29020045

             Standard Nuclear Orientation (Angstroms)
    I     Atom           X                Y                Z
 ----------------------------------------------------------------
    1      O      -3.4346258000     1.5178008756     1.5114781433
    2      C      -3.7973496621     1.5695240539     0.3162142377
    3      C      -4.4794324241     0.4419282305    -0.5350279521
    4      C      -3.5376106374    -0.8093716244    -0.7987806091
    5      C      -2.1361417448    -0.6884632962    -0.1036332429
    6      O      -1.5619953924     0.5631337977    -0.4849878205
    7      C      -0.3182059418     0.8427038285     0.2745916914
    8      C       0.5600795186     1.8202927454    -0.5820627227
    9      O       1.9093860184     1.8852994295     0.0274815229
   10      C       2.7597940487     0.8858511385    -0.5613024023
   11      C       4.0660630637     0.8006944928     0.2880565419
   12      C       4.4029132023    -0.6800749547     0.7502275765
   13      C       3.4158812411    -1.7847775317     0.2189581389
   14      O       3.7222188364    -2.7764184373    -0.4766481524
   15      O      -3.6845326202     2.7383938237    -0.5073506154
   16      O       2.0892740490    -1.5216815964     0.6947113448
   17      O       2.4637623895     0.2214172014    -1.5781186423
   18      C       1.1730047524    -2.5914074611     0.2228101285
   19      C       5.3661032104     1.1437377978    -0.5646897190
   20      C       6.5511882323     1.4180072859     0.4439838915
   21      C       6.8893785143    -0.0437566947     0.9203968104
   22      C       5.8334045663    -0.8827595133     0.1004839566
   23      O       5.7252888829    -0.1497515014    -1.1836651114
   24      H       3.9580102288     1.4790108277     1.1520709939
   25      H       4.4337073247    -0.7431737162     1.8536682909
   26      H       5.2159763356     1.9192249883    -1.3406133724
   27      H       7.4025961390     1.8797444728    -0.0810135654
   28      H       6.2458416820     2.0771604706     1.2721915167
   29      H       7.9144635386    -0.3335836102     0.6396669494
   30      H       6.7700171902    -0.1750999149     2.0078356816
   31      H       6.0903486261    -1.9437835273    -0.0845140852
   32      O      -1.5962841448    -1.5297832446     0.6489538480
   33      C      -3.0275250154     3.8264936798     0.2515019513
   34      C      -5.6720641879    -0.2565351274     0.2521195518
   35      C      -6.5479140571    -1.0607560640    -0.7882014453
   36      C      -5.6142112952    -2.2944781404    -1.0817926217
   37      C      -4.3852886662    -1.9763163074    -0.1449071930
   38      O      -5.0000996270    -1.3196246533     1.0323886048
   39      H      -4.8194384467     0.8901756329    -1.4847581229
   40      H      -3.3797024023    -0.9631009336    -1.8825229284
   41      H      -1.9982793887     3.5459984291     0.5548061416
   42      H      -6.2356749100     0.4185690578     0.9247677453
   43      H      -7.4976340588    -1.3751822435    -0.3270396668
   44      H      -6.7716739181    -0.4697648944    -1.6908988002
   45      H      -6.0903067909    -3.2416789497    -0.7827435097
   46      H      -5.3218500595    -2.3652112511    -2.1416310835
   47      H      -3.7770848631    -2.8460267176     0.1715117637
   48      H      -3.5998159765     4.0942450873     1.1631096171
   49      H      -2.9876673844     4.6956776036    -0.4303948483
   50      H       0.1447943683    -2.2637555267     0.4927334286
   51      H       1.4062912534    -3.5585095338     0.7117968467
   52      H       1.2518639288    -2.7247445246    -0.8745789658
   53      H       0.6291249302     1.4374281084    -1.6231094248
   54      H       0.1442460930     2.8473288178    -0.5795362063
   55      H       0.2572080620    -0.0877546198     0.4668078101
   56      H      -0.5821241876     1.2997276365     1.2532167684
 ----------------------------------------------------------------

    9   -1510.2902012950      2.31E-09 Convergence criterion met
 Total energy in the final basis set = -1510.29020129
 Final energy is   -1510.29020129499
 **  OPTIMIZATION CONVERGED  **

                    Orbital Energies (a.u.)
 --------------------------------------------------------------

 Alpha MOs
 -- Occupied --
-18.945 -18.935 -18.934 -18.925 -18.893 -18.889 -18.887 -18.878
-18.870 -18.870 -10.114 -10.102 -10.099 -10.093 -10.075 -10.073
-10.066 -10.062 -10.061 -10.061 -10.056 -10.044 -10.041 -10.039
-10.038 -10.036 -10.022 -10.021 -10.020 -10.019  -1.024  -1.015
 -1.008  -1.003  -0.972  -0.969  -0.950  -0.939  -0.934  -0.928
 -0.767  -0.762  -0.730  -0.723  -0.712  -0.707  -0.698  -0.665
 -0.651  -0.619  -0.599  -0.583  -0.549  -0.544  -0.540  -0.536
 -0.515  -0.509  -0.484  -0.477  -0.462  -0.460  -0.457  -0.450
 -0.440  -0.432  -0.430  -0.417  -0.413  -0.409  -0.402  -0.402
 -0.397  -0.387  -0.372  -0.368  -0.362  -0.359  -0.357  -0.351
 -0.346  -0.337  -0.335  -0.333  -0.331  -0.327  -0.325  -0.313
 -0.309  -0.308  -0.303  -0.302  -0.295  -0.288  -0.282  -0.277
 -0.272  -0.259  -0.255  -0.253  -0.245  -0.236  -0.233  -0.188
 -0.178  -0.176  -0.170  -0.167  -0.159  -0.151  -0.147  -0.146
 -0.143

          Ground-State Mulliken Net Atomic Charges

     Atom                 Charge (a.u.)
  ----------------------------------------
      1 O                    -0.219099
      2 C                     0.210647
      3 C                    -0.079549
      4 C                    -0.077613
      5 C                     0.222881
      6 O                    -0.171906
      7 C                    -0.055225
      8 C                    -0.051807
      9 O                    -0.172681
     10 C                     0.211390
     11 C                    -0.079844
     12 C                    -0.078739
     13 C                     0.211606
     14 O                    -0.209293
     15 O                    -0.169209
     16 O                    -0.179276
     17 O                    -0.211045
     18 C                    -0.145054
     19 C                     0.025966
     20 C                    -0.143523
     21 C                    -0.144372
     22 C                     0.024753
     23 O                    -0.186227
     24 H                     0.086718
     25 H                     0.084508
     26 H                     0.082751
     27 H                     0.078035
     28 H                     0.073469
     29 H                     0.078422
     30 H                     0.073267
     31 H                     0.091741
     32 O                    -0.207555
     33 C                    -0.128274
     34 C                     0.025609
     35 C                    -0.143613
     36 C                    -0.144219
     37 C                     0.024491
     38 O                    -0.186417
     39 H                     0.086836
     40 H                     0.087417
     41 H                     0.084529
     42 H                     0.084217
     43 H                     0.078673
     44 H                     0.073901
     45 H                     0.079096
     46 H                     0.073644
     47 H                     0.090634
     48 H                     0.089279
     49 H                     0.089679
     50 H                     0.107588
     51 H                     0.081626
     52 H                     0.086984
     53 H                     0.101747
     54 H                     0.086913
     55 H                     0.105385
     56 H                     0.090137
  ----------------------------------------
  Sum of atomic charges =     0.000000

                    Cartesian Multipole Moments
 -----------------------------------------------------------------
    Charge (ESU x 10^10)
                 0.0000
    Dipole Moment (Debye)
         X      -1.2417      Y       2.5213      Z      -0.0728
       Tot       2.8114
    Quadrupole Moments (Debye-Ang)
        XX    -147.6493     XY       6.7381     YY    -155.0625
        XZ      20.9200     YZ       0.3076     ZZ    -166.3379

 Total job time:  79.37s(wall), 3778.64s(cpu)
        *  Thank you very much for using Q-Chem.  Have a nice day.  *
