 Q-Chem 5.0, Q-Chem, Inc., Pleasanton, CA (2017)
 Q-Chem 5.0.1 for Intel X86 EM64T Linux

User input:
--------------------------------------------------------------
$molecule
0  1
O -3.94934 -3.66094 2.70899
C -3.26408 -4.56952 2.26188
C -3.36658 -6.02376 2.66595
C -2.27205 -6.57364 3.59519
C -1.29676 -5.56443 4.15948
O -1.06151 -4.58222 3.24005
C 0.13345 -3.83916 3.50309
C 0.29159 -2.71881 2.48037
O 1.5818 -2.10417 2.62335
C 2.59594 -2.71695 1.96369
C 3.79469 -1.82036 1.76417
C 5.14503 -2.4543 2.12885
C 5.14568 -3.96126 2.28937
O 5.42352 -4.76728 1.41318
O -2.51292 -4.32356 1.15281
O 4.67121 -4.42318 3.47603
O 2.48377 -3.80183 1.40309
C 4.52092 -5.75814 3.78715
C 4.02791 -1.45188 0.28623
C 4.82156 -0.14938 0.20266
C 6.17524 -0.61475 0.69816
C 5.91406 -2.12093 0.8289
O 4.96289 -2.39377 -0.17086
H 3.6182 -0.87763 2.33243
H 5.64769 -2.00942 3.01556
H 3.08643 -1.37046 -0.30024
H 4.90599 0.10661 -0.87808
H 4.38913 0.71624 0.74908
H 6.92811 -0.40663 -0.09417
H 6.50483 -0.17662 1.66509
H 6.87166 -2.68282 0.75376
O -0.5502 -5.81678 5.09934
C -2.53637 -3.13711 0.44777
C -4.6118 -6.26733 3.55077
C -5.01086 -7.7424 3.51038
C -3.90806 -8.35202 4.34472
C -3.14593 -7.08951 4.75681
O -4.14417 -6.10783 4.8646
H -3.50091 -6.61519 1.73248
H -1.67367 -7.39606 3.14504
H -2.25778 -2.28685 1.1032
H -5.48525 -5.64115 3.26381
H -5.97089 -7.84459 4.0656
H -5.12885 -8.16855 2.49091
H -4.3672 -8.8296 5.23906
H -3.25823 -9.08266 3.81619
H -2.56208 -7.29026 5.68209
H -3.55263 -2.96196 0.03487
H -1.81559 -3.19821 -0.39314
H 4.11707 -5.84827 4.81634
H 5.50331 -6.27493 3.74068
H 3.80926 -6.23739 3.08122
H 0.14518 -3.09641 1.44326
H -0.49632 -1.96029 2.66896
H 1.00194 -4.53039 3.42055
H 0.12155 -3.38893 4.52191
$end

$opt
CONSTRAINT
tors           1           2           3           4    -104.309
tors           3           4           5           6     -34.607
tors           4           5           6           7    -161.377
tors           5           6           7           8    -177.110
tors           6           7           8           9    -171.494
tors           7           8           9          10     +84.950
tors           8           9          10          11    +161.053
tors           9          10          11          12    +132.512
tors          11          12          13          14     +93.833
ENDCONSTRAINT
$end

$rem
JOBTYPE                   OPT
METHOD                    B3LYP
DFT_D                     d3_op
BASIS                     STO-3G
GEOM_OPT_MAX_CYCLES       100
GEOM_OPT_TOL_GRADIENT     300
GEOM_OPT_TOL_DISPLACEMENT 1200
GEOM_OPT_TOL_ENERGY       100
SYMMETRY                  False
THRESH                    12
SCF_CONVERGENCE           8
MAX_SUB_FILE_NUM          128
MEM_STATIC                400
MEM_TOTAL                 4000
$end
--------------------------------------------------------------

   15   -1510.1471466179      6.43E-09 Convergence criterion met
 Total energy in the final basis set = -1510.14714662
   14   -1510.2160013239      6.35E-09 Convergence criterion met
 Total energy in the final basis set = -1510.21600132
   14   -1510.2501059493      9.17E-09 Convergence criterion met
 Total energy in the final basis set = -1510.25010595
    2   -1510.2501059491      3.06E-09 Convergence criterion met
 Total energy in the final basis set = -1510.25010595
   15   -1510.2652972418      1.84E-09 Convergence criterion met
 Total energy in the final basis set = -1510.26529724
   13   -1510.2720482181      8.55E-09 Convergence criterion met
 Total energy in the final basis set = -1510.27204822
   13   -1510.2748150833      3.74E-09 Convergence criterion met
 Total energy in the final basis set = -1510.27481508
   12   -1510.2755482413      9.15E-09 Convergence criterion met
   12   -1510.2760969918      2.16E-09 Convergence criterion met
 Total energy in the final basis set = -1510.27609699
   11   -1510.2761173748      5.40E-09 Convergence criterion met
 Total energy in the final basis set = -1510.27611737
   11   -1510.2761217802      2.89E-09 Convergence criterion met
 Total energy in the final basis set = -1510.27612178
    9   -1510.2761274853      9.56E-09 Convergence criterion met
 Total energy in the final basis set = -1510.27612749
    9   -1510.2761322801      6.96E-09 Convergence criterion met
 Total energy in the final basis set = -1510.27613228
    9   -1510.2761346291      5.42E-09 Convergence criterion met
 Total energy in the final basis set = -1510.27613463

             Standard Nuclear Orientation (Angstroms)
    I     Atom           X                Y                Z
 ----------------------------------------------------------------
    1      O      -3.8486322379     2.4900124677     0.6941450314
    2      C      -3.6363002940     1.7421796658    -0.2843594366
    3      C      -4.4917333684     0.5112201157    -0.7485121787
    4      C      -3.9198749380    -0.9359649963    -0.4398756966
    5      C      -2.7376488124    -1.0368864776     0.5947266941
    6      O      -1.8725439434     0.0984407074     0.4988610530
    7      C      -0.5622860384    -0.2080264993     1.1273752520
    8      C       0.2927867714     1.1055602112     1.0459133363
    9      O       1.6963152618     0.8647545326     1.4607250785
   10      C       2.4693610342     0.3789479236     0.3509465904
   11      C       3.9825625670     0.5979113103     0.6711884249
   12      C       4.8884433317    -0.6770427845     0.3912887153
   13      C       4.0957795296    -1.8233090358    -0.3332308337
   14      O       4.0203248626    -2.0455865223    -1.5593593602
   15      O      -2.6572673730     2.0105244690    -1.2996185970
   16      O       3.3635823117    -2.5488045365     0.6648701821
   17      O       1.9667400582    -0.0748345203    -0.7002982476
   18      C       2.4624960361    -3.5273416986     0.0140453635
   19      C       4.6585353176     1.6675415450    -0.2973141295
   20      C       5.9837926167     2.1677376925     0.4001278389
   21      C       6.9109454486     0.9090832174     0.2175537639
   22      C       5.9631172996    -0.0582242425    -0.5957451167
   23      O       5.1502853379     0.8581425997    -1.4314343025
   24      H       4.0588959155     0.9150201454     1.7260801473
   25      H       5.3304324847    -1.0658971075     1.3256925194
   26      H       3.9789642163     2.4660419725    -0.6535177070
   27      H       6.3862756517     3.0459887636    -0.1295291834
   28      H       5.8255221163     2.4326711889     1.4576489996
   29      H       7.8122981420     1.1509357077    -0.3675028929
   30      H       7.2209565271     0.4685686704     1.1786103585
   31      H       6.4748203379    -0.8035001373    -1.2346676277
   32      O      -2.5191048192    -2.0132566394     1.3446843527
   33      C      -1.9175925659     3.2480693791    -0.9674656592
   34      C      -5.9079120012     0.4352715631    -0.0300990543
   35      C      -6.8894149585    -0.3392116895    -0.9930877571
   36      C      -6.3231011580    -1.8039017730    -0.8744747114
   37      C      -5.1953395107    -1.6133829788     0.2149656867
   38      O      -5.7070731372    -0.5239169893     1.0799830239
   39      H      -4.6186682127     0.6174235988    -1.8411927620
   40      H      -3.5962150744    -1.4429660764    -1.3682181286
   41      H      -1.5146469643     3.2235521391     0.0643710344
   42      H      -6.2728935079     1.4057941551     0.3585129719
   43      H      -7.9232486980    -0.2766013877    -0.6169618572
   44      H      -6.8631955789     0.0488657001    -2.0238477825
   45      H      -7.0906620525    -2.5089623523    -0.5180932089
   46      H      -5.9151698904    -2.1786203703    -1.8269771884
   47      H      -4.9520776650    -2.5092452253     0.8192801515
   48      H      -2.5642249055     4.1446589361    -1.0665926783
   49      H      -1.0861209152     3.3149146118    -1.6932151765
   50      H       1.9215497444    -4.0377071256     0.8321946603
   51      H       3.0263697422    -4.2741341540    -0.5811954640
   52      H       1.7367714335    -3.0199945538    -0.6546681478
   53      H       0.2513690054     1.4893917116     0.0047973182
   54      H      -0.1080581583     1.8693525667     1.7423133873
   55      H      -0.0503383998    -1.0182118240     0.5637998400
   56      H      -0.6875934572    -0.5370494066     2.1813602771
 ----------------------------------------------------------------

    9   -1510.2761360647      7.98E-09 Convergence criterion met
 Total energy in the final basis set = -1510.27613606
 Final energy is   -1510.27613606470
 **  OPTIMIZATION CONVERGED  **

                    Orbital Energies (a.u.)
 --------------------------------------------------------------

 Alpha MOs
 -- Occupied --
-18.939 -18.939 -18.929 -18.928 -18.891 -18.884 -18.883 -18.879
-18.874 -18.868 -10.106 -10.103 -10.096 -10.095 -10.080 -10.075
-10.065 -10.062 -10.060 -10.060 -10.057 -10.056 -10.042 -10.040
-10.038 -10.035 -10.023 -10.022 -10.019 -10.018  -1.020  -1.016
 -1.006  -1.004  -0.973  -0.968  -0.945  -0.939  -0.932  -0.930
 -0.766  -0.762  -0.730  -0.723  -0.714  -0.704  -0.700  -0.661
 -0.660  -0.618  -0.598  -0.587  -0.549  -0.544  -0.540  -0.537
 -0.516  -0.509  -0.488  -0.472  -0.465  -0.457  -0.454  -0.448
 -0.440  -0.432  -0.429  -0.413  -0.411  -0.410  -0.408  -0.402
 -0.392  -0.391  -0.375  -0.369  -0.363  -0.357  -0.353  -0.351
 -0.346  -0.342  -0.335  -0.334  -0.331  -0.329  -0.326  -0.312
 -0.310  -0.308  -0.306  -0.298  -0.295  -0.290  -0.282  -0.276
 -0.271  -0.259  -0.251  -0.250  -0.246  -0.237  -0.232  -0.184
 -0.182  -0.175  -0.170  -0.160  -0.159  -0.149  -0.147  -0.146
 -0.143

          Ground-State Mulliken Net Atomic Charges

     Atom                 Charge (a.u.)
  ----------------------------------------
      1 O                    -0.217106
      2 C                     0.215344
      3 C                    -0.081294
      4 C                    -0.076204
      5 C                     0.213192
      6 O                    -0.172235
      7 C                    -0.047564
      8 C                    -0.048332
      9 O                    -0.172172
     10 C                     0.207894
     11 C                    -0.079584
     12 C                    -0.078734
     13 C                     0.209980
     14 O                    -0.203528
     15 O                    -0.169867
     16 O                    -0.174951
     17 O                    -0.209211
     18 C                    -0.129806
     19 C                     0.026443
     20 C                    -0.142884
     21 C                    -0.144710
     22 C                     0.025988
     23 O                    -0.183698
     24 H                     0.087524
     25 H                     0.085741
     26 H                     0.082604
     27 H                     0.078761
     28 H                     0.074366
     29 H                     0.078741
     30 H                     0.073902
     31 H                     0.087864
     32 O                    -0.211216
     33 C                    -0.128662
     34 C                     0.024048
     35 C                    -0.142898
     36 C                    -0.145196
     37 C                     0.023652
     38 O                    -0.190457
     39 H                     0.084657
     40 H                     0.086911
     41 H                     0.087819
     42 H                     0.088008
     43 H                     0.077865
     44 H                     0.072887
     45 H                     0.078338
     46 H                     0.073081
     47 H                     0.089850
     48 H                     0.085237
     49 H                     0.088023
     50 H                     0.089734
     51 H                     0.088564
     52 H                     0.090946
     53 H                     0.095316
     54 H                     0.091721
     55 H                     0.091683
     56 H                     0.093624
  ----------------------------------------
  Sum of atomic charges =     0.000000

                    Cartesian Multipole Moments
 -----------------------------------------------------------------
    Charge (ESU x 10^10)
                 0.0000
    Dipole Moment (Debye)
         X       1.0956      Y       0.7916      Z      -0.0445
       Tot       1.3524
    Quadrupole Moments (Debye-Ang)
        XX    -148.4760     XY       5.7482     YY    -153.2053
        XZ      22.7970     YZ      -0.2801     ZZ    -169.0660

 Total job time:  49.85s(wall), 2369.23s(cpu)
        *  Thank you very much for using Q-Chem.  Have a nice day.  *
