 Q-Chem 5.0, Q-Chem, Inc., Pleasanton, CA (2017)
 Q-Chem 5.0.1 for Intel X86 EM64T Linux

User input:
--------------------------------------------------------------
$molecule
0  1
O -3.94934 -3.66094 2.70899
C -3.26408 -4.56952 2.26188
C -3.36658 -6.02376 2.66595
C -3.66375 -6.32292 4.14448
C -4.00113 -5.13519 5.0183
O -2.91044 -4.32172 5.13694
C -3.10811 -3.2459 6.06041
C -1.85693 -2.37653 6.13022
O -2.03543 -1.33956 7.10784
C -2.28955 -1.76559 8.37001
C -1.78091 -0.81333 9.42601
C -2.80415 -0.44108 10.50891
C -4.03321 -1.32416 10.58819
O -4.41945 -1.9133 11.58733
O -2.22703 -4.25608 1.44149
O -4.83351 -1.32759 9.4885
O -2.49918 -2.91987 8.71295
C -6.00935 -2.03996 9.38107
C -0.64049 -1.37715 10.30043
C 0.18345 -0.22411 10.87009
C -0.80554 0.37012 11.85375
C -1.93748 -0.66227 11.76398
O -1.2808 -1.86817 11.45371
H -1.40216 0.0984 8.9073
H -3.16939 0.60279 10.39093
H 0.016 -2.09342 9.7596
H 1.02119 -0.6849 11.44161
H 0.60061 0.4905 10.12839
H -0.33709 0.37162 12.86284
H -1.17409 1.38781 11.60021
H -2.53577 -0.65717 12.70136
O -5.08558 -4.94076 5.55908
C -1.93102 -2.97756 1.0172
C -4.61077 -6.66936 2.01532
C -4.42298 -8.18231 1.91892
C -4.54739 -8.57232 3.37549
C -4.91006 -7.21631 3.99237
O -5.62662 -6.55647 2.9804
H -2.46929 -6.55607 2.27551
H -2.82778 -6.86288 4.6421
H -1.70738 -2.32682 1.88969
H -4.84582 -6.253 1.0106
H -5.30478 -8.58264 1.36857
H -3.49341 -8.5214 1.41324
H -5.39016 -9.29195 3.47543
H -3.62771 -8.99557 3.83449
H -5.44713 -7.36924 4.95436
H -2.78513 -2.55757 0.44402
H -1.03953 -3.0102 0.35792
H -6.45123 -1.86243 8.37921
H -6.73217 -1.70661 10.15605
H -5.80846 -3.1267 9.49529
H -0.98148 -3.00393 6.41024
H -1.65737 -1.9205 5.13735
H -3.44767 -3.71984 6.98853
H -3.94314 -2.59604 5.71217
$end

$opt
CONSTRAINT
tors           1           2           3           4     -36.934
tors           3           4           5           6     -66.316
tors           4           5           6           7    -173.968
tors           5           6           7           8    -179.495
tors           6           7           8           9    -177.068
tors           7           8           9          10     +59.037
tors           8           9          10          11    +150.239
tors           9          10          11          12    +130.354
tors          11          12          13          14    +124.682
ENDCONSTRAINT
$end

$rem
JOBTYPE                   OPT
METHOD                    B3LYP
DFT_D                     d3_op
BASIS                     STO-3G
GEOM_OPT_MAX_CYCLES       100
GEOM_OPT_TOL_GRADIENT     300
GEOM_OPT_TOL_DISPLACEMENT 1200
GEOM_OPT_TOL_ENERGY       100
SYMMETRY                  False
THRESH                    12
SCF_CONVERGENCE           8
MAX_SUB_FILE_NUM          128
MEM_STATIC                400
MEM_TOTAL                 4000
$end
--------------------------------------------------------------

   15   -1510.1426244651      6.79E-09 Convergence criterion met
 Total energy in the final basis set = -1510.14262447
   13   -1510.2132799170      9.23E-09 Convergence criterion met
 Total energy in the final basis set = -1510.21327992
   13   -1510.2513381300      8.77E-09 Convergence criterion met
 Total energy in the final basis set = -1510.25133813
   13   -1510.2681960380      8.74E-09 Convergence criterion met
 Total energy in the final basis set = -1510.26819604
   14   -1510.2734971482      3.16E-09 Convergence criterion met
 Total energy in the final basis set = -1510.27349715
   13   -1510.2756774528      3.44E-09 Convergence criterion met
 Total energy in the final basis set = -1510.27567745
   13   -1510.2767566380      1.94E-09 Convergence criterion met
 Total energy in the final basis set = -1510.27675664
   13   -1510.2775815967      3.09E-09 Convergence criterion met
   11   -1510.2788926691      4.15E-09 Convergence criterion met
 Total energy in the final basis set = -1510.27889267
    9   -1510.2789065750      5.71E-09 Convergence criterion met
 Total energy in the final basis set = -1510.27890657
    9   -1510.2789146408      4.78E-09 Convergence criterion met
 Total energy in the final basis set = -1510.27891464
    9   -1510.2789174395      3.71E-09 Convergence criterion met
 Total energy in the final basis set = -1510.27891744
    9   -1510.2789187727      3.31E-09 Convergence criterion met
 Total energy in the final basis set = -1510.27891877
    9   -1510.2789202653      2.50E-09 Convergence criterion met
 Total energy in the final basis set = -1510.27892027

             Standard Nuclear Orientation (Angstroms)
    I     Atom           X                Y                Z
 ----------------------------------------------------------------
    1      O      -3.5971644333     0.6319475863     1.6989208057
    2      C      -4.1897813406     1.1716730099     0.7384403933
    3      C      -4.7319452027     0.4740847160    -0.5529969874
    4      C      -3.7888087995    -0.6922017472    -1.0672780770
    5      C      -2.4847319049    -0.8770163184    -0.2092293050
    6      O      -1.6822865750     0.2975835556    -0.3866100602
    7      C      -0.3700065235     0.1261997247     0.2817647904
    8      C       0.4059299291     1.4700084398     0.0308242849
    9      O       1.7921116476     1.4988278133     0.5613967206
   10      C       2.6284841947     0.4681099129     0.0096348220
   11      C       4.1045823384     0.9994359833    -0.0095717267
   12      C       5.1430118623    -0.0176932009     0.6235223115
   13      C       4.4521030573    -1.3123598238     1.1830648343
   14      O       4.7048836558    -2.4995870519     0.8928677584
   15      O      -4.5202936506     2.5633862811     0.6797962508
   16      O       3.4406496360    -0.8982356170     2.1126953125
   17      O       2.2337688140    -0.6165960834    -0.4759731577
   18      C       2.6291506058    -2.0625270999     2.5352466938
   19      C       4.6454352325     1.0722038134    -1.5041778923
   20      C       5.9800410456     1.9184541034    -1.5097226799
   21      C       7.0000936734     0.8857219101    -0.9005199215
   22      C       6.0551629502    -0.3488627876    -0.6277202466
   23      O       5.1035927361    -0.3098540704    -1.7644590563
   24      H       4.1293814916     1.9822107024     0.4917266385
   25      H       5.7159168336     0.4608745038     1.4387410666
   26      H       3.8898294584     1.3778103678    -2.2539077017
   27      H       6.2527467452     2.1957234792    -2.5404756098
   28      H       5.8927401681     2.8378423336    -0.9086899257
   29      H       7.7828234129     0.6164729614    -1.6274411705
   30      H       7.4823182520     1.2543466786     0.0189116625
   31      H       6.5491918833    -1.3384609384    -0.5739719403
   32      O      -2.1376852610    -1.8805516030     0.4468610495
   33      C      -4.0521898436     3.2440707974     1.9097258055
   34      C      -6.0634743229    -0.3431436204    -0.2435031756
   35      C      -6.7405012001    -0.7254701172    -1.6186966075
   36      C      -5.8045536990    -1.8941620711    -2.1047658283
   37      C      -4.7494983831    -1.9456193472    -0.9317509239
   38      O      -5.5560705225    -1.6328467770     0.2719807426
   39      H      -4.9001179976     1.2428549043    -1.3269844652
   40      H      -3.4879981066    -0.5143667516    -2.1157818446
   41      H      -2.9535962764     3.1521860790     2.0321215380
   42      H      -6.7351183558     0.1354755492     0.4954926884
   43      H      -7.7725504751    -1.0743947116    -1.4554982394
   44      H      -6.7611750637     0.1241143789    -2.3199432159
   45      H      -6.3525413086    -2.8474865748    -2.1719851536
   46      H      -5.3347217338    -1.6873877907    -3.0794843430
   47      H      -4.2169165217    -2.9072830251    -0.7983851775
   48      H      -4.5413206969     2.8321540753     2.8161082213
   49      H      -4.3249216481     4.3089501519     1.7929121871
   50      H       1.9463899860    -1.6934149377     3.3223854837
   51      H       3.2611544754    -2.8791732838     2.9385048163
   52      H       2.0346972536    -2.4581697193     1.6856070121
   53      H       0.4188316782     1.6674612480    -1.0642611479
   54      H      -0.1140705069     2.3115228132     0.5321410294
   55      H       0.2204356827    -0.7063638684    -0.1590519353
   56      H      -0.4967712286    -0.0595260182     1.3701064317
 ----------------------------------------------------------------

    9   -1510.2789207741      2.64E-09 Convergence criterion met
 Total energy in the final basis set = -1510.27892077
 Final energy is   -1510.27892077407
 **  OPTIMIZATION CONVERGED  **

                    Orbital Energies (a.u.)
 --------------------------------------------------------------

 Alpha MOs
 -- Occupied --
-18.937 -18.932 -18.931 -18.923 -18.888 -18.886 -18.880 -18.877
-18.875 -18.869 -10.105 -10.099 -10.098 -10.094 -10.075 -10.066
-10.063 -10.060 -10.059 -10.059 -10.058 -10.055 -10.038 -10.037
-10.037 -10.034 -10.022 -10.020 -10.020 -10.018  -1.014  -1.013
 -1.006  -1.002  -0.971  -0.969  -0.941  -0.936  -0.935  -0.929
 -0.764  -0.761  -0.727  -0.722  -0.712  -0.705  -0.695  -0.665
 -0.658  -0.614  -0.596  -0.582  -0.546  -0.544  -0.538  -0.536
 -0.512  -0.509  -0.481  -0.471  -0.461  -0.455  -0.452  -0.450
 -0.439  -0.430  -0.428  -0.414  -0.411  -0.409  -0.409  -0.396
 -0.384  -0.380  -0.375  -0.366  -0.364  -0.358  -0.353  -0.349
 -0.347  -0.341  -0.335  -0.332  -0.330  -0.327  -0.325  -0.311
 -0.309  -0.306  -0.303  -0.294  -0.293  -0.287  -0.281  -0.273
 -0.272  -0.256  -0.253  -0.251  -0.244  -0.235  -0.233  -0.180
 -0.178  -0.174  -0.172  -0.155  -0.155  -0.148  -0.146  -0.144
 -0.142

          Ground-State Mulliken Net Atomic Charges

     Atom                 Charge (a.u.)
  ----------------------------------------
      1 O                    -0.211484
      2 C                     0.211036
      3 C                    -0.078957
      4 C                    -0.079422
      5 C                     0.215903
      6 O                    -0.182336
      7 C                    -0.058986
      8 C                    -0.047101
      9 O                    -0.173858
     10 C                     0.216334
     11 C                    -0.078519
     12 C                    -0.079163
     13 C                     0.214325
     14 O                    -0.205884
     15 O                    -0.169562
     16 O                    -0.173832
     17 O                    -0.210902
     18 C                    -0.129735
     19 C                     0.025592
     20 C                    -0.143724
     21 C                    -0.143855
     22 C                     0.024388
     23 O                    -0.185987
     24 H                     0.086839
     25 H                     0.084899
     26 H                     0.081509
     27 H                     0.078252
     28 H                     0.073826
     29 H                     0.078643
     30 H                     0.073478
     31 H                     0.091207
     32 O                    -0.208448
     33 C                    -0.128510
     34 C                     0.025698
     35 C                    -0.143719
     36 C                    -0.143999
     37 C                     0.024872
     38 O                    -0.186903
     39 H                     0.085943
     40 H                     0.083851
     41 H                     0.088417
     42 H                     0.082214
     43 H                     0.078039
     44 H                     0.073522
     45 H                     0.078290
     46 H                     0.073221
     47 H                     0.090824
     48 H                     0.089711
     49 H                     0.090402
     50 H                     0.090986
     51 H                     0.091028
     52 H                     0.094121
     53 H                     0.083313
     54 H                     0.089489
     55 H                     0.106328
     56 H                     0.088384
  ----------------------------------------
  Sum of atomic charges =     0.000000

                    Cartesian Multipole Moments
 -----------------------------------------------------------------
    Charge (ESU x 10^10)
                 0.0000
    Dipole Moment (Debye)
         X      -0.1666      Y       4.2638      Z      -0.7802
       Tot       4.3378
    Quadrupole Moments (Debye-Ang)
        XX    -144.1033     XY       4.3698     YY    -161.1067
        XZ      11.3214     YZ       1.8811     ZZ    -156.6300

 Total job time:  54.98s(wall), 2609.85s(cpu)
        *  Thank you very much for using Q-Chem.  Have a nice day.  *
