 Q-Chem 5.0, Q-Chem, Inc., Pleasanton, CA (2017)
 Q-Chem 5.0.1 for Intel X86 EM64T Linux

User input:
--------------------------------------------------------------
$molecule
0  1
O -3.5971644333 0.6319475863 1.6989208057
C -4.1897813406 1.1716730099 0.7384403933
C -4.7319452027 0.474084716 -0.5529969874
C -3.7888087995 -0.6922017472 -1.067278077
C -2.4847319049 -0.8770163184 -0.209229305
O -1.682286575 0.2975835556 -0.3866100602
C -0.3700065235 0.1261997247 0.2817647904
C 0.4059299291 1.4700084398 0.0308242849
O 1.7921116476 1.4988278133 0.5613967206
C 2.6284841947 0.4681099129 0.009634822
C 4.1045823384 0.9994359833 -0.0095717267
C 5.1430118623 -0.0176932009 0.6235223115
C 4.4521030573 -1.3123598238 1.1830648343
O 4.7048836558 -2.4995870519 0.8928677584
O -4.5202936506 2.5633862811 0.6797962508
O 3.440649636 -0.898235617 2.1126953125
O 2.233768814 -0.6165960834 -0.4759731577
C 2.6291506058 -2.0625270999 2.5352466938
C 4.6454352325 1.0722038134 -1.5041778923
C 5.9800410456 1.9184541034 -1.5097226799
C 7.0000936734 0.8857219101 -0.9005199215
C 6.0551629502 -0.3488627876 -0.6277202466
O 5.1035927361 -0.3098540704 -1.7644590563
H 4.1293814916 1.9822107024 0.4917266385
H 5.7159168336 0.4608745038 1.4387410666
H 3.8898294584 1.3778103678 -2.2539077017
H 6.2527467452 2.1957234792 -2.5404756098
H 5.8927401681 2.8378423336 -0.9086899257
H 7.7828234129 0.6164729614 -1.6274411705
H 7.482318252 1.2543466786 0.0189116625
H 6.5491918833 -1.3384609384 -0.5739719403
O -2.137685261 -1.880551603 0.4468610495
C -4.0521898436 3.2440707974 1.9097258055
C -6.0634743229 -0.3431436204 -0.2435031756
C -6.7405012001 -0.7254701172 -1.6186966075
C -5.804553699 -1.8941620711 -2.1047658283
C -4.7494983831 -1.9456193472 -0.9317509239
O -5.5560705225 -1.632846777 0.2719807426
H -4.9001179976 1.2428549043 -1.3269844652
H -3.4879981066 -0.5143667516 -2.1157818446
H -2.9535962764 3.152186079 2.032121538
H -6.7351183558 0.1354755492 0.4954926884
H -7.7725504751 -1.0743947116 -1.4554982394
H -6.7611750637 0.1241143789 -2.3199432159
H -6.3525413086 -2.8474865748 -2.1719851536
H -5.3347217338 -1.6873877907 -3.079484343
H -4.2169165217 -2.9072830251 -0.7983851775
H -4.5413206969 2.8321540753 2.8161082213
H -4.3249216481 4.3089501519 1.7929121871
H 1.946389986 -1.6934149377 3.3223854837
H 3.2611544754 -2.8791732838 2.9385048163
H 2.0346972536 -2.4581697193 1.6856070121
H 0.4188316782 1.667461248 -1.0642611479
H -0.1140705069 2.3115228132 0.5321410294
H 0.2204356827 -0.7063638684 -0.1590519353
H -0.4967712286 -0.0595260182 1.3701064317
$end

$rem
JOBTYPE                   OPT
METHOD                    B3LYP
DFT_D                     d3_op
BASIS                     STO-3G
GEOM_OPT_MAX_CYCLES       100
GEOM_OPT_TOL_GRADIENT     300
GEOM_OPT_TOL_DISPLACEMENT 1200
GEOM_OPT_TOL_ENERGY       100
SYMMETRY                  False
THRESH                    12
SCF_CONVERGENCE           8
MAX_SUB_FILE_NUM          128
MEM_STATIC                400
MEM_TOTAL                 4000
$end
--------------------------------------------------------------

   16   -1510.2790067220      4.81E-09 Convergence criterion met
 Total energy in the final basis set = -1510.27900672
   14   -1510.2828034567      7.35E-09 Convergence criterion met
 Total energy in the final basis set = -1510.28280346
   14   -1510.2855849608      2.76E-09 Convergence criterion met
 Total energy in the final basis set = -1510.28558496
   14   -1510.2866648839      7.76E-09 Convergence criterion met
 Total energy in the final basis set = -1510.28666488
   14   -1510.2871499848      3.28E-09 Convergence criterion met
 Total energy in the final basis set = -1510.28714998
   13   -1510.2875541963      8.56E-09 Convergence criterion met
 Total energy in the final basis set = -1510.28755420
   14   -1510.2872454954      2.39E-09 Convergence criterion met
 Total energy in the final basis set = -1510.28724550
   13   -1510.2875861854      7.96E-09 Convergence criterion met
   13   -1510.2914284752      6.46E-09 Convergence criterion met
 Total energy in the final basis set = -1510.29142848
   13   -1510.2916416195      3.90E-09 Convergence criterion met
 Total energy in the final basis set = -1510.29164162
   11   -1510.2916477588      7.74E-09 Convergence criterion met
 Total energy in the final basis set = -1510.29164776
   11   -1510.2916551901      4.11E-09 Convergence criterion met
 Total energy in the final basis set = -1510.29165519
   10   -1510.2916625129      7.18E-09 Convergence criterion met
 Total energy in the final basis set = -1510.29166251
    9   -1510.2916563769      6.62E-09 Convergence criterion met
 Total energy in the final basis set = -1510.29165638

             Standard Nuclear Orientation (Angstroms)
    I     Atom           X                Y                Z
 ----------------------------------------------------------------
    1      O      -3.0853133718     1.8059714607     1.1648893390
    2      C      -4.1551191976     1.6362380184     0.5357375935
    3      C      -4.5456119760     0.4004310087    -0.3415432802
    4      C      -3.3553961181    -0.6282512432    -0.4990147367
    5      C      -2.0022894406    -0.1744803123     0.1656733155
    6      O      -1.3683460480     0.7584671532    -0.7140563391
    7      C      -0.1134444402     1.2688786322    -0.1093998745
    8      C       0.6728561224     2.0291368727    -1.2359929590
    9      O       2.0945920118     2.1416851651    -0.8293550397
   10      C       2.7951802469     0.9346768790    -1.1722911674
   11      C       4.1918027619     0.9710198159    -0.4767832815
   12      C       4.4779029876    -0.3250247272     0.3960075712
   13      C       3.3689745075    -1.4406934155     0.3318959384
   14      O       3.5343486103    -2.6198012048    -0.0472421827
   15      O      -5.2401471138     2.5628541930     0.5352460010
   16      O       2.1266586431    -0.9339340947     0.8392327040
   17      O       2.3291967318     0.0309183232    -1.8996565739
   18      C       1.1190200936    -2.0260129986     0.8629153145
   19      C       5.3926095880     0.8938936923    -1.5189464508
   20      C       6.7108353396     1.3486709244    -0.7773273208
   21      C       7.0027917119     0.0882549761     0.1194424353
   22      C       5.8052364137    -0.8578774112    -0.2841152289
   23      O       5.5882031203    -0.5575915493    -1.7192458094
   24      H       4.2465765812     1.8876768184     0.1354899154
   25      H       4.6322251715    -0.0509517346     1.4560707235
   26      H       5.1958605727     1.3969962173    -2.4856266145
   27      H       7.5195818145     1.5220756022    -1.5048734618
   28      H       6.5609852089     2.2672549161    -0.1878880831
   29      H       7.9671247004    -0.3766888685    -0.1395914095
   30      H       7.0012118273     0.3226789885     1.1959007086
   31      H       5.9714225171    -1.9432434926    -0.1411923832
   32      O      -1.4851300284    -0.6549554172     1.2007483605
   33      C      -4.9103535526     3.7324239633     1.3842757293
   34      C      -5.6229139129    -0.5044614372     0.4035859679
   35      C      -6.1998910012    -1.5518518881    -0.6289465174
   36      C      -5.0080557121    -2.5764403492    -0.7245364303
   37      C      -3.9530696183    -1.9008405474     0.2348385504
   38      O      -4.7910271713    -1.3220064439     1.3127233824
   39      H      -4.9218569808     0.7584201124    -1.3167248333
   40      H      -3.1561242946    -0.8279421163    -1.5671846548
   41      H      -4.0119090526     4.2646267620     1.0108072831
   42      H      -6.3816415122     0.0689496700     0.9709818354
   43      H      -7.1103687665    -2.0248776755    -0.2279132793
   44      H      -6.4411318385    -1.0872923584    -1.5984262548
   45      H      -5.2977804314    -3.5680062158    -0.3417421652
   46      H      -4.6253248492    -2.6910752751    -1.7512400610
   47      H      -3.1868437532    -2.5744013981     0.6651026661
   48      H      -4.7316424857     3.4333148408     2.4372595662
   49      H      -5.7875404534     4.4030870640     1.3323516659
   50      H       0.1501927882    -1.5469944346     1.1320924722
   51      H       1.3895367342    -2.7976309754     1.6111707041
   52      H       1.0381746561    -2.5115368264    -0.1299986257
   53      H       0.5832925023     1.4611384223    -2.1871986078
   54      H       0.2957464484     3.0612374717    -1.3743522972
   55      H       0.5282899750     0.4414153244     0.2668616429
   56      H      -0.3487779462     1.9433128039     0.7418897060
 ----------------------------------------------------------------

    9   -1510.2916561634      3.71E-09 Convergence criterion met
 Total energy in the final basis set = -1510.29165616
 Final energy is   -1510.29165616340
 **  OPTIMIZATION CONVERGED  **

                    Orbital Energies (a.u.)
 --------------------------------------------------------------

 Alpha MOs
 -- Occupied --
-18.947 -18.930 -18.927 -18.923 -18.890 -18.889 -18.884 -18.873
-18.870 -18.868 -10.110 -10.101 -10.097 -10.091 -10.073 -10.068
-10.064 -10.060 -10.059 -10.058 -10.053 -10.044 -10.037 -10.037
-10.035 -10.033 -10.023 -10.021 -10.018 -10.017  -1.023  -1.011
 -1.004  -1.000  -0.972  -0.967  -0.947  -0.936  -0.931  -0.926
 -0.766  -0.760  -0.727  -0.721  -0.712  -0.705  -0.693  -0.670
 -0.647  -0.614  -0.597  -0.578  -0.547  -0.541  -0.539  -0.534
 -0.515  -0.506  -0.483  -0.472  -0.461  -0.457  -0.452  -0.447
 -0.439  -0.433  -0.428  -0.419  -0.415  -0.407  -0.399  -0.395
 -0.392  -0.381  -0.373  -0.366  -0.362  -0.355  -0.352  -0.348
 -0.345  -0.339  -0.333  -0.330  -0.328  -0.323  -0.322  -0.314
 -0.307  -0.307  -0.304  -0.301  -0.291  -0.282  -0.278  -0.277
 -0.269  -0.262  -0.251  -0.249  -0.240  -0.236  -0.231  -0.189
 -0.175  -0.171  -0.166  -0.164  -0.154  -0.149  -0.147  -0.144
 -0.140

          Ground-State Mulliken Net Atomic Charges

     Atom                 Charge (a.u.)
  ----------------------------------------
      1 O                    -0.206527
      2 C                     0.215584
      3 C                    -0.077977
      4 C                    -0.081242
      5 C                     0.224371
      6 O                    -0.176463
      7 C                    -0.055320
      8 C                    -0.051314
      9 O                    -0.172993
     10 C                     0.209981
     11 C                    -0.080186
     12 C                    -0.078664
     13 C                     0.211628
     14 O                    -0.209533
     15 O                    -0.167766
     16 O                    -0.178309
     17 O                    -0.211553
     18 C                    -0.145726
     19 C                     0.025974
     20 C                    -0.143564
     21 C                    -0.144574
     22 C                     0.024728
     23 O                    -0.186452
     24 H                     0.086247
     25 H                     0.084092
     26 H                     0.082520
     27 H                     0.077668
     28 H                     0.073311
     29 H                     0.077991
     30 H                     0.072964
     31 H                     0.091295
     32 O                    -0.219837
     33 C                    -0.128105
     34 C                     0.025312
     35 C                    -0.143805
     36 C                    -0.143837
     37 C                     0.025038
     38 O                    -0.188981
     39 H                     0.087818
     40 H                     0.085814
     41 H                     0.090675
     42 H                     0.085315
     43 H                     0.078736
     44 H                     0.073965
     45 H                     0.078886
     46 H                     0.074212
     47 H                     0.089760
     48 H                     0.092461
     49 H                     0.092953
     50 H                     0.110182
     51 H                     0.080246
     52 H                     0.085681
     53 H                     0.098600
     54 H                     0.087597
     55 H                     0.102260
     56 H                     0.088866
  ----------------------------------------
  Sum of atomic charges =     0.000000

                    Cartesian Multipole Moments
 -----------------------------------------------------------------
    Charge (ESU x 10^10)
                 0.0000
    Dipole Moment (Debye)
         X      -2.1354      Y       3.1220      Z      -0.0827
       Tot       3.7834
    Quadrupole Moments (Debye-Ang)
        XX    -139.6038     XY       5.1368     YY    -154.4946
        XZ      12.7419     YZ      -0.0130     ZZ    -164.5311

 Total job time:  85.71s(wall), 4080.69s(cpu)
        *  Thank you very much for using Q-Chem.  Have a nice day.  *
