 Q-Chem 5.0, Q-Chem, Inc., Pleasanton, CA (2017)
 Q-Chem 5.0.1 for Intel X86 EM64T Linux

User input:
--------------------------------------------------------------
$molecule
0  1
O 3.749230145 -2.8135421656 0.6905289775
C 3.4340746434 -1.8945047549 -0.097165008
C 4.3797109804 -0.7669248604 -0.6375450453
C 3.796158478 0.6522485966 -1.015993304
C 2.599396466 1.2267718841 -0.1548300683
O 1.7351612845 0.2108681581 0.3487918723
C 0.6379996866 0.8378603831 1.1320135019
C -0.2062781532 -0.3446206663 1.7490848713
O -1.6578461886 -0.068795319 1.8363924455
C -2.2691510914 -0.0568190353 0.5228616386
C -3.6967046911 -0.7184104308 0.6324666218
C -4.9098369458 0.2664213501 0.3592623177
C -4.5159287888 1.7744353556 0.1772232446
O -5.1513717712 2.6521686409 -0.4434691446
O 2.2456859109 -1.9132774657 -0.8990816862
O -3.3242218169 2.0297637082 0.9303427529
O -1.6716940552 0.2273143049 -0.5374373429
C -2.8512578476 3.4162057406 0.7189967731
C -3.902251023 -1.7523889321 -0.5568301968
C -5.1683109607 -2.6437944299 -0.2386117765
C -6.3388262236 -1.6464359969 -0.5743427405
C -5.526894797 -0.3516082293 -0.9666130437
O -4.3457201732 -0.8926725405 -1.6777939881
H -3.7819227396 -1.1932426854 1.6249619865
H -5.6404640196 0.2170376302 1.188725173
H -2.9899516369 -2.3120420757 -0.840184245
H -5.190387315 -3.5282150659 -0.8947279188
H -5.1830047548 -2.9807310518 0.8102724066
H -6.933144409 -1.9989715788 -1.4323104591
H -7.0157107305 -1.4756435472 0.2780098462
H -6.064766503 0.3825171117 -1.5979726857
O 2.4119860371 2.4471717198 0.053533983
C 1.4178724198 -3.088902885 -0.5499317189
C 5.6170972661 -0.375420271 0.2804978621
C 6.8310253327 -0.110139562 -0.6897718952
C 6.3294458069 1.1939319934 -1.4171846183
C 5.0358529944 1.5466874975 -0.5805792297
O 5.3056978235 0.9879230543 0.7712595955
H 4.7761290664 -1.2029160458 -1.5760953401
H 3.5412718442 0.7222398199 -2.089332194
H 1.1500255628 -3.1005203132 0.5262032635
H 5.8049357438 -1.0708435683 1.1217192166
H 7.7481641441 0.0826711222 -0.1099307439
H 7.0155116617 -0.947336744 -1.3816977343
H 7.0683451554 2.0079405138 -1.3520799569
H 6.092461903 1.0196416492 -2.4793494544
H 4.7871258156 2.6234667021 -0.5095488755
H 1.9368735453 -4.0402091395 -0.7891321565
H 0.4993505524 -3.0049947862 -1.1596953886
H -1.9514645229 3.5301108922 1.3511399578
H -3.6195708109 4.155997072 1.0225704529
H -2.5843775602 3.5932608749 -0.3428287147
H -0.0170189495 -1.2499069936 1.1317527952
H 0.114701989 -0.5514476458 2.7894524841
H -0.0100902776 1.4380926813 0.4586756674
H 1.0447824146 1.5042914102 1.9219472384
$end

$rem
JOBTYPE                   OPT
METHOD                    B3LYP
DFT_D                     d3_op
BASIS                     STO-3G
GEOM_OPT_MAX_CYCLES       100
GEOM_OPT_TOL_GRADIENT     300
GEOM_OPT_TOL_DISPLACEMENT 1200
GEOM_OPT_TOL_ENERGY       100
SYMMETRY                  False
THRESH                    12
SCF_CONVERGENCE           8
MAX_SUB_FILE_NUM          128
MEM_STATIC                400
MEM_TOTAL                 4000
$end
--------------------------------------------------------------

   16   -1510.2608936897      5.14E-09 Convergence criterion met
 Total energy in the final basis set = -1510.26089369
   14   -1510.2660466685      7.55E-09 Convergence criterion met
 Total energy in the final basis set = -1510.26604667
   14   -1510.2702746156      4.65E-09 Convergence criterion met
 Total energy in the final basis set = -1510.27027462
   13   -1510.2734066016      7.70E-09 Convergence criterion met
 Total energy in the final basis set = -1510.27340660
   13   -1510.2761325852      9.25E-09 Convergence criterion met
 Total energy in the final basis set = -1510.27613259
   13   -1510.2785753372      7.17E-09 Convergence criterion met
 Total energy in the final basis set = -1510.27857534
   14   -1510.2810239564      1.40E-09 Convergence criterion met
 Total energy in the final basis set = -1510.28102396
   14   -1510.2837579394      4.28E-09 Convergence criterion met
   10   -1510.2986130893      5.75E-09 Convergence criterion met
 Total energy in the final basis set = -1510.29861309
   12   -1510.2986341821      2.08E-09 Convergence criterion met
 Total energy in the final basis set = -1510.29863418
   10   -1510.2986529219      8.59E-09 Convergence criterion met
 Total energy in the final basis set = -1510.29865292
    9   -1510.2986556076      8.42E-09 Convergence criterion met
 Total energy in the final basis set = -1510.29865561
   10   -1510.2986575099      9.17E-09 Convergence criterion met
 Total energy in the final basis set = -1510.29865751
   11   -1510.2986629323      4.23E-09 Convergence criterion met
 Total energy in the final basis set = -1510.29866293

             Standard Nuclear Orientation (Angstroms)
    I     Atom           X                Y                Z
 ----------------------------------------------------------------
    1      O      -2.6721665903     2.1814699796    -0.2392349049
    2      C      -2.8110951284     1.1213767913    -0.8856291581
    3      C      -4.0502537952     0.1515077878    -0.8903469840
    4      C      -3.6999955899    -1.3500537443    -0.5151371829
    5      C      -2.2053125919    -1.5491359737    -0.1027042848
    6      O      -1.8814246894    -0.5430453166     0.8564385054
    7      C      -0.4824092036    -0.6680283066     1.3290218344
    8      C      -0.0943747649     0.7005136423     1.9908428453
    9      O       1.3757389681     0.7117998585     2.1943082197
   10      C       2.0393568770     1.1114125556     0.9917704641
   11      C       3.5613425422     0.8063170232     1.1346666246
   12      C       4.1224491554    -0.0399811583    -0.0855834125
   13      C       3.0828374616    -0.3871815791    -1.2176672806
   14      O       3.1832832043    -0.0777516062    -2.4240966738
   15      O      -1.8724284558     0.6168755611    -1.8392416168
   16      O       2.0174409820    -1.1887830682    -0.6855961642
   17      O       1.4721004882     1.6185478803    -0.0028567548
   18      C       1.1480262176    -1.6637087470    -1.7946139788
   19      C       4.4491789057     2.1222767133     1.0111646827
   20      C       5.9043970176     1.7832679829     1.5248736584
   21      C       6.4647671618     0.9427611603     0.3172819433
   22      C       5.2236197517     0.9457528775    -0.6567161261
   23      O       4.6193135047     2.2831001116    -0.4483144813
   24      H       3.7216969895     0.2896478367     2.0968399126
   25      H       4.5620636496    -0.9884382337     0.2747367851
   26      H       3.9897703689     3.0283833762     1.4520037762
   27      H       6.4820877638     2.7087734730     1.6779120553
   28      H       5.8893539156     1.2157235799     2.4689590882
   29      H       7.3270133640     1.4392933678    -0.1556099102
   30      H       6.7605488421    -0.0773391289     0.6100989793
   31      H       5.4448193736     0.7878623972    -1.7301198166
   32      O      -1.4181041331    -2.4378183459    -0.5026416318
   33      C      -0.7309070205     1.5519764287    -1.9921282948
   34      C      -5.0996585661     0.5174235712     0.2375904651
   35      C      -6.4750748413    -0.1630518066    -0.1291662198
   36      C      -6.1556516884    -1.6728499426     0.1835714744
   37      C      -4.6739214834    -1.5680349334     0.7253267996
   38      O      -4.6387511798    -0.2596394486     1.4132233254
   39      H      -4.5086109248     0.1952423954    -1.8954355037
   40      H      -3.9214128614    -2.0461978158    -1.3426436983
   41      H      -0.0140688767     1.4911592587    -1.1401321915
   42      H      -5.1386988643     1.5971132511     0.4803497180
   43      H      -7.2794351092     0.2202451523     0.5186916572
   44      H      -6.7573828248     0.0044217059    -1.1807878000
   45      H      -6.8224594474    -2.0760749316     0.9621058866
   46      H      -6.2244359301    -2.3156697489    -0.7085514102
   47      H      -4.3671421665    -2.3788157348     1.4146350546
   48      H      -1.0834939110     2.5980635382    -2.0859240347
   49      H      -0.2169599830     1.2530445781    -2.9239481683
   50      H       0.2296858289    -2.0762109139    -1.3196775481
   51      H       1.6623643981    -2.4495962349    -2.3832220471
   52      H       0.8805986527    -0.8326027722    -2.4748174686
   53      H      -0.4178859140     1.5360522724     1.3330949411
   54      H      -0.5561293761     0.8125420666     2.9912202813
   55      H       0.2233394553    -0.8754606877     0.4941302217
   56      H      -0.3985159500    -1.4961423990     2.0655370773
 ----------------------------------------------------------------

    9   -1510.2986636317      4.74E-09 Convergence criterion met
 Total energy in the final basis set = -1510.29866363
 Final energy is   -1510.29866363170
 **  OPTIMIZATION CONVERGED  **

                    Orbital Energies (a.u.)
 --------------------------------------------------------------

 Alpha MOs
 -- Occupied --
-18.943 -18.943 -18.929 -18.922 -18.889 -18.888 -18.887 -18.884
-18.874 -18.866 -10.111 -10.109 -10.097 -10.094 -10.075 -10.071
-10.063 -10.063 -10.058 -10.057 -10.042 -10.042 -10.040 -10.039
-10.038 -10.035 -10.022 -10.021 -10.021 -10.020  -1.023  -1.018
 -1.006  -1.001  -0.972  -0.970  -0.948  -0.943  -0.932  -0.928
 -0.766  -0.764  -0.731  -0.724  -0.712  -0.706  -0.698  -0.653
 -0.649  -0.618  -0.599  -0.582  -0.547  -0.546  -0.538  -0.537
 -0.518  -0.509  -0.486  -0.477  -0.462  -0.461  -0.454  -0.447
 -0.436  -0.432  -0.430  -0.414  -0.409  -0.407  -0.401  -0.399
 -0.393  -0.379  -0.373  -0.368  -0.360  -0.359  -0.356  -0.352
 -0.342  -0.336  -0.334  -0.332  -0.330  -0.328  -0.325  -0.312
 -0.310  -0.306  -0.305  -0.299  -0.295  -0.289  -0.284  -0.279
 -0.271  -0.258  -0.255  -0.246  -0.243  -0.235  -0.235  -0.187
 -0.181  -0.174  -0.171  -0.162  -0.160  -0.151  -0.146  -0.145
 -0.144

          Ground-State Mulliken Net Atomic Charges

     Atom                 Charge (a.u.)
  ----------------------------------------
      1 O                    -0.216840
      2 C                     0.213356
      3 C                    -0.078265
      4 C                    -0.078097
      5 C                     0.220414
      6 O                    -0.166306
      7 C                    -0.054470
      8 C                    -0.050550
      9 O                    -0.168514
     10 C                     0.217978
     11 C                    -0.079608
     12 C                    -0.078666
     13 C                     0.210911
     14 O                    -0.208629
     15 O                    -0.180341
     16 O                    -0.180507
     17 O                    -0.212418
     18 C                    -0.146601
     19 C                     0.026440
     20 C                    -0.143577
     21 C                    -0.144258
     22 C                     0.024726
     23 O                    -0.185810
     24 H                     0.087801
     25 H                     0.084777
     26 H                     0.083942
     27 H                     0.078838
     28 H                     0.073937
     29 H                     0.078967
     30 H                     0.073434
     31 H                     0.092233
     32 O                    -0.215944
     33 C                    -0.146291
     34 C                     0.024318
     35 C                    -0.143674
     36 C                    -0.143958
     37 C                     0.025845
     38 O                    -0.186601
     39 H                     0.084024
     40 H                     0.086475
     41 H                     0.108393
     42 H                     0.090706
     43 H                     0.078161
     44 H                     0.073608
     45 H                     0.078098
     46 H                     0.073967
     47 H                     0.081580
     48 H                     0.085047
     49 H                     0.083559
     50 H                     0.110586
     51 H                     0.079807
     52 H                     0.089063
     53 H                     0.105275
     54 H                     0.094877
     55 H                     0.103487
     56 H                     0.085293
  ----------------------------------------
  Sum of atomic charges =     0.000000

                    Cartesian Multipole Moments
 -----------------------------------------------------------------
    Charge (ESU x 10^10)
                 0.0000
    Dipole Moment (Debye)
         X      -0.1399      Y      -1.8388      Z       1.3526
       Tot       2.2870
    Quadrupole Moments (Debye-Ang)
        XX    -138.0031     XY       1.8902     YY    -164.8237
        XZ      13.5218     YZ       1.4668     ZZ    -161.6227

 Total job time:  115.64s(wall), 5514.48s(cpu)
        *  Thank you very much for using Q-Chem.  Have a nice day.  *
