 Q-Chem 5.0, Q-Chem, Inc., Pleasanton, CA (2017)
 Q-Chem 5.0.1 for Intel X86 EM64T Linux

User input:
--------------------------------------------------------------
$molecule
0  1
O -3.94934 -3.66094 2.70899
C -3.26408 -4.56952 2.26188
C -3.36658 -6.02376 2.66595
C -2.08418 -6.86789 2.58382
C -0.80436 -6.12214 2.27721
O -1.07256 -5.05146 1.47276
C 0.09569 -4.29926 1.12833
C -0.2931 -3.06406 0.32256
O 0.71596 -2.78326 -0.66021
C 0.78546 -3.66084 -1.69179
C 1.08657 -2.99355 -3.01266
C 2.44456 -3.3606 -3.62862
C 3.12896 -4.57856 -3.04135
O 3.94686 -5.27962 -3.61938
O -3.21312 -4.50227 0.89002
O 3.1537 -4.66266 -1.68254
O 0.36731 -4.81272 -1.65581
C 3.82606 -5.62499 -0.95684
C 0.12344 -3.38722 -4.14695
C 0.11865 -2.29985 -5.21963
C 1.49705 -2.48986 -5.81909
C 1.9643 -3.73115 -5.0489
O 0.77713 -4.44603 -4.80032
H 1.02531 -1.89147 -2.85489
H 3.18056 -2.52699 -3.62313
H -0.91164 -3.58908 -3.79386
H -0.6427 -2.59503 -5.97703
H -0.10397 -1.27257 -4.85904
H 1.37872 -2.7181 -6.90169
H 2.19764 -1.63775 -5.68233
H 2.74046 -4.27008 -5.63551
O 0.31435 -6.59383 2.44862
C -3.78085 -3.51234 0.10387
C -3.66009 -6.13936 4.1811
C -4.28341 -7.4989 4.49624
C -3.08147 -8.40007 4.33426
C -1.99682 -7.35893 4.04329
O -2.39472 -6.23276 4.78032
H -4.23361 -6.46454 2.1231
H -2.14923 -7.7245 1.87762
H -3.37152 -2.51602 0.37588
H -4.32174 -5.33481 4.57025
H -4.57522 -7.49007 5.57108
H -5.16737 -7.76661 3.87835
H -2.88301 -8.89974 5.30874
H -3.16028 -9.15997 3.5269
H -0.99861 -7.77735 4.30019
H -4.88352 -3.50638 0.23803
H -3.55777 -3.72013 -0.96285
H 3.65627 -5.44744 0.12497
H 4.91649 -5.57021 -1.1616
H 3.44318 -6.63474 -1.21761
H -1.22557 -3.25186 -0.24057
H -0.47901 -2.20024 0.99509
H 0.77512 -4.97655 0.57558
H 0.66914 -3.96767 2.02353
$end

$opt
CONSTRAINT
tors           1           2           3           4    -150.365
tors           3           4           5           6     -31.968
tors           4           5           6           7    -179.509
tors           5           6           7           8    -175.623
tors           6           7           8           9    -145.037
tors           7           8           9          10     +70.611
tors           8           9          10          11    +142.246
tors           9          10          11          12    +114.089
tors          11          12          13          14    +155.184
ENDCONSTRAINT
$end

$rem
JOBTYPE                   OPT
METHOD                    B3LYP
DFT_D                     d3_op
BASIS                     STO-3G
GEOM_OPT_MAX_CYCLES       100
GEOM_OPT_TOL_GRADIENT     300
GEOM_OPT_TOL_DISPLACEMENT 1200
GEOM_OPT_TOL_ENERGY       100
SYMMETRY                  False
THRESH                    12
SCF_CONVERGENCE           8
MAX_SUB_FILE_NUM          128
MEM_STATIC                400
MEM_TOTAL                 4000
$end
--------------------------------------------------------------

   15   -1510.0939193554      8.48E-09 Convergence criterion met
 Total energy in the final basis set = -1510.09391936
   14   -1510.1674854943      3.13E-09 Convergence criterion met
 Total energy in the final basis set = -1510.16748549
   14   -1510.2075110623      6.73E-09 Convergence criterion met
 Total energy in the final basis set = -1510.20751106
   14   -1510.2330570731      3.04E-09 Convergence criterion met
 Total energy in the final basis set = -1510.23305707
   13   -1510.2449378771      8.84E-09 Convergence criterion met
 Total energy in the final basis set = -1510.24493788
   13   -1510.2516247746      4.65E-09 Convergence criterion met
 Total energy in the final basis set = -1510.25162477
   12   -1510.2555236233      8.72E-09 Convergence criterion met
 Total energy in the final basis set = -1510.25552362
   12   -1510.2575117893      9.22E-09 Convergence criterion met
    9   -1510.2607604775      8.98E-09 Convergence criterion met
 Total energy in the final basis set = -1510.26076048
    9   -1510.2607638229      7.82E-09 Convergence criterion met
 Total energy in the final basis set = -1510.26076382
    9   -1510.2607660678      4.92E-09 Convergence criterion met
 Total energy in the final basis set = -1510.26076607
   10   -1510.2607714255      3.48E-09 Convergence criterion met
 Total energy in the final basis set = -1510.26077143
   10   -1510.2607736243      4.19E-09 Convergence criterion met
 Total energy in the final basis set = -1510.26077362
    9   -1510.2607749110      3.72E-09 Convergence criterion met
 Total energy in the final basis set = -1510.26077491

             Standard Nuclear Orientation (Angstroms)
    I     Atom           X                Y                Z
 ----------------------------------------------------------------
    1      O       3.7492301450    -2.8135421656     0.6905289775
    2      C       3.4340746434    -1.8945047549    -0.0971650080
    3      C       4.3797109804    -0.7669248604    -0.6375450453
    4      C       3.7961584780     0.6522485966    -1.0159933040
    5      C       2.5993964660     1.2267718841    -0.1548300683
    6      O       1.7351612845     0.2108681581     0.3487918723
    7      C       0.6379996866     0.8378603831     1.1320135019
    8      C      -0.2062781532    -0.3446206663     1.7490848713
    9      O      -1.6578461886    -0.0687953190     1.8363924455
   10      C      -2.2691510914    -0.0568190353     0.5228616386
   11      C      -3.6967046911    -0.7184104308     0.6324666218
   12      C      -4.9098369458     0.2664213501     0.3592623177
   13      C      -4.5159287888     1.7744353556     0.1772232446
   14      O      -5.1513717712     2.6521686409    -0.4434691446
   15      O       2.2456859109    -1.9132774657    -0.8990816862
   16      O      -3.3242218169     2.0297637082     0.9303427529
   17      O      -1.6716940552     0.2273143049    -0.5374373429
   18      C      -2.8512578476     3.4162057406     0.7189967731
   19      C      -3.9022510230    -1.7523889321    -0.5568301968
   20      C      -5.1683109607    -2.6437944299    -0.2386117765
   21      C      -6.3388262236    -1.6464359969    -0.5743427405
   22      C      -5.5268947970    -0.3516082293    -0.9666130437
   23      O      -4.3457201732    -0.8926725405    -1.6777939881
   24      H      -3.7819227396    -1.1932426854     1.6249619865
   25      H      -5.6404640196     0.2170376302     1.1887251730
   26      H      -2.9899516369    -2.3120420757    -0.8401842450
   27      H      -5.1903873150    -3.5282150659    -0.8947279188
   28      H      -5.1830047548    -2.9807310518     0.8102724066
   29      H      -6.9331444090    -1.9989715788    -1.4323104591
   30      H      -7.0157107305    -1.4756435472     0.2780098462
   31      H      -6.0647665030     0.3825171117    -1.5979726857
   32      O       2.4119860371     2.4471717198     0.0535339830
   33      C       1.4178724198    -3.0889028850    -0.5499317189
   34      C       5.6170972661    -0.3754202710     0.2804978621
   35      C       6.8310253327    -0.1101395620    -0.6897718952
   36      C       6.3294458069     1.1939319934    -1.4171846183
   37      C       5.0358529944     1.5466874975    -0.5805792297
   38      O       5.3056978235     0.9879230543     0.7712595955
   39      H       4.7761290664    -1.2029160458    -1.5760953401
   40      H       3.5412718442     0.7222398199    -2.0893321940
   41      H       1.1500255628    -3.1005203132     0.5262032635
   42      H       5.8049357438    -1.0708435683     1.1217192166
   43      H       7.7481641441     0.0826711222    -0.1099307439
   44      H       7.0155116617    -0.9473367440    -1.3816977343
   45      H       7.0683451554     2.0079405138    -1.3520799569
   46      H       6.0924619030     1.0196416492    -2.4793494544
   47      H       4.7871258156     2.6234667021    -0.5095488755
   48      H       1.9368735453    -4.0402091395    -0.7891321565
   49      H       0.4993505524    -3.0049947862    -1.1596953886
   50      H      -1.9514645229     3.5301108922     1.3511399578
   51      H      -3.6195708109     4.1559970720     1.0225704529
   52      H      -2.5843775602     3.5932608749    -0.3428287147
   53      H      -0.0170189495    -1.2499069936     1.1317527952
   54      H       0.1147019890    -0.5514476458     2.7894524841
   55      H      -0.0100902776     1.4380926813     0.4586756674
   56      H       1.0447824146     1.5042914102     1.9219472384
 ----------------------------------------------------------------

    9   -1510.2607752129      4.52E-09 Convergence criterion met
 Total energy in the final basis set = -1510.26077521
 Final energy is   -1510.26077521288
 **  OPTIMIZATION CONVERGED  **

                    Orbital Energies (a.u.)
 --------------------------------------------------------------

 Alpha MOs
 -- Occupied --
-18.946 -18.933 -18.931 -18.918 -18.890 -18.884 -18.882 -18.870
-18.870 -18.865 -10.106 -10.099 -10.098 -10.095 -10.072 -10.069
-10.064 -10.063 -10.062 -10.061 -10.056 -10.054 -10.041 -10.037
-10.036 -10.035 -10.023 -10.022 -10.018 -10.017  -1.020  -1.012
 -1.005  -1.001  -0.972  -0.967  -0.944  -0.934  -0.932  -0.928
 -0.765  -0.760  -0.727  -0.722  -0.710  -0.702  -0.696  -0.666
 -0.661  -0.614  -0.598  -0.584  -0.547  -0.542  -0.539  -0.535
 -0.514  -0.507  -0.488  -0.475  -0.461  -0.457  -0.452  -0.439
 -0.437  -0.431  -0.428  -0.416  -0.413  -0.411  -0.406  -0.396
 -0.390  -0.382  -0.377  -0.369  -0.366  -0.357  -0.354  -0.347
 -0.343  -0.338  -0.333  -0.332  -0.328  -0.326  -0.317  -0.314
 -0.308  -0.308  -0.306  -0.299  -0.294  -0.291  -0.288  -0.276
 -0.267  -0.256  -0.251  -0.244  -0.238  -0.236  -0.231  -0.183
 -0.177  -0.169  -0.168  -0.161  -0.153  -0.148  -0.145  -0.143
 -0.141

          Ground-State Mulliken Net Atomic Charges

     Atom                 Charge (a.u.)
  ----------------------------------------
      1 O                    -0.217751
      2 C                     0.213132
      3 C                    -0.080739
      4 C                    -0.074508
      5 C                     0.211872
      6 O                    -0.166545
      7 C                    -0.050843
      8 C                    -0.048382
      9 O                    -0.181058
     10 C                     0.218581
     11 C                    -0.080064
     12 C                    -0.079050
     13 C                     0.214538
     14 O                    -0.208141
     15 O                    -0.163304
     16 O                    -0.165175
     17 O                    -0.214945
     18 C                    -0.126910
     19 C                     0.025899
     20 C                    -0.144560
     21 C                    -0.143317
     22 C                     0.024365
     23 O                    -0.186468
     24 H                     0.085208
     25 H                     0.085788
     26 H                     0.082045
     27 H                     0.078163
     28 H                     0.073637
     29 H                     0.078865
     30 H                     0.073735
     31 H                     0.089999
     32 O                    -0.219104
     33 C                    -0.127339
     34 C                     0.022232
     35 C                    -0.141179
     36 C                    -0.146474
     37 C                     0.022639
     38 O                    -0.193530
     39 H                     0.083507
     40 H                     0.087275
     41 H                     0.085568
     42 H                     0.088748
     43 H                     0.077651
     44 H                     0.072811
     45 H                     0.078311
     46 H                     0.073057
     47 H                     0.090666
     48 H                     0.086921
     49 H                     0.090398
     50 H                     0.095194
     51 H                     0.092754
     52 H                     0.094250
     53 H                     0.085633
     54 H                     0.089047
     55 H                     0.099684
     56 H                     0.087213
  ----------------------------------------
  Sum of atomic charges =     0.000000

                    Cartesian Multipole Moments
 -----------------------------------------------------------------
    Charge (ESU x 10^10)
                 0.0000
    Dipole Moment (Debye)
         X      -0.8852      Y      -1.8229      Z       0.3604
       Tot       2.0583
    Quadrupole Moments (Debye-Ang)
        XX    -150.2633     XY       6.7684     YY    -158.5102
        XZ     -16.8065     YZ       2.6818     ZZ    -161.9133

 Total job time:  67.61s(wall), 3214.68s(cpu)
        *  Thank you very much for using Q-Chem.  Have a nice day.  *
