 Q-Chem 5.0, Q-Chem, Inc., Pleasanton, CA (2017)
 Q-Chem 5.0.1 for Intel X86 EM64T Linux

User input:
--------------------------------------------------------------
$molecule
0  1
O -3.94934 -3.66094 2.70899
C -3.26408 -4.56952 2.26188
C -3.36658 -6.02376 2.66595
C -2.14376 -6.64879 3.35724
C -1.02201 -5.70388 3.72729
O -0.44598 -5.20162 2.59532
C 0.67799 -4.35642 2.86286
C 1.20722 -3.75862 1.56336
O 2.38032 -2.97332 1.82798
C 3.51719 -3.40218 1.22569
C 4.65749 -2.42043 1.35424
C 5.896 -2.95894 2.08526
C 5.95941 -4.46323 2.25779
O 6.92245 -5.08859 2.67738
O -2.44445 -4.29703 1.21297
O 4.85181 -5.24331 2.1572
O 3.53126 -4.26273 0.34829
C 4.78709 -6.60738 2.37134
C 5.26936 -2.00035 0.00456
C 5.9802 -0.65633 0.15511
C 7.17796 -1.06311 0.98887
C 6.97101 -2.5813 1.04559
O 6.34439 -2.88682 -0.17734
H 4.26847 -1.51075 1.86814
H 6.07775 -2.49421 3.07897
H 4.52393 -1.954 -0.81939
H 6.33609 -0.36144 -0.8582
H 5.36395 0.1653 0.5794
H 8.10115 -0.81281 0.42035
H 7.22332 -0.61825 2.00654
H 7.94112 -3.09273 1.23336
O -0.66114 -5.44766 4.87138
C -2.33023 -3.0556 0.62174
C -4.43767 -6.25771 3.75567
C -4.90663 -7.71195 3.7269
C -3.69577 -8.40914 4.306
C -2.81113 -7.2018 4.6322
O -3.72693 -6.18917 4.96668
H -3.66642 -6.5798 1.7494
H -1.68683 -7.46434 2.75334
H -1.96835 -2.31027 1.362
H -5.31716 -5.58338 3.66515
H -5.74699 -7.80405 4.45194
H -5.23835 -8.08034 2.73233
H -4.00249 -8.92545 5.24295
H -3.18905 -9.1274 3.62568
H -2.07421 -7.47689 5.41854
H -3.31299 -2.7337 0.21573
H -1.60612 -3.11597 -0.21615
H 3.74495 -6.9504 2.20687
H 5.08011 -6.84648 3.41586
H 5.45524 -7.13785 1.65989
H 1.35978 -4.60575 0.85965
H 0.43708 -3.1018 1.11457
H 1.48775 -4.95786 3.33522
H 0.39542 -3.51674 3.53828
$end

$opt
CONSTRAINT
tors           1           2           3           4    -116.085
tors           3           4           5           6     -66.316
tors           4           5           6           7    -176.579
tors           5           6           7           8    -176.116
tors           6           7           8           9    -176.718
tors           7           8           9          10    +118.025
tors           8           9          10          11    +170.597
tors           9          10          11          12    +119.507
tors          11          12          13          14    +171.544
ENDCONSTRAINT
$end

$rem
JOBTYPE                   OPT
METHOD                    B3LYP
DFT_D                     d3_op
BASIS                     STO-3G
GEOM_OPT_MAX_CYCLES       100
GEOM_OPT_TOL_GRADIENT     300
GEOM_OPT_TOL_DISPLACEMENT 1200
GEOM_OPT_TOL_ENERGY       100
SYMMETRY                  False
THRESH                    12
SCF_CONVERGENCE           8
MAX_SUB_FILE_NUM          128
MEM_STATIC                400
MEM_TOTAL                 4000
$end
--------------------------------------------------------------

   15   -1510.1328263854      6.47E-09 Convergence criterion met
 Total energy in the final basis set = -1510.13282639
   14   -1510.2057674379      7.49E-09 Convergence criterion met
 Total energy in the final basis set = -1510.20576744
   14   -1510.2455788206      9.44E-09 Convergence criterion met
 Total energy in the final basis set = -1510.24557882
   14   -1510.2622019240      9.91E-09 Convergence criterion met
 Total energy in the final basis set = -1510.26220192
   14   -1510.2695466654      5.61E-09 Convergence criterion met
 Total energy in the final basis set = -1510.26954667
   13   -1510.2717550148      8.69E-09 Convergence criterion met
 Total energy in the final basis set = -1510.27175501
   13   -1510.2734064392      7.59E-09 Convergence criterion met
 Total energy in the final basis set = -1510.27340644
   14   -1510.2742826459      4.05E-09 Convergence criterion met
   11   -1510.2768127447      1.88E-09 Convergence criterion met
 Total energy in the final basis set = -1510.27681274
    9   -1510.2768153507      9.72E-09 Convergence criterion met
 Total energy in the final basis set = -1510.27681535
   11   -1510.2768201912      1.86E-09 Convergence criterion met
 Total energy in the final basis set = -1510.27682019
   11   -1510.2768270589      3.09E-09 Convergence criterion met
 Total energy in the final basis set = -1510.27682706
   11   -1510.2768346495      3.80E-09 Convergence criterion met
 Total energy in the final basis set = -1510.27683465
   11   -1510.2768372824      2.94E-09 Convergence criterion met
 Total energy in the final basis set = -1510.27683728

             Standard Nuclear Orientation (Angstroms)
    I     Atom           X                Y                Z
 ----------------------------------------------------------------
    1      O      -4.8862753910     2.3669790313     1.0208101205
    2      C      -4.3306179612     1.7527647758     0.0836368170
    3      C      -4.8836156573     0.4891703110    -0.6686038381
    4      C      -4.0509437870    -0.8638557962    -0.5385832605
    5      C      -2.7638559945    -0.8264556979     0.3619708973
    6      O      -1.7898319992     0.0293229303    -0.2377346839
    7      C      -0.5371304592     0.0099391718     0.5595906257
    8      C       0.4319480528     1.0422200619    -0.1048348615
    9      O       1.7333734434     1.0091309344     0.6032927770
   10      C       2.7761922430     0.6010612565    -0.3034155361
   11      C       4.1518398864     0.8145441241     0.4190462442
   12      C       5.0217579851    -0.4956186918     0.6126339976
   13      C       4.3127331318    -1.8810142560     0.4176563066
   14      O       4.8799821682    -2.9946288097     0.3863969938
   15      O      -3.1450505568     2.2117751767    -0.5725551619
   16      O       2.8905230008    -1.7203843286     0.4226538634
   17      O       2.5805365740     0.2998421099    -1.5010856511
   18      C       2.2241077093    -3.0285468308     0.2300012913
   19      C       5.1030199376     1.6314542781    -0.5615339271
   20      C       6.3983435321     2.0874607877     0.2220417061
   21      C       7.2263001943     0.7490451434     0.2555563791
   22      C       6.2063346717    -0.2464664984    -0.4202617462
   23      O       5.5887037519     0.5780380767    -1.4824602083
   24      H       3.9710327895     1.3295281916     1.3783999073
   25      H       5.4315828959    -0.5114398410     1.6405661028
   26      H       4.5907259353     2.4318270826    -1.1298627869
   27      H       6.9272495655     2.8790481546    -0.3319322652
   28      H       6.1577981839     2.4633421678     1.2295095887
   29      H       8.1420790062     0.8278849464    -0.3520174070
   30      H       7.5029757184     0.4403516581     1.2762386250
   31      H       6.6454454593    -1.1714893684    -0.8421765066
   32      O      -2.5738406212    -1.4638675626     1.4211543051
   33      C      -2.6392952808     3.4315567688     0.0978752898
   34      C      -6.2743471318     0.0403124637    -0.0513471817
   35      C      -7.0248450356    -0.8643815467    -1.1047707552
   36      C      -6.2010010150    -2.2013996605    -0.9971061959
   37      C      -5.1400323049    -1.8179528158     0.1077833758
   38      O      -5.8869885269    -0.9137135126     1.0125781174
   39      H      -4.9806810180     0.7600231601    -1.7360596970
   40      H      -3.7458300920    -1.2105164693    -1.5433496321
   41      H      -2.3037461454     3.2174803546     1.1334817395
   42      H      -6.8617454759     0.8763738819     0.3753470845
   43      H      -8.0746472306    -1.0123700322    -0.8056431270
   44      H      -7.0042225184    -0.4302803414    -2.1173288215
   45      H      -6.8307225731    -3.0371918271    -0.6530738402
   46      H      -5.7251789904    -2.4864649451    -1.9490961818
   47      H      -4.7080701215    -2.6626850914     0.6788627824
   48      H      -3.4107044133     4.2275155544     0.1370340146
   49      H      -1.7795742244     3.7764918853    -0.5054170934
   50      H       1.1392206209    -2.8357840319     0.3194918790
   51      H       2.5380083071    -3.7615373614     1.0007420844
   52      H       2.4438154767    -3.4495309390    -0.7722012551
   53      H       0.6041280056     0.7831213483    -1.1727018611
   54      H       0.0135575279     2.0664881853    -0.0252759914
   55      H      -0.0784069931    -1.0024958984     0.5480875546
   56      H      -0.7376335520     0.2805259972     1.6189070023
 ----------------------------------------------------------------

    9   -1510.2768380372      3.83E-09 Convergence criterion met
 Total energy in the final basis set = -1510.27683804
 Final energy is   -1510.27683803715
 **  OPTIMIZATION CONVERGED  **

                    Orbital Energies (a.u.)
 --------------------------------------------------------------

 Alpha MOs
 -- Occupied --
-18.945 -18.936 -18.936 -18.927 -18.891 -18.884 -18.879 -18.875
-18.875 -18.869 -10.106 -10.099 -10.099 -10.099 -10.072 -10.071
-10.066 -10.065 -10.063 -10.062 -10.056 -10.056 -10.042 -10.040
-10.039 -10.038 -10.023 -10.022 -10.019 -10.018  -1.019  -1.015
 -1.010  -1.005  -0.973  -0.968  -0.942  -0.939  -0.935  -0.931
 -0.766  -0.762  -0.728  -0.723  -0.712  -0.705  -0.697  -0.667
 -0.665  -0.617  -0.599  -0.580  -0.547  -0.544  -0.540  -0.537
 -0.515  -0.510  -0.486  -0.473  -0.464  -0.457  -0.455  -0.451
 -0.440  -0.433  -0.427  -0.416  -0.415  -0.414  -0.412  -0.402
 -0.390  -0.387  -0.377  -0.372  -0.364  -0.358  -0.354  -0.347
 -0.342  -0.340  -0.335  -0.335  -0.333  -0.328  -0.326  -0.316
 -0.310  -0.308  -0.305  -0.299  -0.295  -0.291  -0.282  -0.274
 -0.272  -0.259  -0.251  -0.248  -0.243  -0.236  -0.232  -0.185
 -0.185  -0.170  -0.169  -0.161  -0.159  -0.152  -0.148  -0.145
 -0.142

          Ground-State Mulliken Net Atomic Charges

     Atom                 Charge (a.u.)
  ----------------------------------------
      1 O                    -0.211909
      2 C                     0.206709
      3 C                    -0.078239
      4 C                    -0.077967
      5 C                     0.205908
      6 O                    -0.167417
      7 C                    -0.046006
      8 C                    -0.054886
      9 O                    -0.176363
     10 C                     0.218993
     11 C                    -0.078912
     12 C                    -0.079180
     13 C                     0.212024
     14 O                    -0.212441
     15 O                    -0.163826
     16 O                    -0.167444
     17 O                    -0.216855
     18 C                    -0.125924
     19 C                     0.026496
     20 C                    -0.145098
     21 C                    -0.142541
     22 C                     0.025411
     23 O                    -0.185445
     24 H                     0.087021
     25 H                     0.086034
     26 H                     0.083641
     27 H                     0.078664
     28 H                     0.073849
     29 H                     0.078993
     30 H                     0.074121
     31 H                     0.088836
     32 O                    -0.212596
     33 C                    -0.128408
     34 C                     0.023989
     35 C                    -0.144136
     36 C                    -0.144391
     37 C                     0.023920
     38 O                    -0.188508
     39 H                     0.085274
     40 H                     0.084751
     41 H                     0.087084
     42 H                     0.089564
     43 H                     0.078113
     44 H                     0.072458
     45 H                     0.078063
     46 H                     0.072411
     47 H                     0.089186
     48 H                     0.090840
     49 H                     0.088732
     50 H                     0.090261
     51 H                     0.093781
     52 H                     0.092984
     53 H                     0.104365
     54 H                     0.082927
     55 H                     0.083703
     56 H                     0.089390
  ----------------------------------------
  Sum of atomic charges =    -0.000000

                    Cartesian Multipole Moments
 -----------------------------------------------------------------
    Charge (ESU x 10^10)
                 0.0000
    Dipole Moment (Debye)
         X       0.7539      Y       1.2053      Z      -0.6585
       Tot       1.5668
    Quadrupole Moments (Debye-Ang)
        XX    -157.6157     XY      10.1702     YY    -153.9605
        XZ      23.7269     YZ       2.5212     ZZ    -167.4693

 Total job time:  67.57s(wall), 3213.55s(cpu)
        *  Thank you very much for using Q-Chem.  Have a nice day.  *
