 Q-Chem 5.0, Q-Chem, Inc., Pleasanton, CA (2017)
 Q-Chem 5.0.1 for Intel X86 EM64T Linux

User input:
--------------------------------------------------------------
$molecule
0  1
O -4.886275391 2.3669790313 1.0208101205
C -4.3306179612 1.7527647758 0.083636817
C -4.8836156573 0.489170311 -0.6686038381
C -4.050943787 -0.8638557962 -0.5385832605
C -2.7638559945 -0.8264556979 0.3619708973
O -1.7898319992 0.0293229303 -0.2377346839
C -0.5371304592 0.0099391718 0.5595906257
C 0.4319480528 1.0422200619 -0.1048348615
O 1.7333734434 1.0091309344 0.603292777
C 2.776192243 0.6010612565 -0.3034155361
C 4.1518398864 0.8145441241 0.4190462442
C 5.0217579851 -0.4956186918 0.6126339976
C 4.3127331318 -1.881014256 0.4176563066
O 4.8799821682 -2.9946288097 0.3863969938
O -3.1450505568 2.2117751767 -0.5725551619
O 2.8905230008 -1.7203843286 0.4226538634
O 2.580536574 0.2998421099 -1.5010856511
C 2.2241077093 -3.0285468308 0.2300012913
C 5.1030199376 1.6314542781 -0.5615339271
C 6.3983435321 2.0874607877 0.2220417061
C 7.2263001943 0.7490451434 0.2555563791
C 6.2063346717 -0.2464664984 -0.4202617462
O 5.5887037519 0.5780380767 -1.4824602083
H 3.9710327895 1.3295281916 1.3783999073
H 5.4315828959 -0.511439841 1.6405661028
H 4.5907259353 2.4318270826 -1.1298627869
H 6.9272495655 2.8790481546 -0.3319322652
H 6.1577981839 2.4633421678 1.2295095887
H 8.1420790062 0.8278849464 -0.352017407
H 7.5029757184 0.4403516581 1.276238625
H 6.6454454593 -1.1714893684 -0.8421765066
O -2.5738406212 -1.4638675626 1.4211543051
C -2.6392952808 3.4315567688 0.0978752898
C -6.2743471318 0.0403124637 -0.0513471817
C -7.0248450356 -0.8643815467 -1.1047707552
C -6.201001015 -2.2013996605 -0.9971061959
C -5.1400323049 -1.8179528158 0.1077833758
O -5.8869885269 -0.9137135126 1.0125781174
H -4.980681018 0.7600231601 -1.736059697
H -3.745830092 -1.2105164693 -1.5433496321
H -2.3037461454 3.2174803546 1.1334817395
H -6.8617454759 0.8763738819 0.3753470845
H -8.0746472306 -1.0123700322 -0.805643127
H -7.0042225184 -0.4302803414 -2.1173288215
H -6.8307225731 -3.0371918271 -0.6530738402
H -5.7251789904 -2.4864649451 -1.9490961818
H -4.7080701215 -2.6626850914 0.6788627824
H -3.4107044133 4.2275155544 0.1370340146
H -1.7795742244 3.7764918853 -0.5054170934
H 1.1392206209 -2.8357840319 0.319491879
H 2.5380083071 -3.7615373614 1.0007420844
H 2.4438154767 -3.449530939 -0.7722012551
H 0.6041280056 0.7831213483 -1.1727018611
H 0.0135575279 2.0664881853 -0.0252759914
H -0.0784069931 -1.0024958984 0.5480875546
H -0.737633552 0.2805259972 1.6189070023
$end

$rem
JOBTYPE                   OPT
METHOD                    B3LYP
DFT_D                     d3_op
BASIS                     STO-3G
GEOM_OPT_MAX_CYCLES       100
GEOM_OPT_TOL_GRADIENT     300
GEOM_OPT_TOL_DISPLACEMENT 1200
GEOM_OPT_TOL_ENERGY       100
SYMMETRY                  False
THRESH                    12
SCF_CONVERGENCE           8
MAX_SUB_FILE_NUM          128
MEM_STATIC                400
MEM_TOTAL                 4000
$end
--------------------------------------------------------------

   16   -1510.2767758643      5.70E-09 Convergence criterion met
 Total energy in the final basis set = -1510.27677586
   14   -1510.2780134925      7.17E-09 Convergence criterion met
 Total energy in the final basis set = -1510.27801349
   14   -1510.2794293054      3.53E-09 Convergence criterion met
 Total energy in the final basis set = -1510.27942931
   14   -1510.2806396395      3.95E-09 Convergence criterion met
 Total energy in the final basis set = -1510.28063964
   14   -1510.2815598892      2.67E-09 Convergence criterion met
 Total energy in the final basis set = -1510.28155989
   13   -1510.2819712300      8.00E-09 Convergence criterion met
 Total energy in the final basis set = -1510.28197123
   13   -1510.2830056492      4.01E-09 Convergence criterion met
 Total energy in the final basis set = -1510.28300565
   13   -1510.2835745487      7.79E-09 Convergence criterion met
   13   -1510.2902935105      1.76E-09 Convergence criterion met
 Total energy in the final basis set = -1510.29029351
   11   -1510.2903186031      7.26E-09 Convergence criterion met
 Total energy in the final basis set = -1510.29031860
   12   -1510.2903550882      3.85E-09 Convergence criterion met
 Total energy in the final basis set = -1510.29035509
   12   -1510.2903556134      2.30E-09 Convergence criterion met
 Total energy in the final basis set = -1510.29035561
   12   -1510.2903680219      2.63E-09 Convergence criterion met
 Total energy in the final basis set = -1510.29036802
   11   -1510.2903706074      3.08E-09 Convergence criterion met
 Total energy in the final basis set = -1510.29037061

             Standard Nuclear Orientation (Angstroms)
    I     Atom           X                Y                Z
 ----------------------------------------------------------------
    1      O      -3.7000564407     1.6397379590     1.5554614160
    2      C      -3.9683659881     1.5702244061     0.3366944673
    3      C      -4.5803980647     0.3567048484    -0.4498097774
    4      C      -3.5700546790    -0.8476358431    -0.6804752023
    5      C      -2.1638056973    -0.6443402699    -0.0157590611
    6      O      -1.7162459289     0.6848900925    -0.2858539692
    7      C      -0.4736871775     0.9989677979     0.4644010575
    8      C       0.5459957797     1.6904196186    -0.5033384916
    9      O       1.8701537161     1.7134913702     0.1633034985
   10      C       2.7967460944     0.8840957375    -0.5591109512
   11      C       4.1181517076     0.7969462473     0.2696343202
   12      C       4.5265574291    -0.6969732576     0.6204105006
   13      C       3.5340082865    -1.7838600342     0.0694202988
   14      O       3.8219626652    -2.7721489195    -0.6381289480
   15      O      -3.8311513105     2.6635421877    -0.5831409638
   16      O       2.2125286216    -1.4781472662     0.5284789693
   17      O       2.5482622910     0.3591221354    -1.6670022726
   18      C       1.2457514129    -2.4532252189    -0.0334198735
   19      C       5.3825662166     1.2500542211    -0.5822140283
   20      C       6.5896662096     1.4771197552     0.4128883998
   21      C       6.9975657612    -0.0077340483     0.7418026281
   22      C       5.9315187908    -0.8083145636    -0.1028877415
   23      O       5.7571235403     0.0228047438    -1.3172132692
   24      H       3.9932236588     1.4073864385     1.1808742493
   25      H       4.6145303314    -0.8271454286     1.7148639869
   26      H       5.1880987738     2.0811060067    -1.2876487736
   27      H       7.4060968504     2.0201026293    -0.0892670433
   28      H       6.2852575268     2.0434467203     1.3074791554
   29      H       8.0167194255    -0.2332029922     0.3897790850
   30      H       6.9351349500    -0.2384389838     1.8172737872
   31      H       6.2070239363    -1.8441602590    -0.3815010565
   32      O      -1.5199495476    -1.4945116326     0.6405866513
   33      C      -3.2307103048     3.8277600773     0.1053287611
   34      C      -5.7146595031    -0.3771678044     0.3890919459
   35      C      -6.5630884819    -1.2711342565    -0.5990775750
   36      C      -5.5663989281    -2.4601423854    -0.8646100784
   37      C      -4.3392323149    -2.0353459375     0.0320552720
   38      O      -4.9667172983    -1.3678762898     1.1962531416
   39      H      -4.9624585689     0.7352522954    -1.4139141436
   40      H      -3.4206665228    -1.0363250598    -1.7601682590
   41      H      -2.1824224150     3.6233582012     0.4047967005
   42      H      -6.3019196663     0.2917692605     1.0474965134
   43      H      -7.4841210108    -1.6198382420    -0.1055913320
   44      H      -6.8373470544    -0.7305484258    -1.5190234795
   45      H      -5.9808429190    -3.4202456420    -0.5182905115
   46      H      -5.2916423795    -2.5574634312    -1.9271608380
   47      H      -3.6749216302    -2.8561959765     0.3661986510
   48      H      -3.8051338125     4.1100874409     1.0109502858
   49      H      -3.2487697512     4.6595173188    -0.6227203794
   50      H       0.2376085564    -2.1279671052     0.3051842348
   51      H       1.4548685411    -3.4796449509     0.3291552929
   52      H       1.2879354522    -2.4570159255    -1.1412723202
   53      H       0.6412245457     1.1131585884    -1.4500033444
   54      H       0.2395136593     2.7329155311    -0.7270356262
   55      H      -0.0394261266     0.0628679798     0.8741605310
   56      H      -0.7412560355     1.6697348879     1.3087694036
 ----------------------------------------------------------------

    9   -1510.2903704740      4.61E-09 Convergence criterion met
 Total energy in the final basis set = -1510.29037047
 Final energy is   -1510.29037047401
 **  OPTIMIZATION CONVERGED  **

                    Orbital Energies (a.u.)
 --------------------------------------------------------------

 Alpha MOs
 -- Occupied --
-18.950 -18.933 -18.931 -18.926 -18.896 -18.890 -18.886 -18.876
-18.871 -18.868 -10.117 -10.101 -10.098 -10.094 -10.075 -10.070
-10.064 -10.062 -10.062 -10.060 -10.056 -10.046 -10.043 -10.039
-10.038 -10.036 -10.023 -10.022 -10.020 -10.019  -1.028  -1.014
 -1.007  -1.003  -0.973  -0.969  -0.953  -0.937  -0.933  -0.930
 -0.767  -0.763  -0.731  -0.723  -0.712  -0.707  -0.698  -0.664
 -0.652  -0.619  -0.599  -0.582  -0.549  -0.544  -0.540  -0.536
 -0.516  -0.508  -0.486  -0.476  -0.463  -0.460  -0.457  -0.451
 -0.440  -0.433  -0.429  -0.417  -0.413  -0.410  -0.404  -0.401
 -0.400  -0.387  -0.373  -0.368  -0.363  -0.360  -0.355  -0.351
 -0.346  -0.337  -0.334  -0.333  -0.330  -0.328  -0.325  -0.314
 -0.309  -0.309  -0.304  -0.303  -0.294  -0.289  -0.282  -0.276
 -0.271  -0.258  -0.253  -0.250  -0.245  -0.237  -0.233  -0.192
 -0.175  -0.174  -0.173  -0.169  -0.160  -0.149  -0.148  -0.146
 -0.143

          Ground-State Mulliken Net Atomic Charges

     Atom                 Charge (a.u.)
  ----------------------------------------
      1 O                    -0.220380
      2 C                     0.212470
      3 C                    -0.079868
      4 C                    -0.077323
      5 C                     0.223306
      6 O                    -0.169159
      7 C                    -0.054614
      8 C                    -0.055913
      9 O                    -0.172819
     10 C                     0.214124
     11 C                    -0.078850
     12 C                    -0.078679
     13 C                     0.211909
     14 O                    -0.209178
     15 O                    -0.170062
     16 O                    -0.177660
     17 O                    -0.213946
     18 C                    -0.143864
     19 C                     0.025879
     20 C                    -0.143804
     21 C                    -0.144087
     22 C                     0.024513
     23 O                    -0.186498
     24 H                     0.086923
     25 H                     0.084733
     26 H                     0.082834
     27 H                     0.077998
     28 H                     0.073400
     29 H                     0.078384
     30 H                     0.073247
     31 H                     0.091591
     32 O                    -0.209391
     33 C                    -0.128303
     34 C                     0.025496
     35 C                    -0.143742
     36 C                    -0.144234
     37 C                     0.024336
     38 O                    -0.186909
     39 H                     0.086568
     40 H                     0.087976
     41 H                     0.083282
     42 H                     0.084994
     43 H                     0.078760
     44 H                     0.073952
     45 H                     0.079297
     46 H                     0.073648
     47 H                     0.090832
     48 H                     0.089837
     49 H                     0.089126
     50 H                     0.106100
     51 H                     0.083350
     52 H                     0.085533
     53 H                     0.103989
     54 H                     0.084050
     55 H                     0.106505
     56 H                     0.090339
  ----------------------------------------
  Sum of atomic charges =     0.000000

                    Cartesian Multipole Moments
 -----------------------------------------------------------------
    Charge (ESU x 10^10)
                -0.0000
    Dipole Moment (Debye)
         X      -1.2981      Y       2.1521      Z       0.0175
       Tot       2.5134
    Quadrupole Moments (Debye-Ang)
        XX    -147.7279     XY       7.3901     YY    -154.8990
        XZ      21.6069     YZ       0.2164     ZZ    -167.9945

 Total job time:  114.30s(wall), 5442.82s(cpu)
        *  Thank you very much for using Q-Chem.  Have a nice day.  *
