 Q-Chem 5.0, Q-Chem, Inc., Pleasanton, CA (2017)
 Q-Chem 5.0.1 for Intel X86 EM64T Linux

User input:
--------------------------------------------------------------
$molecule
0  1
O -3.94934 -3.66094 2.70899
C -3.26408 -4.56952 2.26188
C -3.36658 -6.02376 2.66595
C -2.18616 -6.61999 3.45014
C -1.11476 -5.65019 3.897
O -1.06382 -4.58788 3.04007
C -0.03604 -3.64745 3.36946
C -0.14332 -2.4168 2.47495
O 1.16789 -1.90972 2.18088
C 1.49977 -1.87865 0.86633
C 2.11252 -0.5642 0.44512
C 2.93017 -0.61784 -0.85367
C 2.72596 -1.84958 -1.71265
O 2.45357 -1.84539 -2.90444
O -2.64705 -4.36327 1.06397
O 3.14535 -3.02317 -1.16401
O 0.91282 -2.58223 0.05082
C 3.14514 -4.23679 -1.81992
C 1.06957 0.51017 0.0721
C 1.68233 1.89618 0.25974
C 2.68896 1.91419 -0.8738
C 2.32885 0.60053 -1.5812
O 0.95452 0.43603 -1.32819
H 2.71558 -0.18853 1.30389
H 4.02218 -0.53476 -0.66029
H 0.12154 0.42358 0.64707
H 0.8769 2.63155 0.03313
H 2.0994 2.11419 1.26639
H 2.47478 2.79572 -1.51776
H 3.75582 1.91648 -0.56135
H 2.62682 0.64848 -2.65152
O -0.24288 -5.92615 4.71345
C -2.90543 -3.28757 0.23478
C -4.50764 -6.24318 3.68499
C -4.94518 -7.70815 3.68511
C -3.7738 -8.3486 4.3934
C -2.93225 -7.10946 4.70905
O -3.8844 -6.10162 4.93449
H -3.61287 -6.60106 1.74634
H -1.67811 -7.46571 2.93669
H -2.737 -2.32497 0.76159
H -5.39256 -5.59445 3.50318
H -5.84247 -7.79371 4.33914
H -5.18006 -8.12243 2.68106
H -4.14205 -8.80455 5.33966
H -3.21354 -9.10476 3.80204
H -2.24866 -7.32835 5.55901
H -3.96064 -3.3247 -0.11008
H -2.23935 -3.34099 -0.6507
H 3.53195 -5.01962 -1.13585
H 3.80047 -4.18891 -2.71574
H 2.11102 -4.5061 -2.12394
H -0.69115 -2.7206 1.57068
H -0.78119 -1.64493 2.95514
H 0.93053 -4.15408 3.14491
H -0.03488 -3.33393 4.43823
$end

$opt
CONSTRAINT
tors           1           2           3           4    -111.638
tors           3           4           5           6     -27.833
tors           4           5           6           7    -177.791
tors           5           6           7           8    -173.424
tors           6           7           8           9    -144.987
tors           7           8           9          10    +119.911
tors           8           9          10          11    +133.021
tors           9          10          11          12    +160.056
tors          11          12          13          14    +128.150
ENDCONSTRAINT
$end

$rem
JOBTYPE                   OPT
METHOD                    B3LYP
DFT_D                     d3_op
BASIS                     STO-3G
GEOM_OPT_MAX_CYCLES       100
GEOM_OPT_TOL_GRADIENT     300
GEOM_OPT_TOL_DISPLACEMENT 1200
GEOM_OPT_TOL_ENERGY       100
SYMMETRY                  False
THRESH                    12
SCF_CONVERGENCE           8
MAX_SUB_FILE_NUM          128
MEM_STATIC                400
MEM_TOTAL                 4000
$end
--------------------------------------------------------------

   15   -1510.1287434149      6.71E-09 Convergence criterion met
 Total energy in the final basis set = -1510.12874341
   14   -1510.1985881813      4.35E-09 Convergence criterion met
 Total energy in the final basis set = -1510.19858818
   14   -1510.2326821887      3.31E-09 Convergence criterion met
 Total energy in the final basis set = -1510.23268219
   15   -1510.2499692629      1.68E-09 Convergence criterion met
 Total energy in the final basis set = -1510.24996926
   14   -1510.2580218251      3.69E-09 Convergence criterion met
 Total energy in the final basis set = -1510.25802183
   13   -1510.2624711681      5.15E-09 Convergence criterion met
 Total energy in the final basis set = -1510.26247117
   12   -1510.2645633843      9.35E-09 Convergence criterion met
 Total energy in the final basis set = -1510.26456338
   12   -1510.2659044339      9.98E-09 Convergence criterion met
   12   -1510.2700340148      7.11E-09 Convergence criterion met
 Total energy in the final basis set = -1510.27003401
   11   -1510.2703288529      9.67E-09 Convergence criterion met
 Total energy in the final basis set = -1510.27032885
   12   -1510.2706484400      4.23E-09 Convergence criterion met
 Total energy in the final basis set = -1510.27064844
   11   -1510.2707765911      8.30E-09 Convergence criterion met
 Total energy in the final basis set = -1510.27077659
   11   -1510.2708178707      3.65E-09 Convergence criterion met
 Total energy in the final basis set = -1510.27081787
   11   -1510.2708241216      2.42E-09 Convergence criterion met
 Total energy in the final basis set = -1510.27082412

             Standard Nuclear Orientation (Angstroms)
    I     Atom           X                Y                Z
 ----------------------------------------------------------------
    1      O       2.3635015320    -2.0121223957    -0.8658912735
    2      C       2.6845328336    -0.8416719578    -1.1655597746
    3      C       4.0907706063    -0.1540922988    -1.0255379804
    4      C       4.2237775521     0.9974004369     0.0539452866
    5      C       3.2200866867     0.9358965607     1.2673755354
    6      O       2.0160605928     0.2825268976     0.8769636792
    7      C       1.0263394453     0.2532127422     1.9809129995
    8      C      -0.1558390412    -0.6384426015     1.4533097690
    9      O      -1.4654627522    -0.1505011266     1.9487407495
   10      C      -2.2977954852     0.1986654694     0.8216323106
   11      C      -3.7276288276    -0.4091688297     1.0013309615
   12      C      -4.8221736137     0.3085302061     0.1135504750
   13      C      -4.3252974980     1.6297196035    -0.5777737000
   14      O      -4.4065910632     1.9248023288    -1.7884491714
   15      O       1.8502972432     0.0798658210    -1.8863263922
   16      O      -3.8759936647     2.5253321660     0.4482927607
   17      O      -1.8597391193     0.7305218097    -0.2248712227
   18      C      -3.3397060286     3.7614271519    -0.1629710505
   19      C      -3.7299175433    -1.8608485740     0.3393570464
   20      C      -5.0789328540    -2.5880205185     0.7267051549
   21      C      -6.1003681652    -1.8790540326    -0.2393315018
   22      C      -5.1625598514    -0.8232609887    -0.9414484615
   23      O      -3.8839813014    -1.5585180077    -1.0996359047
   24      H      -3.9921944310    -0.4413733935     2.0725701313
   25      H      -5.7073688888     0.5604680246     0.7260805181
   26      H      -2.8091266992    -2.4496078935     0.5203702018
   27      H      -5.0059752141    -3.6677358344     0.5207148684
   28      H      -5.3318413068    -2.4476484284     1.7899441141
   29      H      -6.5093710915    -2.5846047276    -0.9801490417
   30      H      -6.9360625624    -1.4034850803     0.2983158935
   31      H      -5.5084380038    -0.4354359864    -1.9195293315
   32      O       3.4202904874     1.3966755558     2.4120510238
   33      C       0.5121222319    -0.4987747700    -2.1484905260
   34      C       5.2805736801    -1.1178645234    -0.6006522024
   35      C       6.5919262056    -0.5416893489    -1.2621537066
   36      C       6.7801456578     0.7793347802    -0.4243320280
   37      C       5.6429984319     0.6282391685     0.6612689756
   38      O       5.4972852098    -0.8386223897     0.8384024700
   39      H       4.3034496292     0.2827635391    -2.0182969384
   40      H       4.1823909620     2.0024889504    -0.4045178899
   41      H       0.4905347382    -1.5572475009    -1.8180787833
   42      H       5.0806622332    -2.1949073424    -0.7634453996
   43      H       7.4353117011    -1.2346705166    -1.1118971101
   44      H       6.4746521229    -0.3526693101    -2.3412123633
   45      H       7.7699731487     0.8181407802     0.0569860099
   46      H       6.6486710699     1.6889665846    -1.0325081175
   47      H       5.8411201826     1.1183638733     1.6346320401
   48      H       0.3139092394    -0.4420492108    -3.2366671604
   49      H      -0.2645627674     0.0860242834    -1.6081294013
   50      H      -3.1178635264     4.4483730516     0.6743273429
   51      H      -4.0730707615     4.2309536596    -0.8494884878
   52      H      -2.4081276578     3.5534353448    -0.7288190516
   53      H      -0.1221021247    -0.6248210543     0.3479925261
   54      H      -0.0355931559    -1.6839767679     1.8082850741
   55      H       0.6571419859     1.2805711294     2.1968967281
   56      H       1.4781251934    -0.1555232809     2.9095612963
 ----------------------------------------------------------------

    9   -1510.2708249375      9.43E-09 Convergence criterion met
 Total energy in the final basis set = -1510.27082494
 Final energy is   -1510.27082493748
 **  OPTIMIZATION CONVERGED  **

                    Orbital Energies (a.u.)
 --------------------------------------------------------------

 Alpha MOs
 -- Occupied --
-18.942 -18.930 -18.928 -18.918 -18.894 -18.892 -18.883 -18.876
-18.872 -18.862 -10.111 -10.103 -10.097 -10.094 -10.077 -10.075
-10.068 -10.061 -10.060 -10.056 -10.055 -10.045 -10.044 -10.039
-10.038 -10.032 -10.025 -10.023 -10.019 -10.017  -1.020  -1.017
 -1.005  -0.997  -0.975  -0.967  -0.946  -0.939  -0.933  -0.925
 -0.767  -0.761  -0.730  -0.724  -0.713  -0.704  -0.700  -0.660
 -0.652  -0.615  -0.597  -0.585  -0.549  -0.542  -0.541  -0.536
 -0.518  -0.508  -0.491  -0.473  -0.460  -0.457  -0.452  -0.447
 -0.442  -0.435  -0.428  -0.415  -0.411  -0.408  -0.404  -0.398
 -0.396  -0.383  -0.374  -0.367  -0.364  -0.360  -0.353  -0.349
 -0.343  -0.339  -0.337  -0.333  -0.329  -0.328  -0.323  -0.315
 -0.309  -0.308  -0.306  -0.298  -0.292  -0.290  -0.287  -0.275
 -0.268  -0.256  -0.252  -0.243  -0.239  -0.237  -0.232  -0.183
 -0.179  -0.172  -0.168  -0.160  -0.157  -0.151  -0.149  -0.146
 -0.142

          Ground-State Mulliken Net Atomic Charges

     Atom                 Charge (a.u.)
  ----------------------------------------
      1 O                    -0.224534
      2 C                     0.218993
      3 C                    -0.081140
      4 C                    -0.075788
      5 C                     0.214757
      6 O                    -0.169848
      7 C                    -0.044742
      8 C                    -0.052258
      9 O                    -0.180747
     10 C                     0.220940
     11 C                    -0.076835
     12 C                    -0.080441
     13 C                     0.215514
     14 O                    -0.212269
     15 O                    -0.175367
     16 O                    -0.175764
     17 O                    -0.203448
     18 C                    -0.128889
     19 C                     0.024851
     20 C                    -0.143565
     21 C                    -0.143300
     22 C                     0.024225
     23 O                    -0.188942
     24 H                     0.089097
     25 H                     0.084867
     26 H                     0.081965
     27 H                     0.079537
     28 H                     0.074968
     29 H                     0.079236
     30 H                     0.074233
     31 H                     0.092257
     32 O                    -0.213412
     33 C                    -0.142408
     34 C                     0.022553
     35 C                    -0.141850
     36 C                    -0.145721
     37 C                     0.023383
     38 O                    -0.192749
     39 H                     0.084419
     40 H                     0.087491
     41 H                     0.093713
     42 H                     0.088583
     43 H                     0.077540
     44 H                     0.073097
     45 H                     0.078316
     46 H                     0.073429
     47 H                     0.088833
     48 H                     0.084015
     49 H                     0.095629
     50 H                     0.088564
     51 H                     0.089769
     52 H                     0.091309
     53 H                     0.103193
     54 H                     0.088731
     55 H                     0.092027
     56 H                     0.093985
  ----------------------------------------
  Sum of atomic charges =    -0.000000

                    Cartesian Multipole Moments
 -----------------------------------------------------------------
    Charge (ESU x 10^10)
                 0.0000
    Dipole Moment (Debye)
         X      -1.3773      Y       0.3117      Z       0.3847
       Tot       1.4636
    Quadrupole Moments (Debye-Ang)
        XX    -143.8336     XY       8.3580     YY    -157.3063
        XZ     -16.8309     YZ      -1.3254     ZZ    -166.2291

 Total job time:  71.79s(wall), 3418.13s(cpu)
        *  Thank you very much for using Q-Chem.  Have a nice day.  *
