 Q-Chem 5.0, Q-Chem, Inc., Pleasanton, CA (2017)
 Q-Chem 5.0.1 for Intel X86 EM64T Linux

User input:
--------------------------------------------------------------
$molecule
0  1
O 2.363501532 -2.0121223957 -0.8658912735
C 2.6845328336 -0.8416719578 -1.1655597746
C 4.0907706063 -0.1540922988 -1.0255379804
C 4.2237775521 0.9974004369 0.0539452866
C 3.2200866867 0.9358965607 1.2673755354
O 2.0160605928 0.2825268976 0.8769636792
C 1.0263394453 0.2532127422 1.9809129995
C -0.1558390412 -0.6384426015 1.453309769
O -1.4654627522 -0.1505011266 1.9487407495
C -2.2977954852 0.1986654694 0.8216323106
C -3.7276288276 -0.4091688297 1.0013309615
C -4.8221736137 0.3085302061 0.113550475
C -4.325297498 1.6297196035 -0.5777737
O -4.4065910632 1.9248023288 -1.7884491714
O 1.8502972432 0.079865821 -1.8863263922
O -3.8759936647 2.525332166 0.4482927607
O -1.8597391193 0.7305218097 -0.2248712227
C -3.3397060286 3.7614271519 -0.1629710505
C -3.7299175433 -1.860848574 0.3393570464
C -5.078932854 -2.5880205185 0.7267051549
C -6.1003681652 -1.8790540326 -0.2393315018
C -5.1625598514 -0.8232609887 -0.9414484615
O -3.8839813014 -1.5585180077 -1.0996359047
H -3.992194431 -0.4413733935 2.0725701313
H -5.7073688888 0.5604680246 0.7260805181
H -2.8091266992 -2.4496078935 0.5203702018
H -5.0059752141 -3.6677358344 0.5207148684
H -5.3318413068 -2.4476484284 1.7899441141
H -6.5093710915 -2.5846047276 -0.9801490417
H -6.9360625624 -1.4034850803 0.2983158935
H -5.5084380038 -0.4354359864 -1.9195293315
O 3.4202904874 1.3966755558 2.4120510238
C 0.5121222319 -0.49877477 -2.148490526
C 5.2805736801 -1.1178645234 -0.6006522024
C 6.5919262056 -0.5416893489 -1.2621537066
C 6.7801456578 0.7793347802 -0.424332028
C 5.6429984319 0.6282391685 0.6612689756
O 5.4972852098 -0.8386223897 0.83840247
H 4.3034496292 0.2827635391 -2.0182969384
H 4.182390962 2.0024889504 -0.4045178899
H 0.4905347382 -1.5572475009 -1.8180787833
H 5.0806622332 -2.1949073424 -0.7634453996
H 7.4353117011 -1.2346705166 -1.1118971101
H 6.4746521229 -0.3526693101 -2.3412123633
H 7.7699731487 0.8181407802 0.0569860099
H 6.6486710699 1.6889665846 -1.0325081175
H 5.8411201826 1.1183638733 1.6346320401
H 0.3139092394 -0.4420492108 -3.2366671604
H -0.2645627674 0.0860242834 -1.6081294013
H -3.1178635264 4.4483730516 0.6743273429
H -4.0730707615 4.2309536596 -0.8494884878
H -2.4081276578 3.5534353448 -0.7288190516
H -0.1221021247 -0.6248210543 0.3479925261
H -0.0355931559 -1.6839767679 1.8082850741
H 0.6571419859 1.2805711294 2.1968967281
H 1.4781251934 -0.1555232809 2.9095612963
$end

$rem
JOBTYPE                   OPT
METHOD                    B3LYP
DFT_D                     d3_op
BASIS                     STO-3G
GEOM_OPT_MAX_CYCLES       100
GEOM_OPT_TOL_GRADIENT     300
GEOM_OPT_TOL_DISPLACEMENT 1200
GEOM_OPT_TOL_ENERGY       100
SYMMETRY                  False
THRESH                    12
SCF_CONVERGENCE           8
MAX_SUB_FILE_NUM          128
MEM_STATIC                400
MEM_TOTAL                 4000
$end
--------------------------------------------------------------

   16   -1510.2702631150      4.58E-09 Convergence criterion met
 Total energy in the final basis set = -1510.27026312
   14   -1510.2748512830      5.02E-09 Convergence criterion met
 Total energy in the final basis set = -1510.27485128
   14   -1510.2785035443      6.34E-09 Convergence criterion met
 Total energy in the final basis set = -1510.27850354
   15   -1510.2823612708      2.23E-09 Convergence criterion met
 Total energy in the final basis set = -1510.28236127
   14   -1510.2842902606      6.58E-09 Convergence criterion met
 Total energy in the final basis set = -1510.28429026
   13   -1510.2851422900      5.45E-09 Convergence criterion met
 Total energy in the final basis set = -1510.28514229
   12   -1510.2857871636      9.17E-09 Convergence criterion met
 Total energy in the final basis set = -1510.28578716
   13   -1510.2864783567      4.96E-09 Convergence criterion met
   11   -1510.3050306720      4.55E-09 Convergence criterion met
 Total energy in the final basis set = -1510.30503067
   11   -1510.3050370916      2.61E-09 Convergence criterion met
 Total energy in the final basis set = -1510.30503709
   11   -1510.3050392967      4.25E-09 Convergence criterion met
 Total energy in the final basis set = -1510.30503930
   11   -1510.3050390806      1.70E-09 Convergence criterion met
 Total energy in the final basis set = -1510.30503908
    9   -1510.3050391525      4.69E-09 Convergence criterion met
 Total energy in the final basis set = -1510.30503915
    9   -1510.3050390582      5.40E-09 Convergence criterion met
 Total energy in the final basis set = -1510.30503906

             Standard Nuclear Orientation (Angstroms)
    I     Atom           X                Y                Z
 ----------------------------------------------------------------
    1      O      -1.5620771193    -1.2089829884    -0.2136092671
    2      C      -1.8121745184    -0.6271415989     0.8678364442
    3      C      -2.9762873890     0.3886352712     1.1234289249
    4      C      -3.5263881658     1.0477884122    -0.2061278138
    5      C      -2.7494089588     0.6479099970    -1.5121072218
    6      O      -1.4999102925     1.3723760453    -1.5330517532
    7      C      -0.7325488292     1.0513439433    -2.7604153870
    8      C       0.0284589112    -0.3248064876    -2.6583157308
    9      O       1.4785136436    -0.0750463786    -2.4464090802
   10      C       1.9554089111    -0.8104961580    -1.3192454415
   11      C       3.4786960699    -0.5193126002    -1.1023970384
   12      C       3.7811478528     0.2924638315     0.2296973887
   13      C       2.4952942852     0.7267250115     1.0205439889
   14      O       2.2662950524     0.5799100756     2.2401752808
   15      O      -1.0854788187    -0.7788641564     2.0802254270
   16      O       1.6032628029     1.3300362832     0.0851598091
   17      O       1.2529663416    -1.6187786712    -0.6684973990
   18      C       0.3415336713     1.7636692728     0.7325665366
   19      C       4.2576171603    -1.8713173871    -0.7942512666
   20      C       5.8097793196    -1.5992798035    -0.9069019179
   21      C       6.0825705419    -0.8184029705     0.4324782206
   22      C       4.6319248725    -0.7610638875     1.0490918240
   23      O       4.0369939449    -2.0609315837     0.6573235619
   24      H       3.8699864178     0.0027742443    -1.9927884719
   25      H       4.3672594527     1.2019898880     0.0012872717
   26      H       3.8887105806    -2.7494155010    -1.3588730565
   27      H       6.3640889504    -2.5506271635    -0.9400912589
   28      H       6.0644385926    -1.0115733138    -1.8034421866
   29      H       6.7617302284    -1.3791247696     1.0942394493
   30      H       6.5026875050     0.1857732840     0.2626220968
   31      H       4.5724786071    -0.6234683575     2.1464331544
   32      O      -3.1591464195    -0.0501525347    -2.4615717241
   33      C      -0.0088962723    -1.7960691599     1.9476617617
   34      C      -4.2773229946    -0.3752010172     1.6320501760
   35      C      -5.3091893460     0.6916200132     2.1734202653
   36      C      -5.8610711957     1.2933423269     0.8274920221
   37      C      -5.0111440437     0.4906607513    -0.2326985171
   38      O      -4.8896561346    -0.8557686282     0.3743206399
   39      H      -2.6364539448     1.1435762127     1.8538117481
   40      H      -3.5045031667     2.1496776381    -0.1252112124
   41      H      -0.4289083730    -2.8128885157     2.0841593819
   42      H      -4.0701024669    -1.2208985232     2.3162833537
   43      H      -6.1050033247     0.1973972982     2.7529945352
   44      H      -4.8252366624     1.4478052201     2.8119708158
   45      H      -6.9342113065     1.0790112157     0.7005147075
   46      H      -5.7065997605     2.3814522167     0.7502822978
   47      H      -5.4467994692     0.4161185739    -1.2479536427
   48      H       0.7094693169    -1.5807709501     2.7595973299
   49      H       0.4997757188    -1.7358418865     0.9559434362
   50      H      -0.4404582981     1.7066881522    -0.0609287579
   51      H       0.4419202122     2.8036494904     1.1033150544
   52      H       0.0843469986     1.0997469437     1.5820645424
   53      H      -0.3769204409    -0.9262182470    -1.8089778115
   54      H      -0.0892218139    -0.8926272266    -3.6048340896
   55      H       0.0017101403     1.8743512444    -2.8781554691
   56      H      -1.4186207053     1.0342350759    -3.6330080745
 ----------------------------------------------------------------

    9   -1510.3050389800      4.68E-09 Convergence criterion met
 Total energy in the final basis set = -1510.30503898
 Final energy is   -1510.30503897995
 **  OPTIMIZATION CONVERGED  **

                    Orbital Energies (a.u.)
 --------------------------------------------------------------

 Alpha MOs
 -- Occupied --
-18.935 -18.935 -18.933 -18.929 -18.888 -18.887 -18.880 -18.878
-18.875 -18.874 -10.103 -10.103 -10.102 -10.097 -10.071 -10.062
-10.060 -10.059 -10.057 -10.056 -10.039 -10.039 -10.038 -10.037
-10.037 -10.036 -10.022 -10.021 -10.020 -10.020  -1.017  -1.012
 -1.007  -1.005  -0.971  -0.970  -0.940  -0.937  -0.934  -0.933
 -0.765  -0.763  -0.727  -0.723  -0.711  -0.706  -0.695  -0.654
 -0.650  -0.616  -0.597  -0.579  -0.547  -0.543  -0.539  -0.536
 -0.512  -0.509  -0.479  -0.472  -0.462  -0.460  -0.454  -0.451
 -0.435  -0.430  -0.427  -0.414  -0.411  -0.408  -0.403  -0.397
 -0.390  -0.374  -0.371  -0.366  -0.364  -0.359  -0.354  -0.345
 -0.343  -0.341  -0.337  -0.333  -0.330  -0.327  -0.318  -0.311
 -0.309  -0.306  -0.304  -0.299  -0.292  -0.288  -0.281  -0.275
 -0.269  -0.257  -0.252  -0.242  -0.236  -0.235  -0.233  -0.189
 -0.176  -0.170  -0.165  -0.160  -0.158  -0.151  -0.150  -0.145
 -0.143

          Ground-State Mulliken Net Atomic Charges

     Atom                 Charge (a.u.)
  ----------------------------------------
      1 O                    -0.210248
      2 C                     0.216928
      3 C                    -0.079168
      4 C                    -0.081347
      5 C                     0.218316
      6 O                    -0.179032
      7 C                    -0.049904
      8 C                    -0.065288
      9 O                    -0.170182
     10 C                     0.221432
     11 C                    -0.078219
     12 C                    -0.078552
     13 C                     0.210081
     14 O                    -0.213399
     15 O                    -0.170645
     16 O                    -0.175838
     17 O                    -0.218962
     18 C                    -0.155896
     19 C                     0.025673
     20 C                    -0.144182
     21 C                    -0.143778
     22 C                     0.023331
     23 O                    -0.187655
     24 H                     0.086633
     25 H                     0.084593
     26 H                     0.084321
     27 H                     0.078353
     28 H                     0.073515
     29 H                     0.078313
     30 H                     0.073077
     31 H                     0.090238
     32 O                    -0.207461
     33 C                    -0.149177
     34 C                     0.025799
     35 C                    -0.143824
     36 C                    -0.143877
     37 C                     0.025318
     38 O                    -0.187292
     39 H                     0.086896
     40 H                     0.084213
     41 H                     0.079705
     42 H                     0.085179
     43 H                     0.078854
     44 H                     0.074271
     45 H                     0.078712
     46 H                     0.073061
     47 H                     0.089723
     48 H                     0.091194
     49 H                     0.122008
     50 H                     0.108437
     51 H                     0.074601
     52 H                     0.093885
     53 H                     0.123620
     54 H                     0.084738
     55 H                     0.095393
     56 H                     0.093517
  ----------------------------------------
  Sum of atomic charges =     0.000000

                    Cartesian Multipole Moments
 -----------------------------------------------------------------
    Charge (ESU x 10^10)
                -0.0000
    Dipole Moment (Debye)
         X       1.0939      Y       2.9589      Z      -0.3673
       Tot       3.1760
    Quadrupole Moments (Debye-Ang)
        XX    -145.1764     XY      -7.9648     YY    -160.6019
        XZ     -11.2682     YZ      -0.6363     ZZ    -159.9091

 Total job time:  192.64s(wall), 9196.81s(cpu)
        *  Thank you very much for using Q-Chem.  Have a nice day.  *
