 Q-Chem 5.0, Q-Chem, Inc., Pleasanton, CA (2017)
 Q-Chem 5.0.1 for Intel X86 EM64T Linux

User input:
--------------------------------------------------------------
$molecule
0  1
O -3.9491255894 1.7286790199 1.4307659598
C -3.868373395 1.6552896588 0.1858861803
C -4.5314474169 0.5976780766 -0.7634279037
C -3.7674291203 -0.7911225935 -0.8602301741
C -2.5573098783 -0.9459606333 0.130504872
O -1.7243401759 0.2114919311 0.0168874106
C -0.486305156 0.0359585168 0.8184499137
C 0.2803256756 1.4032301846 0.689146816
O 1.75365658 1.4019041984 0.89823595
C 2.4658135987 0.2352273412 0.4897227003
C 3.9950692916 0.56761785 0.6790207022
C 4.9298433912 -0.6388821384 0.2903815058
C 4.3344692519 -2.0809140164 0.4624053758
O 4.7142223055 -3.1108948442 -0.1370758273
O -3.2130490093 2.6345902027 -0.634531233
O 3.4980451789 -2.0945564814 1.6287837123
O 1.9918491426 -0.7834831812 -0.0641373207
C 2.9460650869 -3.448872518 1.8545851653
C 4.3513133117 1.5673236722 -0.5099310957
C 5.866382103 2.009813013 -0.4270437167
C 6.5932281417 0.7526090111 -1.0369163838
C 5.3772982247 -0.2407289247 -1.1821032585
O 4.2987883459 0.6496702177 -1.6748785889
H 4.1895924884 0.978744486 1.6846635371
H 5.8187391895 -0.6203498773 0.9500241302
H 3.6231091572 2.3930417106 -0.6283152695
H 6.0396157944 2.9151289954 -1.0301863577
H 6.1742775429 2.2147079094 0.6110215749
H 7.0216256732 0.9794408614 -2.0264508352
H 7.3903034059 0.3592100479 -0.3861737122
H 5.5270063923 -1.0991525974 -1.8656452851
O -2.308449395 -1.9227051621 0.8681919867
C -2.6389622531 3.7008958033 0.2157348546
C -5.9488039463 0.1157218289 -0.2287331428
C -6.7383669053 -0.5124273592 -1.4434290312
C -5.9777297419 -1.8799347663 -1.621118884
C -4.9208217931 -1.7976005634 -0.451615132
O -5.6313213579 -1.0565969996 0.6170525683
H -4.6131930362 1.0575348616 -1.7639810742
H -3.3981940748 -0.9676877836 -1.8876142607
H -2.0061616995 3.2852228784 1.0245740864
H -6.50026592 0.8759555448 0.3575440754
H -7.7946418267 -0.6713362365 -1.173974548
H -6.6934579174 0.1207722043 -2.3437738242
H -6.6502329726 -2.7394099069 -1.4717053916
H -5.4976425673 -1.9748071518 -2.6082285125
H -4.5465315564 -2.7663983173 -0.066876356
H -3.4337281669 4.3205381188 0.6802779254
H -2.0246944825 4.3323376614 -0.4523041212
H 1.883672371 -3.4757793732 1.5373343548
H 3.0111702322 -3.6681113973 2.9373234033
H 3.5246903717 -4.1934645388 1.2716661003
H 0.0743600579 1.7969250702 -0.3324772939
H -0.1052122229 2.1401389156 1.4228497603
H 0.1645819774 -0.7586239092 0.3886296943
H -0.7211473308 -0.2040724096 1.8763907601
$end

$rem
JOBTYPE                   OPT
METHOD                    B3LYP
DFT_D                     d3_op
BASIS                     STO-3G
GEOM_OPT_MAX_CYCLES       100
GEOM_OPT_TOL_GRADIENT     300
GEOM_OPT_TOL_DISPLACEMENT 1200
GEOM_OPT_TOL_ENERGY       100
SYMMETRY                  False
THRESH                    12
SCF_CONVERGENCE           8
MAX_SUB_FILE_NUM          128
MEM_STATIC                400
MEM_TOTAL                 4000
$end
--------------------------------------------------------------

   16   -1510.2707516329      5.57E-09 Convergence criterion met
 Total energy in the final basis set = -1510.27075163
   13   -1510.2736438141      5.35E-09 Convergence criterion met
 Total energy in the final basis set = -1510.27364381
   13   -1510.2758705891      6.79E-09 Convergence criterion met
 Total energy in the final basis set = -1510.27587059
   14   -1510.2783780484      1.61E-09 Convergence criterion met
 Total energy in the final basis set = -1510.27837805
   13   -1510.2805333927      7.49E-09 Convergence criterion met
 Total energy in the final basis set = -1510.28053339
   14   -1510.2823162133      5.70E-09 Convergence criterion met
 Total energy in the final basis set = -1510.28231621
   13   -1510.2836379364      5.13E-09 Convergence criterion met
 Total energy in the final basis set = -1510.28363794
   13   -1510.2845977009      4.04E-09 Convergence criterion met
   12   -1510.2902198913      3.86E-09 Convergence criterion met
 Total energy in the final basis set = -1510.29021989
   11   -1510.2902223285      6.31E-09 Convergence criterion met
 Total energy in the final basis set = -1510.29022233
   10   -1510.2902282242      8.34E-09 Convergence criterion met
 Total energy in the final basis set = -1510.29022822
   11   -1510.2902301486      3.83E-09 Convergence criterion met
 Total energy in the final basis set = -1510.29023015
   12   -1510.2902256544      2.79E-09 Convergence criterion met
 Total energy in the final basis set = -1510.29022565
    9   -1510.2902269974      5.46E-09 Convergence criterion met
 Total energy in the final basis set = -1510.29022700

             Standard Nuclear Orientation (Angstroms)
    I     Atom           X                Y                Z
 ----------------------------------------------------------------
    1      O      -3.7359918667     0.9150345166     2.0209972439
    2      C      -4.0852530908     1.2663857027     0.8735043236
    3      C      -4.5368362801     0.3522532741    -0.3186250136
    4      C      -3.3695269799    -0.5399723815    -0.9221432447
    5      C      -1.9867007549    -0.3659711667    -0.2053439034
    6      O      -1.7176417733     1.0342493439    -0.0789324292
    7      C      -0.4184573266     1.2678445669     0.5967064758
    8      C       0.4930915240     2.1268676927    -0.3552353305
    9      O       1.9012919653     2.1164737363     0.1083069034
   10      C       2.5520841135     0.9214599429    -0.3502567416
   11      C       4.0274470651     0.9208129756     0.1611607463
   12      C       4.5855963467    -0.5411222095     0.4071840102
   13      C       3.5195565316    -1.6815624648     0.2149805418
   14      O       3.5670284416    -2.6177601285    -0.6119982998
   15      O      -4.1887090346     2.6320850859     0.4466895167
   16      O       2.5055560246    -1.5171889629     1.2119496578
   17      O       2.0018059666     0.0613756101    -1.0727486513
   18      C       1.4469026744    -2.5452953531     1.0527147367
   19      C       5.0059777691     1.4127390914    -0.9958638909
   20      C       6.4350303165     1.6719601478    -0.3721098721
   21      C       6.9653729290     0.1999854945    -0.1984099580
   22      C       5.7191883426    -0.6290480487    -0.6961983715
   23      O       5.1866728778     0.1921896199    -1.8105699862
   24      H       4.0966706295     1.5571717785     1.0604475514
   25      H       5.0019322669    -0.6260408033     1.4274895238
   26      H       4.6037701290     2.2398838250    -1.6126544382
   27      H       7.0607431254     2.2495942212    -1.0709415957
   28      H       6.3754491464     2.2183709358     0.5827576751
   29      H       7.8376957786     0.0077770530    -0.8432777238
   30      H       7.2363737714    -0.0364415836     0.8429266925
   31      H       5.9254210050    -1.6600128566    -1.0436117837
   32      O      -1.2236307059    -1.2762409177     0.1846976347
   33      C      -3.7419789762     3.5328852401     1.5329857431
   34      C      -5.5462349116    -0.7818914846     0.1555446402
   35      C      -6.2550096397    -1.3778548119    -1.1252302954
   36      C      -5.0974340180    -2.2545469912    -1.7332215096
   37      C      -3.9420561160    -1.9988058569    -0.6890947861
   38      O      -4.6562075831    -1.8761838523     0.6028898776
   39      H      -4.9826629223     0.9972225756    -1.0955112935
   40      H      -3.2263878074    -0.3218212633    -1.9969952271
   41      H      -2.6699264530     3.3786947477     1.7720640633
   42      H      -6.2261860924    -0.4781020466     0.9749073776
   43      H      -7.1193843652    -1.9954366789    -0.8338697740
   44      H      -6.5987595161    -0.5887904710    -1.8130742129
   45      H      -5.3676998134    -3.3221957944    -1.7545616369
   46      H      -4.8146117002    -1.9414297586    -2.7511099916
   47      H      -3.1588319452    -2.7795590661    -0.6277687596
   48      H      -4.3324549104     3.3832064195     2.4599985035
   49      H      -3.8915014830     4.5625858677     1.1595460216
   50      H       0.4971968505    -2.0549440417     0.7451496614
   51      H       1.3061894345    -3.0507887602     2.0274623017
   52      H       1.7595001638    -3.2796363434     0.2841380569
   53      H       0.4186995877     1.7137120427    -1.3843061563
   54      H       0.1728370267     3.1875509555    -0.3547081927
   55      H       0.0595805094     0.2870987003     0.8057248373
   56      H      -0.6094128376     1.7982228313     1.5526150530
 ----------------------------------------------------------------

    9   -1510.2902268443      4.24E-09 Convergence criterion met
 Total energy in the final basis set = -1510.29022684
 Final energy is   -1510.29022684434
 **  OPTIMIZATION CONVERGED  **

                    Orbital Energies (a.u.)
 --------------------------------------------------------------

 Alpha MOs
 -- Occupied --
-18.946 -18.939 -18.932 -18.915 -18.894 -18.889 -18.886 -18.880
-18.869 -18.862 -10.114 -10.102 -10.098 -10.088 -10.077 -10.073
-10.064 -10.061 -10.061 -10.060 -10.054 -10.044 -10.038 -10.038
-10.032 -10.032 -10.022 -10.021 -10.020 -10.018  -1.025  -1.016
 -1.007  -0.995  -0.971  -0.969  -0.950  -0.940  -0.933  -0.922
 -0.767  -0.761  -0.730  -0.722  -0.712  -0.706  -0.697  -0.664
 -0.645  -0.620  -0.598  -0.583  -0.548  -0.543  -0.539  -0.535
 -0.514  -0.508  -0.483  -0.479  -0.462  -0.457  -0.453  -0.450
 -0.437  -0.431  -0.429  -0.415  -0.412  -0.408  -0.405  -0.402
 -0.392  -0.381  -0.374  -0.367  -0.361  -0.357  -0.351  -0.350
 -0.345  -0.336  -0.334  -0.332  -0.330  -0.327  -0.323  -0.314
 -0.310  -0.307  -0.303  -0.301  -0.294  -0.288  -0.279  -0.275
 -0.271  -0.257  -0.254  -0.251  -0.236  -0.235  -0.232  -0.193
 -0.176  -0.174  -0.172  -0.158  -0.157  -0.149  -0.145  -0.145
 -0.142

          Ground-State Mulliken Net Atomic Charges

     Atom                 Charge (a.u.)
  ----------------------------------------
      1 O                    -0.217872
      2 C                     0.211476
      3 C                    -0.079558
      4 C                    -0.077166
      5 C                     0.223780
      6 O                    -0.171716
      7 C                    -0.055858
      8 C                    -0.050652
      9 O                    -0.171487
     10 C                     0.212283
     11 C                    -0.078310
     12 C                    -0.079335
     13 C                     0.215100
     14 O                    -0.214316
     15 O                    -0.169663
     16 O                    -0.180937
     17 O                    -0.208595
     18 C                    -0.149342
     19 C                     0.025629
     20 C                    -0.143916
     21 C                    -0.143805
     22 C                     0.024613
     23 O                    -0.187648
     24 H                     0.086938
     25 H                     0.083834
     26 H                     0.081772
     27 H                     0.077919
     28 H                     0.073585
     29 H                     0.078100
     30 H                     0.073355
     31 H                     0.091570
     32 O                    -0.205782
     33 C                    -0.128006
     34 C                     0.025755
     35 C                    -0.143853
     36 C                    -0.143982
     37 C                     0.024499
     38 O                    -0.186534
     39 H                     0.086501
     40 H                     0.087788
     41 H                     0.084663
     42 H                     0.084264
     43 H                     0.078560
     44 H                     0.073642
     45 H                     0.079231
     46 H                     0.073689
     47 H                     0.091634
     48 H                     0.089230
     49 H                     0.089049
     50 H                     0.104777
     51 H                     0.078294
     52 H                     0.096242
     53 H                     0.096440
     54 H                     0.089457
     55 H                     0.107045
     56 H                     0.087619
  ----------------------------------------
  Sum of atomic charges =     0.000000

                    Cartesian Multipole Moments
 -----------------------------------------------------------------
    Charge (ESU x 10^10)
                 0.0000
    Dipole Moment (Debye)
         X      -0.8799      Y       3.2995      Z       0.0189
       Tot       3.4148
    Quadrupole Moments (Debye-Ang)
        XX    -142.2273     XY       3.8443     YY    -156.9564
        XZ      15.9937     YZ       1.6939     ZZ    -164.0917

 Total job time:  102.50s(wall), 4884.38s(cpu)
        *  Thank you very much for using Q-Chem.  Have a nice day.  *
