 Q-Chem 5.0, Q-Chem, Inc., Pleasanton, CA (2017)
 Q-Chem 5.0.1 for Intel X86 EM64T Linux

User input:
--------------------------------------------------------------
$molecule
0  1
O -3.94934 -3.66094 2.70899
C -3.26408 -4.56952 2.26188
C -3.36658 -6.02376 2.66595
C -2.66955 -6.44113 3.97125
C -2.09897 -5.32496 4.81783
O -1.33499 -4.49922 4.04329
C -0.63823 -3.5032 4.79942
C 0.11389 -2.5631 3.86312
O 1.2104 -1.9516 4.5607
C 1.80117 -2.72178 5.50779
C 3.03216 -2.08106 6.10345
C 3.72539 -2.90506 7.19831
C 3.3183 -4.3622 7.28623
O 3.99081 -5.25769 7.77655
O -2.45854 -4.30992 1.19796
O 1.97449 -4.54235 7.46562
O 2.00044 -3.87928 5.13936
C 1.32679 -5.7338 7.75008
C 4.19206 -1.90656 5.09985
C 5.11384 -0.78548 5.57504
C 5.75804 -1.44269 6.77856
C 5.17203 -2.8556 6.66648
O 4.99429 -3.04577 5.28393
H 2.72045 -1.07815 6.47397
H 3.61829 -2.46538 8.21426
H 3.85136 -1.71111 4.05965
H 5.88888 -0.64971 4.78676
H 4.62151 0.19056 5.77449
H 6.85961 -1.45487 6.62265
H 5.51527 -0.98054 7.76002
H 5.83926 -3.58607 7.17448
O -2.40072 -5.10655 5.98647
C -2.30227 -3.06543 0.62455
C -4.81329 -6.45433 2.97279
C -4.95653 -7.96579 2.80128
C -4.19174 -8.4618 4.01111
C -3.84505 -7.13125 4.68842
O -4.93195 -6.29605 4.36705
H -2.9761 -6.62192 1.81063
H -1.82096 -7.13209 3.76958
H -1.90366 -2.34678 1.37072
H -5.56783 -5.92377 2.35137
H -6.03387 -8.21211 2.93883
H -4.61115 -8.36522 1.82351
H -4.88822 -9.05044 4.64889
H -3.28371 -9.06226 3.78643
H -3.65242 -7.29518 5.77118
H -3.27573 -2.69878 0.2345
H -1.58498 -3.14063 -0.21817
H 0.57877 -5.94136 6.958
H 0.79896 -5.63936 8.72132
H 2.0192 -6.60107 7.8005
H 0.57095 -3.18923 3.06486
H -0.54189 -1.81913 3.36514
H -0.11375 -4.08082 5.57624
H -1.34384 -2.86484 5.37789
$end

$opt
CONSTRAINT
tors           1           2           3           4     -80.550
tors           3           4           5           6     -49.794
tors           4           5           6           7    -173.408
tors           5           6           7           8    -176.116
tors           6           7           8           9    -156.106
tors           7           8           9          10     +33.174
tors           8           9          10          11    +174.022
tors           9          10          11          12    +179.061
tors          11          12          13          14    +156.911
ENDCONSTRAINT
$end

$rem
JOBTYPE                   OPT
METHOD                    B3LYP
DFT_D                     d3_op
BASIS                     STO-3G
GEOM_OPT_MAX_CYCLES       100
GEOM_OPT_TOL_GRADIENT     300
GEOM_OPT_TOL_DISPLACEMENT 1200
GEOM_OPT_TOL_ENERGY       100
SYMMETRY                  False
THRESH                    12
SCF_CONVERGENCE           8
MAX_SUB_FILE_NUM          128
MEM_STATIC                400
MEM_TOTAL                 4000
$end
--------------------------------------------------------------

   15   -1510.0812078208      9.57E-09 Convergence criterion met
 Total energy in the final basis set = -1510.08120782
   14   -1510.1590006557      9.98E-09 Convergence criterion met
 Total energy in the final basis set = -1510.15900066
   14   -1510.2036498758      9.56E-09 Convergence criterion met
 Total energy in the final basis set = -1510.20364988
   15   -1510.2309656403      2.34E-09 Convergence criterion met
 Total energy in the final basis set = -1510.23096564
   14   -1510.2460602232      5.74E-09 Convergence criterion met
 Total energy in the final basis set = -1510.24606022
   13   -1510.2544301780      8.37E-09 Convergence criterion met
 Total energy in the final basis set = -1510.25443018
   13   -1510.2594325133      7.56E-09 Convergence criterion met
 Total energy in the final basis set = -1510.25943251
   13   -1510.2627210678      3.81E-09 Convergence criterion met
    9   -1510.2706149966      6.86E-09 Convergence criterion met
 Total energy in the final basis set = -1510.27061500
    9   -1510.2706179078      5.57E-09 Convergence criterion met
 Total energy in the final basis set = -1510.27061791
    9   -1510.2706207848      4.60E-09 Convergence criterion met
 Total energy in the final basis set = -1510.27062078
    9   -1510.2706253106      5.10E-09 Convergence criterion met
 Total energy in the final basis set = -1510.27062531
    9   -1510.2706266774      4.70E-09 Convergence criterion met
 Total energy in the final basis set = -1510.27062668
    9   -1510.2706213601      7.35E-09 Convergence criterion met
 Total energy in the final basis set = -1510.27062136

             Standard Nuclear Orientation (Angstroms)
    I     Atom           X                Y                Z
 ----------------------------------------------------------------
    1      O      -3.9491255894     1.7286790199     1.4307659598
    2      C      -3.8683733950     1.6552896588     0.1858861803
    3      C      -4.5314474169     0.5976780766    -0.7634279037
    4      C      -3.7674291203    -0.7911225935    -0.8602301741
    5      C      -2.5573098783    -0.9459606333     0.1305048720
    6      O      -1.7243401759     0.2114919311     0.0168874106
    7      C      -0.4863051560     0.0359585168     0.8184499137
    8      C       0.2803256756     1.4032301846     0.6891468160
    9      O       1.7536565800     1.4019041984     0.8982359500
   10      C       2.4658135987     0.2352273412     0.4897227003
   11      C       3.9950692916     0.5676178500     0.6790207022
   12      C       4.9298433912    -0.6388821384     0.2903815058
   13      C       4.3344692519    -2.0809140164     0.4624053758
   14      O       4.7142223055    -3.1108948442    -0.1370758273
   15      O      -3.2130490093     2.6345902027    -0.6345312330
   16      O       3.4980451789    -2.0945564814     1.6287837123
   17      O       1.9918491426    -0.7834831812    -0.0641373207
   18      C       2.9460650869    -3.4488725180     1.8545851653
   19      C       4.3513133117     1.5673236722    -0.5099310957
   20      C       5.8663821030     2.0098130130    -0.4270437167
   21      C       6.5932281417     0.7526090111    -1.0369163838
   22      C       5.3772982247    -0.2407289247    -1.1821032585
   23      O       4.2987883459     0.6496702177    -1.6748785889
   24      H       4.1895924884     0.9787444860     1.6846635371
   25      H       5.8187391895    -0.6203498773     0.9500241302
   26      H       3.6231091572     2.3930417106    -0.6283152695
   27      H       6.0396157944     2.9151289954    -1.0301863577
   28      H       6.1742775429     2.2147079094     0.6110215749
   29      H       7.0216256732     0.9794408614    -2.0264508352
   30      H       7.3903034059     0.3592100479    -0.3861737122
   31      H       5.5270063923    -1.0991525974    -1.8656452851
   32      O      -2.3084493950    -1.9227051621     0.8681919867
   33      C      -2.6389622531     3.7008958033     0.2157348546
   34      C      -5.9488039463     0.1157218289    -0.2287331428
   35      C      -6.7383669053    -0.5124273592    -1.4434290312
   36      C      -5.9777297419    -1.8799347663    -1.6211188840
   37      C      -4.9208217931    -1.7976005634    -0.4516151320
   38      O      -5.6313213579    -1.0565969996     0.6170525683
   39      H      -4.6131930362     1.0575348616    -1.7639810742
   40      H      -3.3981940748    -0.9676877836    -1.8876142607
   41      H      -2.0061616995     3.2852228784     1.0245740864
   42      H      -6.5002659200     0.8759555448     0.3575440754
   43      H      -7.7946418267    -0.6713362365    -1.1739745480
   44      H      -6.6934579174     0.1207722043    -2.3437738242
   45      H      -6.6502329726    -2.7394099069    -1.4717053916
   46      H      -5.4976425673    -1.9748071518    -2.6082285125
   47      H      -4.5465315564    -2.7663983173    -0.0668763560
   48      H      -3.4337281669     4.3205381188     0.6802779254
   49      H      -2.0246944825     4.3323376614    -0.4523041212
   50      H       1.8836723710    -3.4757793732     1.5373343548
   51      H       3.0111702322    -3.6681113973     2.9373234033
   52      H       3.5246903717    -4.1934645388     1.2716661003
   53      H       0.0743600579     1.7969250702    -0.3324772939
   54      H      -0.1052122229     2.1401389156     1.4228497603
   55      H       0.1645819774    -0.7586239092     0.3886296943
   56      H      -0.7211473308    -0.2040724096     1.8763907601
 ----------------------------------------------------------------

    9   -1510.2706210961      6.49E-09 Convergence criterion met
 Total energy in the final basis set = -1510.27062110
 Final energy is   -1510.27062109607
 **  OPTIMIZATION CONVERGED  **

                    Orbital Energies (a.u.)
 --------------------------------------------------------------

 Alpha MOs
 -- Occupied --
-18.944 -18.934 -18.929 -18.926 -18.889 -18.888 -18.884 -18.877
-18.871 -18.867 -10.112 -10.100 -10.098 -10.095 -10.079 -10.063
-10.063 -10.062 -10.060 -10.057 -10.055 -10.053 -10.042 -10.038
-10.037 -10.034 -10.023 -10.021 -10.018 -10.017  -1.020  -1.013
 -1.005  -1.004  -0.973  -0.967  -0.948  -0.937  -0.931  -0.930
 -0.766  -0.761  -0.731  -0.722  -0.713  -0.704  -0.698  -0.662
 -0.656  -0.620  -0.596  -0.585  -0.547  -0.544  -0.539  -0.536
 -0.515  -0.508  -0.485  -0.470  -0.461  -0.460  -0.452  -0.446
 -0.442  -0.433  -0.428  -0.412  -0.410  -0.408  -0.404  -0.395
 -0.388  -0.386  -0.381  -0.367  -0.364  -0.363  -0.356  -0.349
 -0.346  -0.338  -0.334  -0.332  -0.329  -0.326  -0.324  -0.314
 -0.309  -0.308  -0.304  -0.302  -0.294  -0.288  -0.285  -0.273
 -0.272  -0.254  -0.251  -0.249  -0.245  -0.236  -0.231  -0.187
 -0.182  -0.172  -0.167  -0.156  -0.155  -0.151  -0.147  -0.145
 -0.141

          Ground-State Mulliken Net Atomic Charges

     Atom                 Charge (a.u.)
  ----------------------------------------
      1 O                    -0.217362
      2 C                     0.211476
      3 C                    -0.080365
      4 C                    -0.077628
      5 C                     0.213400
      6 O                    -0.175002
      7 C                    -0.064706
      8 C                    -0.049049
      9 O                    -0.172594
     10 C                     0.225223
     11 C                    -0.074358
     12 C                    -0.079751
     13 C                     0.216833
     14 O                    -0.216662
     15 O                    -0.170142
     16 O                    -0.174040
     17 O                    -0.206809
     18 C                    -0.134787
     19 C                     0.023433
     20 C                    -0.145353
     21 C                    -0.141627
     22 C                     0.024283
     23 O                    -0.191874
     24 H                     0.088771
     25 H                     0.084443
     26 H                     0.084789
     27 H                     0.078652
     28 H                     0.074051
     29 H                     0.078598
     30 H                     0.074101
     31 H                     0.091240
     32 O                    -0.208272
     33 C                    -0.128512
     34 C                     0.025355
     35 C                    -0.143545
     36 C                    -0.144627
     37 C                     0.024023
     38 O                    -0.187744
     39 H                     0.085100
     40 H                     0.085815
     41 H                     0.086595
     42 H                     0.084528
     43 H                     0.077777
     44 H                     0.073031
     45 H                     0.078220
     46 H                     0.073087
     47 H                     0.090572
     48 H                     0.085762
     49 H                     0.088046
     50 H                     0.087978
     51 H                     0.085373
     52 H                     0.100220
     53 H                     0.091281
     54 H                     0.088714
     55 H                     0.115168
     56 H                     0.088872
  ----------------------------------------
  Sum of atomic charges =    -0.000000

                    Cartesian Multipole Moments
 -----------------------------------------------------------------
    Charge (ESU x 10^10)
                 0.0000
    Dipole Moment (Debye)
         X       1.2003      Y       2.5862      Z      -0.6640
       Tot       2.9274
    Quadrupole Moments (Debye-Ang)
        XX    -148.5196     XY       4.9824     YY    -157.1107
        XZ      18.5799     YZ       0.1083     ZZ    -162.5836

 Total job time:  77.57s(wall), 3689.94s(cpu)
        *  Thank you very much for using Q-Chem.  Have a nice day.  *
