 Q-Chem 5.0, Q-Chem, Inc., Pleasanton, CA (2017)
 Q-Chem 5.0.1 for Intel X86 EM64T Linux

User input:
--------------------------------------------------------------
$molecule
0  1
O -5.7760537504 1.2729894839 1.5755694061
C -4.9767687361 1.1885685021 0.6201808528
C -5.0685896434 0.2311109291 -0.6200804839
C -3.6974053045 -0.4720931674 -1.0027345241
C -2.5201624964 -0.1154095843 -0.0287708346
O -1.5193552909 0.5910249096 -0.7743774011
C -0.3748735348 0.9133530982 0.1130230764
C 0.6354782532 1.7694396474 -0.7320139005
O 1.9572239124 1.8399403723 -0.065282375
C 2.7485601599 0.6870284591 -0.4100062116
C 4.2502514354 1.0172672597 -0.0960785992
C 4.9782263488 -0.0886049559 0.7715330896
C 4.0376256327 -1.1307474125 1.4718107583
O 4.3466921967 -2.2774714897 1.8588481973
O -3.8141552351 2.0138938102 0.4644940722
O 2.7763255797 -0.5041554928 1.743492491
O 2.3004201289 -0.3056848402 -1.0229104874
C 1.8408825212 -1.4646819457 2.3722463028
C 5.0852440553 0.9007349421 -1.4448992925
C 6.5509676904 1.4397758465 -1.1968804758
C 7.204972983 0.224878272 -0.4391050478
C 5.962193669 -0.7360725107 -0.2942534939
O 5.2566190455 -0.5638584421 -1.5853552819
H 4.3087924905 2.0176073989 0.3656417577
H 5.5627920609 0.3946685713 1.5773477695
H 4.5758363167 1.3165008641 -2.3359053029
H 7.05602429 1.6417097997 -2.1546322211
H 6.5511140695 2.3633566389 -0.5960896782
H 7.989422572 -0.2531387185 -1.0473536168
H 7.6345776889 0.5081578565 0.5350401246
H 6.192427518 -1.8035964095 -0.1096845109
O -2.403654382 -0.4281874969 1.1760135858
C -3.6252007586 2.8653026322 1.6604411589
C -5.9855275345 -1.0235679294 -0.3084242172
C -6.3872393768 -1.6968167635 -1.6779648398
C -5.0326595463 -2.3896170059 -2.0820716778
C -4.1115689091 -2.0008462456 -0.8583592387
O -5.0420145744 -1.9946061495 0.2930755581
H -5.4591184824 0.8122834876 -1.4760733622
H -3.3873944778 -0.2194594248 -2.0315697486
H -3.3590118115 2.2536560165 2.5470380824
H -6.8167749842 -0.8048634412 0.3899942169
H -7.1882934147 -2.436789783 -1.522605003
H -6.727083742 -0.9577052321 -2.4210866959
H -5.1421222249 -3.4837825189 -2.1479892452
H -4.6314077001 -2.0169069648 -3.0381646985
H -3.2651824155 -2.6886059146 -0.6671074326
H -4.537129311 3.4512067566 1.8936172274
H -2.7913900472 3.5503609083 1.4203209574
H 0.9771572931 -0.870743693 2.7239647193
H 2.3128802465 -1.9889765206 3.2273523042
H 1.4941309201 -2.2212674525 1.638508792
H 0.7273913815 1.3110187053 -1.7399684749
H 0.2793291232 2.8145616827 -0.8273612812
H 0.1277984821 -0.019820124 0.447409488
H -0.7117050232 1.4678562106 1.0146124092
$end

$rem
JOBTYPE                   OPT
METHOD                    B3LYP
DFT_D                     d3_op
BASIS                     STO-3G
GEOM_OPT_MAX_CYCLES       100
GEOM_OPT_TOL_GRADIENT     300
GEOM_OPT_TOL_DISPLACEMENT 1200
GEOM_OPT_TOL_ENERGY       100
SYMMETRY                  False
THRESH                    12
SCF_CONVERGENCE           8
MAX_SUB_FILE_NUM          128
MEM_STATIC                400
MEM_TOTAL                 4000
$end
--------------------------------------------------------------

   16   -1510.2812869393      5.73E-09 Convergence criterion met
 Total energy in the final basis set = -1510.28128694
   15   -1510.2822979854      2.04E-09 Convergence criterion met
 Total energy in the final basis set = -1510.28229799
   13   -1510.2843055696      6.87E-09 Convergence criterion met
 Total energy in the final basis set = -1510.28430557
   14   -1510.2850128891      4.07E-09 Convergence criterion met
 Total energy in the final basis set = -1510.28501289
   13   -1510.2861376788      5.23E-09 Convergence criterion met
 Total energy in the final basis set = -1510.28613768
   13   -1510.2868921490      9.46E-09 Convergence criterion met
 Total energy in the final basis set = -1510.28689215
   15   -1510.2876180767      2.04E-09 Convergence criterion met
 Total energy in the final basis set = -1510.28761808
   14   -1510.2885749908      5.20E-09 Convergence criterion met
   12   -1510.2914332084      2.00E-09 Convergence criterion met
 Total energy in the final basis set = -1510.29143321
   12   -1510.2914376096      2.77E-09 Convergence criterion met
 Total energy in the final basis set = -1510.29143761
   11   -1510.2914550856      7.16E-09 Convergence criterion met
 Total energy in the final basis set = -1510.29145509
   11   -1510.2914508282      9.56E-09 Convergence criterion met
 Total energy in the final basis set = -1510.29145083
   11   -1510.2914633517      9.72E-09 Convergence criterion met
 Total energy in the final basis set = -1510.29146335
   11   -1510.2914607860      2.44E-09 Convergence criterion met
 Total energy in the final basis set = -1510.29146079

             Standard Nuclear Orientation (Angstroms)
    I     Atom           X                Y                Z
 ----------------------------------------------------------------
    1      O      -4.7525102398     1.3827694878     2.2157325841
    2      C      -4.4257393514     1.3211984754     1.0128236379
    3      C      -4.8434294878     0.2361454569    -0.0419556989
    4      C      -3.6113625013    -0.3751833739    -0.8363417650
    5      C      -2.2398965601     0.2398716727    -0.3993732641
    6      O      -1.6860095561     0.9523708367    -1.5089120166
    7      C      -0.3964322139     1.5852434598    -1.1330506704
    8      C       0.7305266079     1.0885775570    -2.1033484952
    9      O       2.0425381281     1.4635400818    -1.5222606783
   10      C       2.8380498413     0.2867707720    -1.3018635460
   11      C       4.1504537671     0.7186234917    -0.5695314168
   12      C       4.3666492244    -0.0414099861     0.8073289021
   13      C       3.2188523204    -1.0519469028     1.1687516685
   14      O       3.3481276170    -2.2546285936     1.4803603308
   15      O      -3.5767764666     2.2715919202     0.3539187715
   16      O       1.9661811254    -0.3638813932     1.0969972502
   17      O       2.5086152374    -0.8608729696    -1.6750492589
   18      C       0.8506570152    -1.3097007749     1.3458319759
   19      C       5.4452335083     0.2493724570    -1.3646753729
   20      C       6.6970669206     1.0074674197    -0.7680950287
   21      C       6.9086492048     0.2305791339     0.5854417706
   22      C       5.7232130328    -0.8087360367     0.5245748706
   23      O       5.6315452581    -1.1474674452    -0.9154606408
   24      H       4.1233747021     1.8132363724    -0.4303478072
   25      H       4.4706067635     0.6824509877     1.6365218167
   26      H       5.3478821393     0.2927234043    -2.4668673387
   27      H       7.5660577531     0.8999180775    -1.4364245757
   28      H       6.4975692709     2.0803877628    -0.6166121678
   29      H       7.8790810825    -0.2903163628     0.6040196266
   30      H       6.8415910487     0.8858665280     1.4683851687
   31      H       5.8480347119    -1.7281707816     1.1293693609
   32      O      -1.6824185821     0.1150377651     0.7170078129
   33      C      -3.0284812834     3.2361960480     1.3337126820
   34      C      -5.4186463790    -1.0544620753     0.6744521169
   35      C      -6.1596772251    -1.9383352138    -0.4025082999
   36      C      -4.9386751766    -2.5441452277    -1.1896432914
   37      C      -3.7232630728    -1.9039448341    -0.4102412558
   38      O      -4.1993350138    -1.8358282836     0.9893338638
   39      H      -5.5759175883     0.6838470013    -0.7390293564
   40      H      -3.7231238165    -0.2376502776    -1.9258641315
   41      H      -2.3623958958     2.7284592923     2.0613947301
   42      H      -5.9867913661    -0.8346052959     1.5993673559
   43      H      -6.7544498512    -2.7250171704     0.0882434873
   44      H      -6.8255850673    -1.3400608452    -1.0449396677
   45      H      -4.9102276067    -3.6423966541    -1.1084109389
   46      H      -4.9392058332    -2.2682744267    -2.2562980136
   47      H      -2.7726139873    -2.4687921107    -0.4689238408
   48      H      -3.8336086967     3.7570702834     1.8903454605
   49      H      -2.4450062865     3.9693843596     0.7472919309
   50      H      -0.0896690716    -0.7430911927     1.1629709492
   51      H       0.8695048613    -1.6842771189     2.3890382460
   52      H       0.9098570721    -2.1784356780     0.6599081132
   53      H       0.6998903059    -0.0184998802    -2.2127175108
   54      H       0.6297235460     1.5618683980    -3.1021178216
   55      H      -0.1488382659     1.3070183816    -0.0857663335
   56      H      -0.5183398780     2.6862025833    -1.2028479678
 ----------------------------------------------------------------

    9   -1510.2914617314      6.05E-09 Convergence criterion met
 Total energy in the final basis set = -1510.29146173
 Final energy is   -1510.29146173142
 **  OPTIMIZATION CONVERGED  **

                    Orbital Energies (a.u.)
 --------------------------------------------------------------

 Alpha MOs
 -- Occupied --
-18.941 -18.941 -18.930 -18.924 -18.891 -18.886 -18.885 -18.882
-18.873 -18.869 -10.110 -10.106 -10.098 -10.092 -10.070 -10.069
-10.066 -10.064 -10.061 -10.059 -10.054 -10.044 -10.043 -10.039
-10.036 -10.034 -10.023 -10.022 -10.019 -10.018  -1.023  -1.014
 -1.010  -1.000  -0.973  -0.967  -0.945  -0.943  -0.934  -0.928
 -0.768  -0.761  -0.729  -0.723  -0.714  -0.705  -0.696  -0.667
 -0.648  -0.619  -0.598  -0.579  -0.550  -0.542  -0.541  -0.535
 -0.515  -0.507  -0.484  -0.473  -0.467  -0.459  -0.456  -0.449
 -0.439  -0.431  -0.428  -0.419  -0.418  -0.407  -0.400  -0.400
 -0.396  -0.381  -0.380  -0.364  -0.363  -0.359  -0.354  -0.353
 -0.348  -0.338  -0.335  -0.332  -0.329  -0.326  -0.323  -0.313
 -0.309  -0.308  -0.303  -0.300  -0.291  -0.290  -0.281  -0.277
 -0.269  -0.259  -0.255  -0.247  -0.243  -0.237  -0.231  -0.188
 -0.183  -0.170  -0.168  -0.166  -0.158  -0.157  -0.147  -0.146
 -0.141

          Ground-State Mulliken Net Atomic Charges

     Atom                 Charge (a.u.)
  ----------------------------------------
      1 O                    -0.204386
      2 C                     0.214045
      3 C                    -0.078091
      4 C                    -0.078337
      5 C                     0.221264
      6 O                    -0.168250
      7 C                    -0.055628
      8 C                    -0.056447
      9 O                    -0.173861
     10 C                     0.214481
     11 C                    -0.078716
     12 C                    -0.078833
     13 C                     0.211873
     14 O                    -0.209590
     15 O                    -0.172259
     16 O                    -0.177751
     17 O                    -0.215220
     18 C                    -0.144787
     19 C                     0.025743
     20 C                    -0.143912
     21 C                    -0.144071
     22 C                     0.024277
     23 O                    -0.186524
     24 H                     0.086050
     25 H                     0.083867
     26 H                     0.082506
     27 H                     0.077832
     28 H                     0.073072
     29 H                     0.078135
     30 H                     0.072917
     31 H                     0.091411
     32 O                    -0.222081
     33 C                    -0.129102
     34 C                     0.024405
     35 C                    -0.143984
     36 C                    -0.143715
     37 C                     0.025733
     38 O                    -0.185945
     39 H                     0.086317
     40 H                     0.088034
     41 H                     0.093680
     42 H                     0.091453
     43 H                     0.079404
     44 H                     0.073469
     45 H                     0.079483
     46 H                     0.074122
     47 H                     0.084762
     48 H                     0.092047
     49 H                     0.090172
     50 H                     0.108912
     51 H                     0.082613
     52 H                     0.085144
     53 H                     0.102048
     54 H                     0.083601
     55 H                     0.104047
     56 H                     0.084569
  ----------------------------------------
  Sum of atomic charges =     0.000000

                    Cartesian Multipole Moments
 -----------------------------------------------------------------
    Charge (ESU x 10^10)
                -0.0000
    Dipole Moment (Debye)
         X      -1.3342      Y       3.4096      Z      -1.7512
       Tot       4.0586
    Quadrupole Moments (Debye-Ang)
        XX    -145.5819     XY      13.0166     YY    -160.0771
        XZ      12.4310     YZ       2.0246     ZZ    -163.1967

 Total job time:  99.89s(wall), 4757.51s(cpu)
        *  Thank you very much for using Q-Chem.  Have a nice day.  *
