 Q-Chem 5.0, Q-Chem, Inc., Pleasanton, CA (2017)
 Q-Chem 5.0.1 for Intel X86 EM64T Linux

User input:
--------------------------------------------------------------
$molecule
0  1
O -3.94934 -3.66094 2.70899
C -3.26408 -4.56952 2.26188
C -3.36658 -6.02376 2.66595
C -2.05047 -6.77687 2.91998
C -0.78633 -5.94619 2.91502
O 0.02296 -6.33898 1.8873
C 1.25837 -5.61759 1.83606
C 2.06406 -6.04126 0.61234
O 3.42277 -5.59409 0.74213
C 4.24227 -6.41512 1.4446
C 5.70584 -6.14828 1.18494
C 6.56683 -5.98056 2.44543
C 5.93769 -6.44818 3.74243
O 6.54887 -6.7689 4.75147
O -2.47581 -4.31413 1.18416
O 4.67502 -5.99186 3.97612
O 3.85494 -7.43046 2.01588
C 3.97457 -6.15257 5.15543
C 6.42316 -7.32607 0.49774
C 7.66146 -6.81452 -0.23573
C 8.55408 -6.4576 0.93546
C 7.69749 -6.97145 2.09971
O 6.99079 -8.05905 1.55409
H 5.78281 -5.25428 0.5232
H 6.92436 -4.93925 2.60156
H 5.76735 -7.89432 -0.19785
H 8.10326 -7.68814 -0.76697
H 7.48706 -5.99486 -0.96552
H 9.49817 -7.03945 0.84559
H 8.78008 -5.37512 1.04902
H 8.34416 -7.20361 2.97437
O -0.56811 -5.00286 3.66749
C -2.29502 -3.06522 0.62848
C -4.06642 -6.22686 4.02431
C -4.61572 -7.6508 4.12482
C -3.33572 -8.43545 4.32445
C -2.31016 -7.29908 4.34328
O -3.00688 -6.2364 4.95055
H -3.94678 -6.51496 1.85275
H -1.92834 -7.61665 2.19679
H -1.85346 -2.37456 1.37839
H -4.88071 -5.49479 4.21572
H -5.22008 -7.7204 5.05742
H -5.23634 -7.96411 3.25784
H -3.37175 -8.91744 5.32704
H -3.11861 -9.19948 3.54702
H -1.37664 -7.62822 4.85138
H -3.26537 -2.66086 0.26914
H -1.60088 -3.14809 -0.23282
H 2.97367 -5.68624 5.05075
H 4.51092 -5.65839 5.9933
H 3.84437 -7.23358 5.3759
H 2.02524 -7.14649 0.47441
H 1.60122 -5.59925 -0.2952
H 1.83328 -5.8726 2.75362
H 1.1065 -4.51467 1.79878
$end

$opt
CONSTRAINT
tors           1           2           3           4    -135.666
tors           3           4           5           6    -116.246
tors           4           5           6           7    -178.591
tors           5           6           7           8    -176.116
tors           6           7           8           9    -165.033
tors           7           8           9          10     +84.950
tors           8           9          10          11    +161.546
tors           9          10          11          12    +129.713
tors          11          12          13          14    +157.275
ENDCONSTRAINT
$end

$rem
JOBTYPE                   OPT
METHOD                    B3LYP
DFT_D                     d3_op
BASIS                     STO-3G
GEOM_OPT_MAX_CYCLES       100
GEOM_OPT_TOL_GRADIENT     300
GEOM_OPT_TOL_DISPLACEMENT 1200
GEOM_OPT_TOL_ENERGY       100
SYMMETRY                  False
THRESH                    12
SCF_CONVERGENCE           8
MAX_SUB_FILE_NUM          128
MEM_STATIC                400
MEM_TOTAL                 4000
$end
--------------------------------------------------------------

   15   -1510.1444568608      7.10E-09 Convergence criterion met
 Total energy in the final basis set = -1510.14445686
   14   -1510.2144849093      5.27E-09 Convergence criterion met
 Total energy in the final basis set = -1510.21448491
   14   -1510.2522964689      6.12E-09 Convergence criterion met
 Total energy in the final basis set = -1510.25229647
   14   -1510.2691013240      5.26E-09 Convergence criterion met
 Total energy in the final basis set = -1510.26910132
   14   -1510.2748603876      4.00E-09 Convergence criterion met
 Total energy in the final basis set = -1510.27486039
   13   -1510.2768701905      5.60E-09 Convergence criterion met
 Total energy in the final basis set = -1510.27687019
   13   -1510.2777828137      4.70E-09 Convergence criterion met
 Total energy in the final basis set = -1510.27778281
   12   -1510.2786004917      4.37E-09 Convergence criterion met
    9   -1510.2811257789      6.99E-09 Convergence criterion met
 Total energy in the final basis set = -1510.28112578
    9   -1510.2811325649      7.08E-09 Convergence criterion met
 Total energy in the final basis set = -1510.28113256
    9   -1510.2811373377      5.58E-09 Convergence criterion met
 Total energy in the final basis set = -1510.28113734
    8   -1510.2811389194      8.50E-09 Convergence criterion met
 Total energy in the final basis set = -1510.28113892
    9   -1510.2811426237      6.14E-09 Convergence criterion met
 Total energy in the final basis set = -1510.28114262
    9   -1510.2811438498      2.84E-09 Convergence criterion met
 Total energy in the final basis set = -1510.28114385

             Standard Nuclear Orientation (Angstroms)
    I     Atom           X                Y                Z
 ----------------------------------------------------------------
    1      O      -5.7760537504     1.2729894839     1.5755694061
    2      C      -4.9767687361     1.1885685021     0.6201808528
    3      C      -5.0685896434     0.2311109291    -0.6200804839
    4      C      -3.6974053045    -0.4720931674    -1.0027345241
    5      C      -2.5201624964    -0.1154095843    -0.0287708346
    6      O      -1.5193552909     0.5910249096    -0.7743774011
    7      C      -0.3748735348     0.9133530982     0.1130230764
    8      C       0.6354782532     1.7694396474    -0.7320139005
    9      O       1.9572239124     1.8399403723    -0.0652823750
   10      C       2.7485601599     0.6870284591    -0.4100062116
   11      C       4.2502514354     1.0172672597    -0.0960785992
   12      C       4.9782263488    -0.0886049559     0.7715330896
   13      C       4.0376256327    -1.1307474125     1.4718107583
   14      O       4.3466921967    -2.2774714897     1.8588481973
   15      O      -3.8141552351     2.0138938102     0.4644940722
   16      O       2.7763255797    -0.5041554928     1.7434924910
   17      O       2.3004201289    -0.3056848402    -1.0229104874
   18      C       1.8408825212    -1.4646819457     2.3722463028
   19      C       5.0852440553     0.9007349421    -1.4448992925
   20      C       6.5509676904     1.4397758465    -1.1968804758
   21      C       7.2049729830     0.2248782720    -0.4391050478
   22      C       5.9621936690    -0.7360725107    -0.2942534939
   23      O       5.2566190455    -0.5638584421    -1.5853552819
   24      H       4.3087924905     2.0176073989     0.3656417577
   25      H       5.5627920609     0.3946685713     1.5773477695
   26      H       4.5758363167     1.3165008641    -2.3359053029
   27      H       7.0560242900     1.6417097997    -2.1546322211
   28      H       6.5511140695     2.3633566389    -0.5960896782
   29      H       7.9894225720    -0.2531387185    -1.0473536168
   30      H       7.6345776889     0.5081578565     0.5350401246
   31      H       6.1924275180    -1.8035964095    -0.1096845109
   32      O      -2.4036543820    -0.4281874969     1.1760135858
   33      C      -3.6252007586     2.8653026322     1.6604411589
   34      C      -5.9855275345    -1.0235679294    -0.3084242172
   35      C      -6.3872393768    -1.6968167635    -1.6779648398
   36      C      -5.0326595463    -2.3896170059    -2.0820716778
   37      C      -4.1115689091    -2.0008462456    -0.8583592387
   38      O      -5.0420145744    -1.9946061495     0.2930755581
   39      H      -5.4591184824     0.8122834876    -1.4760733622
   40      H      -3.3873944778    -0.2194594248    -2.0315697486
   41      H      -3.3590118115     2.2536560165     2.5470380824
   42      H      -6.8167749842    -0.8048634412     0.3899942169
   43      H      -7.1882934147    -2.4367897830    -1.5226050030
   44      H      -6.7270837420    -0.9577052321    -2.4210866959
   45      H      -5.1421222249    -3.4837825189    -2.1479892452
   46      H      -4.6314077001    -2.0169069648    -3.0381646985
   47      H      -3.2651824155    -2.6886059146    -0.6671074326
   48      H      -4.5371293110     3.4512067566     1.8936172274
   49      H      -2.7913900472     3.5503609083     1.4203209574
   50      H       0.9771572931    -0.8707436930     2.7239647193
   51      H       2.3128802465    -1.9889765206     3.2273523042
   52      H       1.4941309201    -2.2212674525     1.6385087920
   53      H       0.7273913815     1.3110187053    -1.7399684749
   54      H       0.2793291232     2.8145616827    -0.8273612812
   55      H       0.1277984821    -0.0198201240     0.4474094880
   56      H      -0.7117050232     1.4678562106     1.0146124092
 ----------------------------------------------------------------

    9   -1510.2811447316      4.78E-09 Convergence criterion met
 Total energy in the final basis set = -1510.28114473
 Final energy is   -1510.28114473163
 **  OPTIMIZATION CONVERGED  **

                    Orbital Energies (a.u.)
 --------------------------------------------------------------

 Alpha MOs
 -- Occupied --
-18.940 -18.938 -18.927 -18.926 -18.889 -18.885 -18.881 -18.880
-18.866 -18.864 -10.103 -10.102 -10.097 -10.094 -10.071 -10.067
-10.066 -10.065 -10.062 -10.060 -10.058 -10.056 -10.039 -10.038
-10.037 -10.034 -10.022 -10.021 -10.019 -10.018  -1.016  -1.016
 -1.006  -1.002  -0.971  -0.968  -0.941  -0.940  -0.932  -0.928
 -0.765  -0.762  -0.727  -0.722  -0.712  -0.705  -0.694  -0.664
 -0.663  -0.617  -0.597  -0.580  -0.546  -0.545  -0.538  -0.536
 -0.513  -0.509  -0.485  -0.473  -0.464  -0.453  -0.451  -0.449
 -0.439  -0.432  -0.428  -0.415  -0.413  -0.412  -0.411  -0.396
 -0.391  -0.379  -0.378  -0.368  -0.363  -0.356  -0.353  -0.350
 -0.346  -0.339  -0.336  -0.332  -0.329  -0.325  -0.324  -0.313
 -0.309  -0.307  -0.304  -0.296  -0.293  -0.286  -0.285  -0.274
 -0.272  -0.254  -0.253  -0.250  -0.245  -0.235  -0.232  -0.181
 -0.180  -0.172  -0.170  -0.159  -0.159  -0.149  -0.146  -0.142
 -0.141

          Ground-State Mulliken Net Atomic Charges

     Atom                 Charge (a.u.)
  ----------------------------------------
      1 O                    -0.207441
      2 C                     0.214147
      3 C                    -0.078591
      4 C                    -0.079175
      5 C                     0.212477
      6 O                    -0.172676
      7 C                    -0.048494
      8 C                    -0.048703
      9 O                    -0.176010
     10 C                     0.215597
     11 C                    -0.078437
     12 C                    -0.079267
     13 C                     0.213850
     14 O                    -0.209842
     15 O                    -0.170893
     16 O                    -0.169346
     17 O                    -0.218609
     18 C                    -0.129589
     19 C                     0.025797
     20 C                    -0.144813
     21 C                    -0.142639
     22 C                     0.024740
     23 O                    -0.185846
     24 H                     0.086548
     25 H                     0.084961
     26 H                     0.082390
     27 H                     0.078388
     28 H                     0.073736
     29 H                     0.078770
     30 H                     0.073589
     31 H                     0.090297
     32 O                    -0.221437
     33 C                    -0.129002
     34 C                     0.023984
     35 C                    -0.143862
     36 C                    -0.144054
     37 C                     0.025790
     38 O                    -0.186846
     39 H                     0.084763
     40 H                     0.085953
     41 H                     0.092393
     42 H                     0.090366
     43 H                     0.078287
     44 H                     0.072690
     45 H                     0.078230
     46 H                     0.073643
     47 H                     0.084026
     48 H                     0.092221
     49 H                     0.089320
     50 H                     0.094737
     51 H                     0.094336
     52 H                     0.092031
     53 H                     0.094782
     54 H                     0.087492
     55 H                     0.090242
     56 H                     0.085000
  ----------------------------------------
  Sum of atomic charges =     0.000000

                    Cartesian Multipole Moments
 -----------------------------------------------------------------
    Charge (ESU x 10^10)
                 0.0000
    Dipole Moment (Debye)
         X       0.8929      Y       3.1458      Z      -1.2021
       Tot       3.4840
    Quadrupole Moments (Debye-Ang)
        XX    -152.2354     XY       7.6830     YY    -158.3714
        XZ      15.1028     YZ       2.4681     ZZ    -160.0852

 Total job time:  75.59s(wall), 3593.02s(cpu)
        *  Thank you very much for using Q-Chem.  Have a nice day.  *
