 Q-Chem 5.0, Q-Chem, Inc., Pleasanton, CA (2017)
 Q-Chem 5.0.1 for Intel X86 EM64T Linux

User input:
--------------------------------------------------------------
$molecule
0  1
O -3.94934 -3.66094 2.70899
C -3.26408 -4.56952 2.26188
C -3.36658 -6.02376 2.66595
C -2.17024 -6.93098 2.33493
C -0.93317 -6.24643 1.79723
O -0.64569 -6.72095 0.54918
C 0.59134 -6.22302 0.02855
C 0.81104 -6.7402 -1.38933
O 2.17282 -6.51549 -1.78674
C 3.05662 -7.47104 -1.40598
C 4.35576 -7.41034 -2.17358
C 5.59482 -7.09022 -1.32474
C 5.4231 -7.2309 0.17441
O 6.30477 -7.53982 0.96294
O -2.47751 -4.26051 1.19579
O 4.36788 -6.55456 0.70758
O 2.81059 -8.34729 -0.58362
C 4.1161 -6.42322 2.05871
C 4.76478 -8.74953 -2.81022
C 5.69805 -8.49165 -3.99144
C 6.94331 -8.01808 -3.26868
C 6.51442 -8.23073 -1.81109
O 5.6349 -9.32889 -1.86966
H 4.23852 -6.64686 -2.97786
H 6.00605 -6.07497 -1.51712
H 3.89709 -9.36913 -3.12609
H 5.9105 -9.48147 -4.45581
H 5.31005 -7.79966 -4.76956
H 7.78336 -8.69545 -3.53971
H 7.22885 -6.96017 -3.45576
H 7.41176 -8.36093 -1.16727
O -0.28247 -5.39782 2.39929
C -2.31898 -2.9955 0.66819
C -3.35804 -6.16687 4.20833
C -4.00328 -7.49198 4.61443
C -2.92883 -8.46993 4.18998
C -1.84115 -7.49724 3.7233
O -2.00955 -6.37367 4.54988
H -4.34697 -6.39767 2.2954
H -2.47606 -7.7311 1.622
H -1.89698 -2.31222 1.43578
H -3.8676 -5.32886 4.73268
H -4.06585 -7.4987 5.72646
H -5.01328 -7.67967 4.19084
H -2.58927 -9.03201 5.0883
H -3.22219 -9.17928 3.38603
H -0.84122 -7.98453 3.75471
H -3.2949 -2.60392 0.31001
H -1.61722 -3.04597 -0.18951
H 3.19513 -5.82227 2.20221
H 4.95995 -5.90188 2.55883
H 3.96635 -7.42414 2.51687
H 0.56051 -7.82442 -1.4561
H 0.11974 -6.21187 -2.07934
H 1.40638 -6.60202 0.68184
H 0.62645 -5.1098 0.01422
$end

$opt
CONSTRAINT
tors           1           2           3           4    -161.730
tors           3           4           5           6    -119.461
tors           4           5           6           7    -173.880
tors           5           6           7           8    -177.252
tors           6           7           8           9    -166.162
tors           7           8           9          10     +84.950
tors           8           9          10          11    +162.971
tors           9          10          11          12    +116.290
tors          11          12          13          14    +149.681
ENDCONSTRAINT
$end

$rem
JOBTYPE                   OPT
METHOD                    B3LYP
DFT_D                     d3_op
BASIS                     STO-3G
GEOM_OPT_MAX_CYCLES       100
GEOM_OPT_TOL_GRADIENT     300
GEOM_OPT_TOL_DISPLACEMENT 1200
GEOM_OPT_TOL_ENERGY       100
SYMMETRY                  False
THRESH                    12
SCF_CONVERGENCE           8
MAX_SUB_FILE_NUM          128
MEM_STATIC                400
MEM_TOTAL                 4000
$end
--------------------------------------------------------------

   15   -1510.1480865187      8.54E-09 Convergence criterion met
 Total energy in the final basis set = -1510.14808652
   13   -1510.2180134084      5.98E-09 Convergence criterion met
 Total energy in the final basis set = -1510.21801341
   13   -1510.2553234801      7.37E-09 Convergence criterion met
 Total energy in the final basis set = -1510.25532348
   13   -1510.2713106301      7.75E-09 Convergence criterion met
 Total energy in the final basis set = -1510.27131063
   13   -1510.2764768342      6.43E-09 Convergence criterion met
 Total energy in the final basis set = -1510.27647683
   13   -1510.2778377801      3.30E-09 Convergence criterion met
 Total energy in the final basis set = -1510.27783778
   13   -1510.2784268843      4.65E-09 Convergence criterion met
 Total energy in the final basis set = -1510.27842688
   12   -1510.2788946653      5.08E-09 Convergence criterion met
   11   -1510.2800729720      6.91E-09 Convergence criterion met
 Total energy in the final basis set = -1510.28007297
   10   -1510.2800955889      9.08E-09 Convergence criterion met
 Total energy in the final basis set = -1510.28009559
   11   -1510.2801179819      3.12E-09 Convergence criterion met
 Total energy in the final basis set = -1510.28011798
    9   -1510.2801298632      8.63E-09 Convergence criterion met
 Total energy in the final basis set = -1510.28012986
    9   -1510.2801330045      8.10E-09 Convergence criterion met
 Total energy in the final basis set = -1510.28013300
    9   -1510.2801342551      4.39E-09 Convergence criterion met
 Total energy in the final basis set = -1510.28013426

             Standard Nuclear Orientation (Angstroms)
    I     Atom           X                Y                Z
 ----------------------------------------------------------------
    1      O      -6.0729333188     1.7103643204     1.1308839834
    2      C      -5.0886206746     1.3079844736     0.4747509224
    3      C      -5.0800165977     0.1507784889    -0.5851627172
    4      C      -3.6663514791    -0.4667943736    -0.9477708685
    5      C      -2.4921100599    -0.0307964141     0.0020714062
    6      O      -1.5097945198     0.6472776346    -0.7967446018
    7      C      -0.3170105380     0.9456511323     0.0323601521
    8      C       0.6823954760     1.7454141926    -0.8766060030
    9      O       2.0304509520     1.8088428169    -0.2637626031
   10      C       2.7827319389     0.6270732548    -0.5949304097
   11      C       4.2992111621     0.9169398897    -0.3172311808
   12      C       4.9460234185     0.0197943914     0.8191640662
   13      C       3.9578781023    -0.9168360807     1.6005435569
   14      O       4.2284774393    -2.0229658705     2.1142408443
   15      O      -3.8114136675     1.9563317773     0.4803525186
   16      O       2.6871983454    -0.2664680536     1.7234528198
   17      O       2.2905814561    -0.3787042735    -1.1502479461
   18      C       1.7312687872    -1.1406356575     2.4437305982
   19      C       5.1699324947     0.4593165621    -1.5675963020
   20      C       6.6224747914     1.0646018026    -1.4210755095
   21      C       7.2380944803     0.1221078651    -0.3207021038
   22      C       6.0094737566    -0.8173146714    -0.0078388759
   23      O       5.3625187410    -0.9890367543    -1.3295952777
   24      H       4.4133212338     1.9920511559    -0.0947024948
   25      H       5.4492511247     0.6600416266     1.5679138610
   26      H       4.6848655043     0.6277279167    -2.5485238971
   27      H       7.1704436165     0.9890194212    -2.3737265183
   28      H       6.5981741494     2.1212892899    -1.1100763805
   29      H       8.0803933779    -0.4656565348    -0.7188359583
   30      H       7.5794126091     0.6721396422     0.5707157046
   31      H       6.2511024430    -1.8001180939     0.4420494478
   32      O      -2.3279364366    -0.3269811486     1.2050268988
   33      C      -3.7830083642     3.0393430640     1.4885850333
   34      C      -5.8770668840    -1.1369996199    -0.1059056880
   35      C      -6.3146881225    -1.9423183000    -1.3905859587
   36      C      -4.9315380324    -2.5279452793    -1.8610059373
   37      C      -3.9717645439    -2.0112137919    -0.7163639643
   38      O      -4.8298778218    -1.9973704618     0.4909188300
   39      H      -5.5486926154     0.5687728353    -1.4968910627
   40      H      -3.3779733433    -0.2407690513    -1.9887748063
   41      H      -3.9075876072     2.6389541089     2.5153699489
   42      H      -6.6798804831    -0.9257039879     0.6272447574
   43      H      -7.0192577292    -2.7441104657    -1.1174925754
   44      H      -6.7882119409    -1.2992057594    -2.1493663996
   45      H      -4.9440619496    -3.6290562003    -1.8869621917
   46      H      -4.6273079812    -2.1554012906    -2.8523958422
   47      H      -3.0714523117    -2.6316258349    -0.5415106587
   48      H      -4.5777572065     3.7897253690     1.3009025797
   49      H      -2.7897969352     3.5156170693     1.3951734159
   50      H       0.8161759750    -0.5393045406     2.5960193910
   51      H       2.1362691065    -1.4621445885     3.4244034198
   52      H       1.4858127565    -2.0439434930     1.8485678260
   53      H       0.7254594476     1.2514849247    -1.8709140376
   54      H       0.3472457453     2.7950771904    -0.9961004922
   55      H       0.1662330602     0.0012445805     0.3621489292
   56      H      -0.5900424499     1.5301429938     0.9368351226
 ----------------------------------------------------------------

    9   -1510.2801345863      3.10E-09 Convergence criterion met
 Total energy in the final basis set = -1510.28013459
 Final energy is   -1510.28013458627
 **  OPTIMIZATION CONVERGED  **

                    Orbital Energies (a.u.)
 --------------------------------------------------------------

 Alpha MOs
 -- Occupied --
-18.943 -18.941 -18.926 -18.923 -18.888 -18.886 -18.879 -18.879
-18.867 -18.860 -10.104 -10.103 -10.097 -10.093 -10.070 -10.069
-10.065 -10.065 -10.061 -10.059 -10.058 -10.058 -10.039 -10.039
-10.037 -10.034 -10.021 -10.020 -10.020 -10.019  -1.017  -1.016
 -1.006  -1.000  -0.970  -0.969  -0.941  -0.940  -0.932  -0.926
 -0.764  -0.762  -0.726  -0.722  -0.711  -0.704  -0.694  -0.666
 -0.663  -0.616  -0.597  -0.580  -0.546  -0.544  -0.538  -0.537
 -0.513  -0.510  -0.485  -0.475  -0.464  -0.452  -0.451  -0.448
 -0.438  -0.431  -0.428  -0.415  -0.413  -0.412  -0.410  -0.396
 -0.391  -0.381  -0.378  -0.369  -0.362  -0.356  -0.353  -0.349
 -0.344  -0.336  -0.334  -0.331  -0.329  -0.326  -0.323  -0.312
 -0.311  -0.306  -0.305  -0.297  -0.294  -0.289  -0.286  -0.273
 -0.272  -0.253  -0.250  -0.248  -0.245  -0.234  -0.233  -0.183
 -0.181  -0.172  -0.167  -0.158  -0.158  -0.148  -0.145  -0.143
 -0.140

          Ground-State Mulliken Net Atomic Charges

     Atom                 Charge (a.u.)
  ----------------------------------------
      1 O                    -0.211559
      2 C                     0.213077
      3 C                    -0.078958
      4 C                    -0.079413
      5 C                     0.216618
      6 O                    -0.175429
      7 C                    -0.048880
      8 C                    -0.048490
      9 O                    -0.174789
     10 C                     0.214615
     11 C                    -0.079466
     12 C                    -0.078755
     13 C                     0.213065
     14 O                    -0.209784
     15 O                    -0.167421
     16 O                    -0.169041
     17 O                    -0.218194
     18 C                    -0.129529
     19 C                     0.026139
     20 C                    -0.144394
     21 C                    -0.143501
     22 C                     0.024124
     23 O                    -0.186330
     24 H                     0.085874
     25 H                     0.085142
     26 H                     0.083389
     27 H                     0.078254
     28 H                     0.073354
     29 H                     0.078653
     30 H                     0.073244
     31 H                     0.090753
     32 O                    -0.222549
     33 C                    -0.126746
     34 C                     0.024671
     35 C                    -0.143029
     36 C                    -0.144747
     37 C                     0.026107
     38 O                    -0.186486
     39 H                     0.084975
     40 H                     0.085816
     41 H                     0.093007
     42 H                     0.088980
     43 H                     0.078442
     44 H                     0.073151
     45 H                     0.078400
     46 H                     0.073679
     47 H                     0.084084
     48 H                     0.091888
     49 H                     0.090813
     50 H                     0.096256
     51 H                     0.092685
     52 H                     0.092746
     53 H                     0.094071
     54 H                     0.087087
     55 H                     0.090128
     56 H                     0.084202
  ----------------------------------------
  Sum of atomic charges =     0.000000

                    Cartesian Multipole Moments
 -----------------------------------------------------------------
    Charge (ESU x 10^10)
                 0.0000
    Dipole Moment (Debye)
         X       0.7473      Y       3.0369      Z      -1.3201
       Tot       3.3947
    Quadrupole Moments (Debye-Ang)
        XX    -153.2119     XY      10.7343     YY    -158.9746
        XZ      12.0651     YZ       2.4495     ZZ    -158.8472

 Total job time:  53.20s(wall), 2527.74s(cpu)
        *  Thank you very much for using Q-Chem.  Have a nice day.  *
