 Q-Chem 5.0, Q-Chem, Inc., Pleasanton, CA (2017)
 Q-Chem 5.0.1 for Intel X86 EM64T Linux

User input:
--------------------------------------------------------------
$molecule
0  1
O -6.0729333188 1.7103643204 1.1308839834
C -5.0886206746 1.3079844736 0.4747509224
C -5.0800165977 0.1507784889 -0.5851627172
C -3.6663514791 -0.4667943736 -0.9477708685
C -2.4921100599 -0.0307964141 0.0020714062
O -1.5097945198 0.6472776346 -0.7967446018
C -0.317010538 0.9456511323 0.0323601521
C 0.682395476 1.7454141926 -0.876606003
O 2.030450952 1.8088428169 -0.2637626031
C 2.7827319389 0.6270732548 -0.5949304097
C 4.2992111621 0.9169398897 -0.3172311808
C 4.9460234185 0.0197943914 0.8191640662
C 3.9578781023 -0.9168360807 1.6005435569
O 4.2284774393 -2.0229658705 2.1142408443
O -3.8114136675 1.9563317773 0.4803525186
O 2.6871983454 -0.2664680536 1.7234528198
O 2.2905814561 -0.3787042735 -1.1502479461
C 1.7312687872 -1.1406356575 2.4437305982
C 5.1699324947 0.4593165621 -1.567596302
C 6.6224747914 1.0646018026 -1.4210755095
C 7.2380944803 0.1221078651 -0.3207021038
C 6.0094737566 -0.8173146714 -0.0078388759
O 5.362518741 -0.9890367543 -1.3295952777
H 4.4133212338 1.9920511559 -0.0947024948
H 5.4492511247 0.6600416266 1.567913861
H 4.6848655043 0.6277279167 -2.5485238971
H 7.1704436165 0.9890194212 -2.3737265183
H 6.5981741494 2.1212892899 -1.1100763805
H 8.0803933779 -0.4656565348 -0.7188359583
H 7.5794126091 0.6721396422 0.5707157046
H 6.251102443 -1.8001180939 0.4420494478
O -2.3279364366 -0.3269811486 1.2050268988
C -3.7830083642 3.039343064 1.4885850333
C -5.877066884 -1.1369996199 -0.105905688
C -6.3146881225 -1.9423183 -1.3905859587
C -4.9315380324 -2.5279452793 -1.8610059373
C -3.9717645439 -2.0112137919 -0.7163639643
O -4.8298778218 -1.9973704618 0.49091883
H -5.5486926154 0.5687728353 -1.4968910627
H -3.3779733433 -0.2407690513 -1.9887748063
H -3.9075876072 2.6389541089 2.5153699489
H -6.6798804831 -0.9257039879 0.6272447574
H -7.0192577292 -2.7441104657 -1.1174925754
H -6.7882119409 -1.2992057594 -2.1493663996
H -4.9440619496 -3.6290562003 -1.8869621917
H -4.6273079812 -2.1554012906 -2.8523958422
H -3.0714523117 -2.6316258349 -0.5415106587
H -4.5777572065 3.789725369 1.3009025797
H -2.7897969352 3.5156170693 1.3951734159
H 0.816175975 -0.5393045406 2.596019391
H 2.1362691065 -1.4621445885 3.4244034198
H 1.4858127565 -2.043943493 1.848567826
H 0.7254594476 1.2514849247 -1.8709140376
H 0.3472457453 2.7950771904 -0.9961004922
H 0.1662330602 0.0012445805 0.3621489292
H -0.5900424499 1.5301429938 0.9368351226
$end

$rem
JOBTYPE                   OPT
METHOD                    B3LYP
DFT_D                     d3_op
BASIS                     STO-3G
GEOM_OPT_MAX_CYCLES       100
GEOM_OPT_TOL_GRADIENT     300
GEOM_OPT_TOL_DISPLACEMENT 1200
GEOM_OPT_TOL_ENERGY       100
SYMMETRY                  False
THRESH                    12
SCF_CONVERGENCE           8
MAX_SUB_FILE_NUM          128
MEM_STATIC                400
MEM_TOTAL                 4000
$end
--------------------------------------------------------------

   15   -1510.2802160735      8.25E-09 Convergence criterion met
 Total energy in the final basis set = -1510.28021607
   14   -1510.2812442261      8.11E-09 Convergence criterion met
 Total energy in the final basis set = -1510.28124423
   13   -1510.2834490045      8.08E-09 Convergence criterion met
 Total energy in the final basis set = -1510.28344900
   13   -1510.2845061040      7.38E-09 Convergence criterion met
 Total energy in the final basis set = -1510.28450610
   14   -1510.2858085497      4.41E-09 Convergence criterion met
 Total energy in the final basis set = -1510.28580855
   13   -1510.2870930226      7.45E-09 Convergence criterion met
 Total energy in the final basis set = -1510.28709302
   14   -1510.2862078451      7.29E-09 Convergence criterion met
 Total energy in the final basis set = -1510.28620785
   15   -1510.2855897127      1.88E-09 Convergence criterion met
   11   -1510.2911268206      5.71E-09 Convergence criterion met
 Total energy in the final basis set = -1510.29112682
   11   -1510.2911275526      2.37E-09 Convergence criterion met
 Total energy in the final basis set = -1510.29112755
    9   -1510.2911294342      8.62E-09 Convergence criterion met
 Total energy in the final basis set = -1510.29112943
   11   -1510.2911328517      4.03E-09 Convergence criterion met
 Total energy in the final basis set = -1510.29113285
   11   -1510.2911385369      9.05E-09 Convergence criterion met
 Total energy in the final basis set = -1510.29113854
   11   -1510.2911408386      1.79E-09 Convergence criterion met
 Total energy in the final basis set = -1510.29114084

             Standard Nuclear Orientation (Angstroms)
    I     Atom           X                Y                Z
 ----------------------------------------------------------------
    1      O      -4.8696651143     1.6957065714     1.9064748933
    2      C      -4.4979732467     1.4349090321     0.7439830501
    3      C      -4.7987897328     0.1437975898    -0.0970135287
    4      C      -3.5028705005    -0.4919671881    -0.7607770074
    5      C      -2.1939872835     0.2926553732    -0.4141091138
    6      O      -1.6572163072     0.8514193330    -1.6167631929
    7      C      -0.4120724788     1.6059527177    -1.3208573096
    8      C       0.7519621470     1.0579182987    -2.2179184995
    9      O       2.0468709947     1.4382299545    -1.6015779140
   10      C       2.7987774096     0.2571074839    -1.2776149602
   11      C       4.1041563277     0.6914032093    -0.5348586298
   12      C       4.3024236420    -0.0643909295     0.8466883960
   13      C       3.1258529416    -1.0397030160     1.2119873360
   14      O       3.2136578146    -2.2492396775     1.5106807334
   15      O      -3.7004472946     2.3092626831    -0.0668405349
   16      O       1.9004137225    -0.3022217450     1.1622064207
   17      O       2.4438281023    -0.9031514509    -1.5835466213
   18      C       0.7494833040    -1.2044108994     1.4076319820
   19      C       5.4003475444     0.2043688363    -1.3173152325
   20      C       6.6590096749     0.9389898088    -0.7049769651
   21      C       6.8501448179     0.1476260184     0.6430599836
   22      C       5.6420704821    -0.8639479363     0.5713419033
   23      O       5.5556168223    -1.1969689893    -0.8704801926
   24      H       4.0831889269     1.7872981768    -0.4050926668
   25      H       4.4231662842     0.6625091452     1.6707754208
   26      H       5.3159906636     0.2532398326    -2.4203795176
   27      H       7.5310859259     0.8256597363    -1.3682961486
   28      H       6.4731011487     2.0131443733    -0.5450654723
   29      H       7.8082809944    -0.3956984095     0.6588266380
   30      H       6.7971012286     0.7973861798     1.5310285289
   31      H       5.7409843477    -1.7873494636     1.1747312363
   32      O      -1.6554942745     0.3945724478     0.7144910435
   33      C      -3.2649130585     3.4853445825     0.7195542993
   34      C      -5.2818519728    -1.0423508583     0.8341388186
   35      C      -5.9329833208    -2.1580007779    -0.0733593895
   36      C      -4.6546342640    -2.7915669915    -0.7386874223
   37      C      -3.5065874653    -1.9295178368    -0.0793360464
   38      O      -4.0113177605    -1.6574056632     1.2846309502
   39      H      -5.5496828479     0.3940238461    -0.8691619702
   40      H      -3.5965131267    -0.5479032621    -1.8592328200
   41      H      -2.5352969504     3.1900204577     1.5017381725
   42      H      -5.8811980363    -0.7112262784     1.7044976079
   43      H      -6.4718897778    -2.8922965988     0.5460732710
   44      H      -6.6329115124    -1.7357210222    -0.8119715496
   45      H      -4.5406574113    -3.8529304224    -0.4667426728
   46      H      -4.6588458179    -2.7069070776    -1.8371690897
   47      H      -2.5140016087    -2.4183730221    -0.0340703297
   48      H      -4.1222362877     3.9929322632     1.2056823625
   49      H      -2.7796717937     4.1722405636     0.0021674200
   50      H      -0.1649195450    -0.5915980818     1.2442228811
   51      H       0.7623542354    -1.6000435332     2.4431403485
   52      H       0.7630259855    -2.0605784335     0.7033474840
   53      H       0.7111429612    -0.0529615665    -2.2774561145
   54      H       0.7026441556     1.4865525276    -3.2401614110
   55      H      -0.1664357918     1.4706511128    -0.2445838043
   56      H      -0.5987483806     2.6810124009    -1.5234039095
 ----------------------------------------------------------------

    9   -1510.2911410131      3.69E-09 Convergence criterion met
 Total energy in the final basis set = -1510.29114101
 Final energy is   -1510.29114101313
 **  OPTIMIZATION CONVERGED  **

                    Orbital Energies (a.u.)
 --------------------------------------------------------------

 Alpha MOs
 -- Occupied --
-18.941 -18.941 -18.931 -18.923 -18.891 -18.886 -18.885 -18.881
-18.873 -18.869 -10.109 -10.106 -10.099 -10.091 -10.069 -10.069
-10.066 -10.064 -10.061 -10.059 -10.054 -10.044 -10.043 -10.039
-10.036 -10.033 -10.023 -10.022 -10.019 -10.018  -1.022  -1.014
 -1.011  -1.000  -0.973  -0.968  -0.944  -0.942  -0.934  -0.927
 -0.768  -0.761  -0.729  -0.723  -0.713  -0.705  -0.696  -0.667
 -0.648  -0.619  -0.598  -0.578  -0.550  -0.542  -0.541  -0.535
 -0.515  -0.507  -0.484  -0.472  -0.465  -0.459  -0.456  -0.449
 -0.440  -0.432  -0.428  -0.419  -0.418  -0.407  -0.401  -0.400
 -0.397  -0.381  -0.378  -0.365  -0.363  -0.358  -0.354  -0.353
 -0.348  -0.338  -0.335  -0.332  -0.329  -0.326  -0.323  -0.313
 -0.309  -0.308  -0.303  -0.299  -0.291  -0.289  -0.280  -0.277
 -0.269  -0.258  -0.255  -0.247  -0.242  -0.237  -0.232  -0.188
 -0.183  -0.169  -0.167  -0.166  -0.159  -0.157  -0.147  -0.145
 -0.141

          Ground-State Mulliken Net Atomic Charges

     Atom                 Charge (a.u.)
  ----------------------------------------
      1 O                    -0.204551
      2 C                     0.214103
      3 C                    -0.078073
      4 C                    -0.078349
      5 C                     0.220793
      6 O                    -0.167914
      7 C                    -0.056754
      8 C                    -0.057347
      9 O                    -0.173378
     10 C                     0.214322
     11 C                    -0.078379
     12 C                    -0.078907
     13 C                     0.212239
     14 O                    -0.209780
     15 O                    -0.171913
     16 O                    -0.177450
     17 O                    -0.215117
     18 C                    -0.143861
     19 C                     0.025743
     20 C                    -0.143958
     21 C                    -0.143950
     22 C                     0.024295
     23 O                    -0.186553
     24 H                     0.086371
     25 H                     0.083997
     26 H                     0.082238
     27 H                     0.077828
     28 H                     0.073197
     29 H                     0.078112
     30 H                     0.073055
     31 H                     0.091340
     32 O                    -0.222535
     33 C                    -0.129420
     34 C                     0.024340
     35 C                    -0.143884
     36 C                    -0.143777
     37 C                     0.025876
     38 O                    -0.186268
     39 H                     0.086366
     40 H                     0.088167
     41 H                     0.092982
     42 H                     0.091456
     43 H                     0.079393
     44 H                     0.073445
     45 H                     0.079683
     46 H                     0.074280
     47 H                     0.084637
     48 H                     0.093099
     49 H                     0.090173
     50 H                     0.107883
     51 H                     0.082924
     52 H                     0.084113
     53 H                     0.103099
     54 H                     0.083627
     55 H                     0.105142
     56 H                     0.083798
  ----------------------------------------
  Sum of atomic charges =     0.000000

                    Cartesian Multipole Moments
 -----------------------------------------------------------------
    Charge (ESU x 10^10)
                 0.0000
    Dipole Moment (Debye)
         X      -1.2561      Y       2.9816      Z      -1.9425
       Tot       3.7737
    Quadrupole Moments (Debye-Ang)
        XX    -145.4914     XY      14.1544     YY    -158.8492
        XZ      11.8177     YZ       0.0765     ZZ    -163.7133

 Total job time:  107.40s(wall), 5115.68s(cpu)
        *  Thank you very much for using Q-Chem.  Have a nice day.  *
