 Q-Chem 5.0, Q-Chem, Inc., Pleasanton, CA (2017)
 Q-Chem 5.0.1 for Intel X86 EM64T Linux

User input:
--------------------------------------------------------------
$molecule
0  1
O -6.3086296305 0.7050262852 1.2081217285
C -5.4470816374 0.8376647995 0.3143044063
C -5.0393241199 -0.2021722074 -0.7878095749
C -3.4737839681 -0.3366502387 -0.9900028711
C -2.627789088 0.4490616173 0.0735789851
O -1.5849740109 1.1803392205 -0.6030581198
C -0.3593936146 1.1905215987 0.2332951187
C 0.7019223293 2.080725957 -0.5047499972
O 2.0134805096 2.0058554777 0.1815284858
C 2.7494990546 0.8574273969 -0.2795462282
C 4.2611586443 1.0688620207 0.0868964496
C 4.9152762951 -0.1634334833 0.834616705
C 3.9145909022 -1.2156407495 1.4276760524
O 4.1727867359 -2.3955850069 1.7464776189
O -4.6970280884 2.0385456321 0.0860933598
O 2.6670448966 -0.566158168 1.7079662819
O 2.2636508407 -0.0329903072 -1.0098192855
C 1.684724877 -1.5330705219 2.2481572056
C 5.1060045471 1.0500178156 -1.2609038654
C 6.598150387 1.4703250049 -0.9488243437
C 7.1701747709 0.1430503147 -0.3245547623
C 5.8708798619 -0.751028998 -0.2906169336
O 5.1928436499 -0.3981393488 -1.5592695662
H 4.367441362 2.0085824357 0.655529687
H 5.5222326091 0.1978424424 1.6867206609
H 4.6325972762 1.5894778006 -2.1042082927
H 7.12516677 1.7424380713 -1.8768460045
H 6.6475532811 2.3223986387 -0.2519735055
H 7.9303442305 -0.3128172611 -0.9789137864
H 7.6064176181 0.2914973812 0.6761023378
H 6.0369830355 -1.8439369286 -0.2222823133
O -2.7251912426 0.3573605751 1.3166798292
C -4.9789537911 3.026103598 1.1519486569
C -5.4350487263 -1.6835375219 -0.3885568372
C -5.4382460688 -2.5617742745 -1.6995178373
C -3.894500019 -2.6776842852 -1.9860077218
C -3.2913010655 -1.8998997301 -0.7492114596
O -4.2461680497 -2.1766185244 0.34695876
H -5.5260753012 0.0987282688 -1.7341089009
H -3.1551147825 -0.0265621029 -2.0002266079
H -4.6070964544 2.6699616981 2.1346997677
H -6.3401998295 -1.7519056389 0.2459412326
H -5.885549077 -3.5485846214 -1.4997365811
H -5.9914472769 -2.0828175727 -2.5231670577
H -3.5583058521 -3.7266684473 -1.9824826425
H -3.6052709661 -2.2168112194 -2.9438838378
H -2.2668524111 -2.2034686984 -0.458054626
H -6.0643844287 3.2360418267 1.2382475156
H -4.4411889938 3.9485308518 0.8656282566
H 0.8244861375 -0.9346341961 2.6007455094
H 2.1103780934 -2.1150443079 3.0901722084
H 1.3466754707 -2.2401726068 1.4628288515
H 0.7859887443 1.739112547 -1.5585349669
H 0.397833757 3.1463403706 -0.4799511644
H 0.0419772424 0.1580466142 0.3300816872
H -0.5618033324 1.5858214694 1.2523641058
$end

$rem
JOBTYPE                   OPT
METHOD                    B3LYP
DFT_D                     d3_op
BASIS                     STO-3G
GEOM_OPT_MAX_CYCLES       100
GEOM_OPT_TOL_GRADIENT     300
GEOM_OPT_TOL_DISPLACEMENT 1200
GEOM_OPT_TOL_ENERGY       100
SYMMETRY                  False
THRESH                    12
SCF_CONVERGENCE           8
MAX_SUB_FILE_NUM          128
MEM_STATIC                400
MEM_TOTAL                 4000
$end
--------------------------------------------------------------

   16   -1510.2739699052      6.10E-09 Convergence criterion met
 Total energy in the final basis set = -1510.27396991
   14   -1510.2780509369      6.20E-09 Convergence criterion met
 Total energy in the final basis set = -1510.27805094
   14   -1510.2815669046      8.40E-09 Convergence criterion met
 Total energy in the final basis set = -1510.28156690
   14   -1510.2838132509      2.46E-09 Convergence criterion met
 Total energy in the final basis set = -1510.28381325
   14   -1510.2848314246      1.85E-09 Convergence criterion met
 Total energy in the final basis set = -1510.28483142
   13   -1510.2857223728      9.26E-09 Convergence criterion met
 Total energy in the final basis set = -1510.28572237
   14   -1510.2867425949      7.71E-09 Convergence criterion met
 Total energy in the final basis set = -1510.28674259
   13   -1510.2874868569      9.65E-09 Convergence criterion met
   11   -1510.2914243547      8.36E-09 Convergence criterion met
 Total energy in the final basis set = -1510.29142435
   12   -1510.2914606796      2.51E-09 Convergence criterion met
 Total energy in the final basis set = -1510.29146068
   12   -1510.2914935419      5.30E-09 Convergence criterion met
 Total energy in the final basis set = -1510.29149354
   12   -1510.2915047203      2.34E-09 Convergence criterion met
 Total energy in the final basis set = -1510.29150472
   12   -1510.2915132560      3.33E-09 Convergence criterion met
 Total energy in the final basis set = -1510.29151326
    9   -1510.2915129422      7.60E-09 Convergence criterion met
 Total energy in the final basis set = -1510.29151294

             Standard Nuclear Orientation (Angstroms)
    I     Atom           X                Y                Z
 ----------------------------------------------------------------
    1      O      -4.7467278804     0.6313448425     2.2567195692
    2      C      -4.4648786573     0.8085072298     1.0540196520
    3      C      -4.8114031375    -0.1209182063    -0.1629432141
    4      C      -3.5459027814    -0.4758474627    -1.0548758957
    5      C      -2.2240056226     0.1508777454    -0.4987072610
    6      O      -1.6833360856     1.0280485523    -1.4899431428
    7      C      -0.4315505561     1.6605979870    -1.0017308092
    8      C       0.7548274888     1.2685917528    -1.9488148619
    9      O       2.0255361397     1.6576944670    -1.2910661577
   10      C       2.8759438830     0.5076217816    -1.1432116358
   11      C       4.1516573262     0.9491670217    -0.3540215083
   12      C       4.3575009820     0.1461420900     0.9996613531
   13      C       3.2532768235    -0.9363216492     1.2812247571
   14      O       3.4391712970    -2.1379733118     1.5676716550
   15      O      -3.7471029041     1.9426467731     0.5465270753
   16      O       1.9672260338    -0.3201553111     1.1692528676
   17      O       2.6140581560    -0.6211058384    -1.6140797036
   18      C       0.8989801398    -1.3342096638     1.3486382515
   19      C       5.4842829992     0.5568011370    -1.1286101908
   20      C       6.6874453287     1.3485137534    -0.4777412437
   21      C       6.8902826363     0.5464657196     0.8625050470
   22      C       5.7576368367    -0.5447084738     0.7361307891
   23      O       5.7211085849    -0.8433328191    -0.7151816177
   24      H       4.0837573148     2.0359899013    -0.1727199379
   25      H       4.3953664081     0.8396019166     1.8601774265
   26      H       5.4121977928     0.6286738067    -2.2312258735
   27      H       7.5787464649     1.2908154164    -1.1224367759
   28      H       6.4414553151     2.4087854059    -0.3070568424
   29      H       7.8829713586     0.0706122999     0.9016355035
   30      H       6.7631694835     1.1751387252     1.7582362258
   31      H       5.9100119681    -1.4754332250     1.3169642151
   32      O      -1.6949646517    -0.0771489733     0.6151329748
   33      C      -3.2565838501     2.7795493043     1.6645876007
   34      C      -5.2594495742    -1.5594408514     0.3240497222
   35      C      -5.9613238916    -2.2967938501    -0.8810023945
   36      C      -4.7204932525    -2.6452483278    -1.7858812910
   37      C      -3.5348755693    -2.0609335534    -0.9202984608
   38      O      -3.9754280872    -2.2843080939     0.4745796660
   39      H      -5.5929540552     0.3698729604    -0.7718686551
   40      H      -3.6755752658    -0.1436369584    -2.0994903624
   41      H      -2.4774578732     2.2446118564     2.2460654024
   42      H      -5.8144039581    -1.5539952537     1.2823521490
   43      H      -6.4723893091    -3.2074487863    -0.5302708337
   44      H      -6.6953986308    -1.6537122371    -1.3920802601
   45      H      -4.6031972862    -3.7337127258    -1.9091477911
   46      H      -4.7762165560    -2.1813492081    -2.7836966660
   47      H      -2.5470326531    -2.5297838313    -1.0947184040
   48      H      -4.0775584106     3.0687786817     2.3510460593
   49      H      -2.8178284002     3.6829873338     1.2026167423
   50      H      -0.0634064271    -0.8244914426     1.1200589497
   51      H       0.8848956996    -1.7180188481     2.3885991250
   52      H       1.0472962379    -2.1908234233     0.6611703635
   53      H       0.7752881707     0.1702478809    -2.1268307865
   54      H       0.6734032408     1.7979270432    -2.9210774847
   55      H      -0.2284015786     1.3068908230     0.0318833124
   56      H      -0.5828318386     2.7598708862    -0.9952592418
 ----------------------------------------------------------------

    9   -1510.2915138901      4.72E-09 Convergence criterion met
 Total energy in the final basis set = -1510.29151389
 Final energy is   -1510.29151389014
 **  OPTIMIZATION CONVERGED  **

                    Orbital Energies (a.u.)
 --------------------------------------------------------------

 Alpha MOs
 -- Occupied --
-18.942 -18.939 -18.930 -18.924 -18.891 -18.885 -18.885 -18.883
-18.872 -18.869 -10.111 -10.105 -10.098 -10.092 -10.070 -10.068
-10.066 -10.064 -10.061 -10.059 -10.054 -10.044 -10.042 -10.038
-10.036 -10.034 -10.023 -10.022 -10.019 -10.017  -1.023  -1.014
 -1.010  -1.001  -0.973  -0.967  -0.945  -0.942  -0.934  -0.928
 -0.768  -0.761  -0.729  -0.723  -0.714  -0.705  -0.696  -0.666
 -0.648  -0.619  -0.598  -0.579  -0.550  -0.542  -0.541  -0.535
 -0.515  -0.507  -0.484  -0.473  -0.467  -0.459  -0.457  -0.448
 -0.439  -0.432  -0.428  -0.419  -0.417  -0.407  -0.400  -0.400
 -0.396  -0.382  -0.379  -0.364  -0.363  -0.359  -0.355  -0.353
 -0.348  -0.337  -0.335  -0.332  -0.329  -0.326  -0.323  -0.313
 -0.308  -0.308  -0.303  -0.300  -0.290  -0.289  -0.281  -0.277
 -0.269  -0.259  -0.255  -0.247  -0.243  -0.237  -0.231  -0.188
 -0.182  -0.170  -0.168  -0.166  -0.158  -0.156  -0.147  -0.146
 -0.141

          Ground-State Mulliken Net Atomic Charges

     Atom                 Charge (a.u.)
  ----------------------------------------
      1 O                    -0.204473
      2 C                     0.214209
      3 C                    -0.078232
      4 C                    -0.078122
      5 C                     0.221140
      6 O                    -0.168014
      7 C                    -0.055727
      8 C                    -0.056482
      9 O                    -0.173889
     10 C                     0.214681
     11 C                    -0.078915
     12 C                    -0.078672
     13 C                     0.211722
     14 O                    -0.209730
     15 O                    -0.173069
     16 O                    -0.177503
     17 O                    -0.215437
     18 C                    -0.144878
     19 C                     0.025752
     20 C                    -0.143853
     21 C                    -0.144181
     22 C                     0.024269
     23 O                    -0.186586
     24 H                     0.085916
     25 H                     0.083829
     26 H                     0.082621
     27 H                     0.077812
     28 H                     0.072990
     29 H                     0.078125
     30 H                     0.072851
     31 H                     0.091449
     32 O                    -0.221527
     33 C                    -0.129582
     34 C                     0.024360
     35 C                    -0.143853
     36 C                    -0.143747
     37 C                     0.025752
     38 O                    -0.185869
     39 H                     0.086183
     40 H                     0.088282
     41 H                     0.092815
     42 H                     0.091522
     43 H                     0.079346
     44 H                     0.073468
     45 H                     0.079587
     46 H                     0.074173
     47 H                     0.084598
     48 H                     0.092505
     49 H                     0.090015
     50 H                     0.109742
     51 H                     0.082382
     52 H                     0.085935
     53 H                     0.101627
     54 H                     0.083248
     55 H                     0.103900
     56 H                     0.085532
  ----------------------------------------
  Sum of atomic charges =     0.000000

                    Cartesian Multipole Moments
 -----------------------------------------------------------------
    Charge (ESU x 10^10)
                 0.0000
    Dipole Moment (Debye)
         X      -1.5392      Y       3.6111      Z      -1.5531
       Tot       4.2215
    Quadrupole Moments (Debye-Ang)
        XX    -146.8610     XY      12.2804     YY    -160.2018
        XZ      12.6546     YZ       4.3899     ZZ    -161.0890

 Total job time:  123.30s(wall), 5874.41s(cpu)
        *  Thank you very much for using Q-Chem.  Have a nice day.  *
