 Q-Chem 5.0, Q-Chem, Inc., Pleasanton, CA (2017)
 Q-Chem 5.0.1 for Intel X86 EM64T Linux

User input:
--------------------------------------------------------------
$molecule
0  1
O -3.94934 -3.66094 2.70899
C -3.26408 -4.56952 2.26188
C -3.36658 -6.02376 2.66595
C -2.05047 -6.77687 2.91998
C -0.78633 -5.94619 2.91502
O 0.17471 -6.56822 2.1701
C 1.49417 -6.39961 2.6991
C 2.51954 -7.03683 1.76705
O 3.81903 -7.01113 2.37824
C 4.08842 -8.0405 3.21905
C 5.56555 -8.21634 3.47949
C 5.95416 -8.3157 4.96185
C 4.81642 -8.58249 5.92678
O 4.93753 -9.02037 7.06175
O -2.47865 -4.31414 1.18207
O 3.70509 -7.81203 5.75664
O 3.26826 -8.90769 3.50735
C 2.62182 -7.76902 6.61288
C 6.12039 -9.54998 2.94358
C 7.62536 -9.42442 2.71425
C 8.12265 -9.35569 4.14391
C 6.81131 -9.59654 4.90236
O 6.06339 -10.42307 4.04348
H 6.10748 -7.38123 2.97759
H 6.51123 -7.42856 5.33492
H 5.61394 -9.89498 2.01551
H 7.96323 -10.38629 2.26562
H 7.94583 -8.58514 2.06022
H 8.83761 -10.19264 4.30608
H 8.58843 -8.39075 4.43997
H 7.02527 -10.01371 5.91106
O -0.58926 -4.98045 3.64375
C -2.30704 -3.06613 0.62102
C -4.07258 -6.21817 4.02107
C -4.61104 -7.64549 4.13486
C -3.3268 -8.41426 4.36149
C -2.3109 -7.26981 4.35707
O -3.01587 -6.20406 4.94834
H -3.94276 -6.51493 1.8501
H -1.92348 -7.64278 2.22936
H -1.86923 -2.36922 1.36735
H -4.8939 -5.49062 4.19941
H -5.22938 -7.71276 5.05831
H -5.21361 -7.97198 3.25998
H -3.36204 -8.86482 5.37874
H -3.10228 -9.20151 3.60984
H -1.37675 -7.58454 4.87386
H -3.28074 -2.66982 0.26167
H -1.61419 -3.14752 -0.24141
H 1.86825 -7.06096 6.21175
H 2.93795 -7.41872 7.61848
H 2.1597 -8.77617 6.69189
H 2.22395 -8.07312 1.48392
H 2.54774 -6.44811 0.82574
H 1.53938 -6.89652 3.69301
H 1.75728 -5.32378 2.81716
$end

$opt
CONSTRAINT
tors           1           2           3           4    -135.666
tors           3           4           5           6    -133.908
tors           4           5           6           7    -144.065
tors           5           6           7           8    -176.116
tors           6           7           8           9    -172.939
tors           7           8           9          10     +84.950
tors           8           9          10          11    +161.546
tors           9          10          11          12    +129.713
tors          11          12          13          14    +160.598
ENDCONSTRAINT
$end

$rem
JOBTYPE                   OPT
METHOD                    B3LYP
DFT_D                     d3_op
BASIS                     STO-3G
GEOM_OPT_MAX_CYCLES       100
GEOM_OPT_TOL_GRADIENT     300
GEOM_OPT_TOL_DISPLACEMENT 1200
GEOM_OPT_TOL_ENERGY       100
SYMMETRY                  False
THRESH                    12
SCF_CONVERGENCE           8
MAX_SUB_FILE_NUM          128
MEM_STATIC                400
MEM_TOTAL                 4000
$end
--------------------------------------------------------------

   15   -1510.1358952474      5.38E-09 Convergence criterion met
 Total energy in the final basis set = -1510.13589525
   14   -1510.2066050669      5.62E-09 Convergence criterion met
 Total energy in the final basis set = -1510.20660507
   14   -1510.2448201133      6.47E-09 Convergence criterion met
 Total energy in the final basis set = -1510.24482011
   14   -1510.2619069829      6.23E-09 Convergence criterion met
 Total energy in the final basis set = -1510.26190698
    2   -1510.2619069829      2.67E-09 Convergence criterion met
 Total energy in the final basis set = -1510.26190698
   14   -1510.2676722828      4.02E-09 Convergence criterion met
 Total energy in the final basis set = -1510.26767228
   13   -1510.2697516483      4.06E-09 Convergence criterion met
 Total energy in the final basis set = -1510.26975165
   12   -1510.2708893804      9.47E-09 Convergence criterion met
    9   -1510.2739929577      5.97E-09 Convergence criterion met
 Total energy in the final basis set = -1510.27399296
    9   -1510.2739950725      2.81E-09 Convergence criterion met
 Total energy in the final basis set = -1510.27399507
    9   -1510.2739982757      3.76E-09 Convergence criterion met
 Total energy in the final basis set = -1510.27399828
    9   -1510.2740006384      5.32E-09 Convergence criterion met
 Total energy in the final basis set = -1510.27400064
    9   -1510.2740021911      5.74E-09 Convergence criterion met
 Total energy in the final basis set = -1510.27400219
    9   -1510.2740074680      2.97E-09 Convergence criterion met
 Total energy in the final basis set = -1510.27400747

             Standard Nuclear Orientation (Angstroms)
    I     Atom           X                Y                Z
 ----------------------------------------------------------------
    1      O      -6.3086296305     0.7050262852     1.2081217285
    2      C      -5.4470816374     0.8376647995     0.3143044063
    3      C      -5.0393241199    -0.2021722074    -0.7878095749
    4      C      -3.4737839681    -0.3366502387    -0.9900028711
    5      C      -2.6277890880     0.4490616173     0.0735789851
    6      O      -1.5849740109     1.1803392205    -0.6030581198
    7      C      -0.3593936146     1.1905215987     0.2332951187
    8      C       0.7019223293     2.0807259570    -0.5047499972
    9      O       2.0134805096     2.0058554777     0.1815284858
   10      C       2.7494990546     0.8574273969    -0.2795462282
   11      C       4.2611586443     1.0688620207     0.0868964496
   12      C       4.9152762951    -0.1634334833     0.8346167050
   13      C       3.9145909022    -1.2156407495     1.4276760524
   14      O       4.1727867359    -2.3955850069     1.7464776189
   15      O      -4.6970280884     2.0385456321     0.0860933598
   16      O       2.6670448966    -0.5661581680     1.7079662819
   17      O       2.2636508407    -0.0329903072    -1.0098192855
   18      C       1.6847248770    -1.5330705219     2.2481572056
   19      C       5.1060045471     1.0500178156    -1.2609038654
   20      C       6.5981503870     1.4703250049    -0.9488243437
   21      C       7.1701747709     0.1430503147    -0.3245547623
   22      C       5.8708798619    -0.7510289980    -0.2906169336
   23      O       5.1928436499    -0.3981393488    -1.5592695662
   24      H       4.3674413620     2.0085824357     0.6555296870
   25      H       5.5222326091     0.1978424424     1.6867206609
   26      H       4.6325972762     1.5894778006    -2.1042082927
   27      H       7.1251667700     1.7424380713    -1.8768460045
   28      H       6.6475532811     2.3223986387    -0.2519735055
   29      H       7.9303442305    -0.3128172611    -0.9789137864
   30      H       7.6064176181     0.2914973812     0.6761023378
   31      H       6.0369830355    -1.8439369286    -0.2222823133
   32      O      -2.7251912426     0.3573605751     1.3166798292
   33      C      -4.9789537911     3.0261035980     1.1519486569
   34      C      -5.4350487263    -1.6835375219    -0.3885568372
   35      C      -5.4382460688    -2.5617742745    -1.6995178373
   36      C      -3.8945000190    -2.6776842852    -1.9860077218
   37      C      -3.2913010655    -1.8998997301    -0.7492114596
   38      O      -4.2461680497    -2.1766185244     0.3469587600
   39      H      -5.5260753012     0.0987282688    -1.7341089009
   40      H      -3.1551147825    -0.0265621029    -2.0002266079
   41      H      -4.6070964544     2.6699616981     2.1346997677
   42      H      -6.3401998295    -1.7519056389     0.2459412326
   43      H      -5.8855490770    -3.5485846214    -1.4997365811
   44      H      -5.9914472769    -2.0828175727    -2.5231670577
   45      H      -3.5583058521    -3.7266684473    -1.9824826425
   46      H      -3.6052709661    -2.2168112194    -2.9438838378
   47      H      -2.2668524111    -2.2034686984    -0.4580546260
   48      H      -6.0643844287     3.2360418267     1.2382475156
   49      H      -4.4411889938     3.9485308518     0.8656282566
   50      H       0.8244861375    -0.9346341961     2.6007455094
   51      H       2.1103780934    -2.1150443079     3.0901722084
   52      H       1.3466754707    -2.2401726068     1.4628288515
   53      H       0.7859887443     1.7391125470    -1.5585349669
   54      H       0.3978337570     3.1463403706    -0.4799511644
   55      H       0.0419772424     0.1580466142     0.3300816872
   56      H      -0.5618033324     1.5858214694     1.2523641058
 ----------------------------------------------------------------

    8   -1510.2740079074      7.48E-09 Convergence criterion met
 Total energy in the final basis set = -1510.27400791
 Final energy is   -1510.27400790740
 **  OPTIMIZATION CONVERGED  **

                    Orbital Energies (a.u.)
 --------------------------------------------------------------

 Alpha MOs
 -- Occupied --
-18.942 -18.933 -18.927 -18.920 -18.889 -18.887 -18.880 -18.877
-18.872 -18.866 -10.105 -10.099 -10.097 -10.097 -10.071 -10.068
-10.067 -10.062 -10.062 -10.061 -10.060 -10.057 -10.040 -10.038
-10.036 -10.035 -10.022 -10.021 -10.020 -10.019  -1.017  -1.012
 -1.006  -1.001  -0.972  -0.969  -0.942  -0.936  -0.933  -0.929
 -0.765  -0.762  -0.727  -0.722  -0.712  -0.705  -0.695  -0.665
 -0.660  -0.616  -0.597  -0.581  -0.547  -0.545  -0.539  -0.537
 -0.514  -0.509  -0.485  -0.472  -0.465  -0.454  -0.452  -0.448
 -0.437  -0.432  -0.429  -0.414  -0.412  -0.411  -0.410  -0.397
 -0.388  -0.384  -0.375  -0.370  -0.362  -0.357  -0.352  -0.350
 -0.345  -0.339  -0.338  -0.332  -0.330  -0.326  -0.324  -0.314
 -0.310  -0.307  -0.304  -0.298  -0.291  -0.289  -0.284  -0.275
 -0.272  -0.254  -0.253  -0.249  -0.243  -0.235  -0.233  -0.183
 -0.176  -0.172  -0.167  -0.159  -0.156  -0.150  -0.148  -0.143
 -0.142

          Ground-State Mulliken Net Atomic Charges

     Atom                 Charge (a.u.)
  ----------------------------------------
      1 O                    -0.208825
      2 C                     0.214726
      3 C                    -0.079390
      4 C                    -0.078186
      5 C                     0.214312
      6 O                    -0.180179
      7 C                    -0.050371
      8 C                    -0.048007
      9 O                    -0.175396
     10 C                     0.216217
     11 C                    -0.078468
     12 C                    -0.079317
     13 C                     0.213620
     14 O                    -0.210296
     15 O                    -0.171617
     16 O                    -0.168697
     17 O                    -0.220084
     18 C                    -0.128992
     19 C                     0.025953
     20 C                    -0.144885
     21 C                    -0.142572
     22 C                     0.024866
     23 O                    -0.185878
     24 H                     0.086904
     25 H                     0.085288
     26 H                     0.082475
     27 H                     0.078512
     28 H                     0.073936
     29 H                     0.078801
     30 H                     0.073748
     31 H                     0.089897
     32 O                    -0.212272
     33 C                    -0.128423
     34 C                     0.024101
     35 C                    -0.143408
     36 C                    -0.144048
     37 C                     0.025689
     38 O                    -0.186971
     39 H                     0.084491
     40 H                     0.086855
     41 H                     0.092466
     42 H                     0.090826
     43 H                     0.078396
     44 H                     0.073165
     45 H                     0.078644
     46 H                     0.074501
     47 H                     0.081737
     48 H                     0.090292
     49 H                     0.090044
     50 H                     0.094289
     51 H                     0.094704
     52 H                     0.090673
     53 H                     0.093737
     54 H                     0.088814
     55 H                     0.085204
     56 H                     0.088401
  ----------------------------------------
  Sum of atomic charges =     0.000000

                    Cartesian Multipole Moments
 -----------------------------------------------------------------
    Charge (ESU x 10^10)
                 0.0000
    Dipole Moment (Debye)
         X       1.2028      Y       2.3356      Z      -1.1384
       Tot       2.8632
    Quadrupole Moments (Debye-Ang)
        XX    -152.2915     XY       7.1270     YY    -156.7659
        XZ      14.9722     YZ       2.8752     ZZ    -161.0877

 Total job time:  63.97s(wall), 3041.55s(cpu)
        *  Thank you very much for using Q-Chem.  Have a nice day.  *
