 Q-Chem 5.0, Q-Chem, Inc., Pleasanton, CA (2017)
 Q-Chem 5.0.1 for Intel X86 EM64T Linux

User input:
--------------------------------------------------------------
$molecule
0  1
O -6.039996801 1.9356597219 1.144704533
C -5.0499914263 1.4776684324 0.5349110867
C -5.0842389196 0.4973616043 -0.6938751094
C -3.8468711644 -0.4850857416 -0.847853981
C -2.682963322 -0.3003613803 0.1920571376
O -1.6570379891 0.4955008828 -0.4228639055
C -0.4300766209 0.4599345202 0.4091677281
C 0.6039300135 1.4258268475 -0.2690533606
O 1.8796997182 1.455516807 0.4876398476
C 2.7723437904 0.4412934201 -0.0161419152
C 4.2495303782 0.9426121351 0.1528805051
C 5.2725783436 -0.2161348271 0.479001026
C 4.6372092951 -1.5338567027 1.042186133
O 5.1328732593 -2.6809103994 1.0055442168
O -3.6974951097 1.8323976489 0.8341110468
O 3.4573832505 -1.1891879324 1.782578876
O 2.3881339464 -0.5514145487 -0.6716688915
C 2.785109949 -2.4033546791 2.297094393
C 4.7642134723 1.3592398889 -1.2960545743
C 6.1956973746 2.0203145145 -1.176249352
C 7.1105011094 0.7505572306 -0.9998881352
C 6.0209280919 -0.3861895754 -0.9115852545
O 5.022622987 0.0409469816 -1.9202174382
H 4.2850441352 1.7694703618 0.8829658231
H 5.9915074264 0.1281495658 1.2469045132
H 4.03017506 1.9341454984 -1.8936383008
H 6.4427480874 2.5779189982 -2.0934595873
H 6.2573157877 2.7079769295 -0.3175968941
H 7.7536387408 0.5946531074 -1.8809426324
H 7.7451019251 0.8002329749 -0.1008387805
H 6.3739842443 -1.4153257212 -1.1184475637
O -2.5735290904 -0.8412494453 1.3131012541
C -3.6409265042 2.7014662834 2.0311726984
C -6.2725131195 -0.538853073 -0.5145177103
C -6.5592577774 -1.2421796246 -1.898422119
C -5.3370055343 -2.2299995319 -1.9976769666
C -4.5654937292 -1.8904865458 -0.6626992752
O -5.6523915423 -1.6073200646 0.3025250698
H -5.2126117355 1.1087504669 -1.6070336593
H -3.407354901 -0.385359677 -1.8558985855
H -4.0224537473 2.176181645 2.9304112818
H -7.155080478 -0.1125829517 0.0018442508
H -7.516292945 -1.7864213605 -1.8607171184
H -6.5964363258 -0.5222138786 -2.7316629372
H -5.6669577874 -3.2810515954 -1.9949273913
H -4.7179180481 -2.0549310056 -2.8921918908
H -3.9066462722 -2.6912902316 -0.2748764524
H -4.2279410375 3.6313402811 1.8868849795
H -2.573717033 2.9520671761 2.1736988213
H 1.8279456944 -2.5457598659 1.7560549464
H 2.5800570904 -2.2598295349 3.3754362783
H 3.4405732936 -3.2840642172 2.1418646764
H 0.7689371534 1.1026238984 -1.3183393501
H 0.2140234402 2.4642976818 -0.2572576291
H -0.0089837171 -0.5688925061 0.4442070577
H -0.6397664547 0.784718097 1.4512516426
$end

$rem
JOBTYPE                   OPT
METHOD                    B3LYP
DFT_D                     d3_op
BASIS                     STO-3G
GEOM_OPT_MAX_CYCLES       100
GEOM_OPT_TOL_GRADIENT     300
GEOM_OPT_TOL_DISPLACEMENT 1200
GEOM_OPT_TOL_ENERGY       100
SYMMETRY                  False
THRESH                    12
SCF_CONVERGENCE           8
MAX_SUB_FILE_NUM          128
MEM_STATIC                400
MEM_TOTAL                 4000
$end
--------------------------------------------------------------

   16   -1510.2742624695      5.53E-09 Convergence criterion met
 Total energy in the final basis set = -1510.27426247
   14   -1510.2785692073      7.28E-09 Convergence criterion met
 Total energy in the final basis set = -1510.27856921
   14   -1510.2812290903      3.11E-09 Convergence criterion met
 Total energy in the final basis set = -1510.28122909
   14   -1510.2824994103      6.83E-09 Convergence criterion met
 Total energy in the final basis set = -1510.28249941
   14   -1510.2837943505      1.76E-09 Convergence criterion met
 Total energy in the final basis set = -1510.28379435
   13   -1510.2842953354      8.67E-09 Convergence criterion met
 Total energy in the final basis set = -1510.28429534
   13   -1510.2849516176      6.46E-09 Convergence criterion met
 Total energy in the final basis set = -1510.28495162
   13   -1510.2854940753      5.07E-09 Convergence criterion met
   11   -1510.2988298534      6.26E-09 Convergence criterion met
 Total energy in the final basis set = -1510.29882985
   11   -1510.2988378577      3.72E-09 Convergence criterion met
 Total energy in the final basis set = -1510.29883786
   11   -1510.2988492714      6.17E-09 Convergence criterion met
 Total energy in the final basis set = -1510.29884927
   11   -1510.2988556816      2.31E-09 Convergence criterion met
 Total energy in the final basis set = -1510.29885568
   11   -1510.2988679948      2.03E-09 Convergence criterion met
 Total energy in the final basis set = -1510.29886799
   11   -1510.2988737759      2.71E-09 Convergence criterion met
 Total energy in the final basis set = -1510.29887378

             Standard Nuclear Orientation (Angstroms)
    I     Atom           X                Y                Z
 ----------------------------------------------------------------
    1      O      -2.4479636845     0.6248083939     2.4511759216
    2      C      -2.5194814543     0.7037185584     1.2057195193
    3      C      -3.7978705304     0.5143182113     0.3157705581
    4      C      -3.5611603078    -0.3509993039    -0.9927627520
    5      C      -2.1111619299    -0.9376417014    -1.1132156139
    6      O      -1.4921502608    -0.3602862409    -2.2667170993
    7      C      -0.1552709274    -0.9499935449    -2.5185854668
    8      C       0.8226719810     0.1723682577    -3.0165583399
    9      O       1.4194942749     0.9582422970    -1.9103897989
   10      C       2.5584101028     0.2673955000    -1.3744832386
   11      C       3.2108601522     1.1689277246    -0.2748877348
   12      C       3.4762021603     0.4085837794     1.0919241369
   13      C       2.9864351295    -1.0833521741     1.1085368348
   14      O       3.6528633008    -2.1020173500     1.3816956169
   15      O      -1.4320199233     1.0321490933     0.3412676201
   16      O       1.5914567898    -1.1020152972     0.7803975001
   17      O       2.9555243246    -0.8473861945    -1.7784236308
   18      C       1.0432300113    -2.4784610320     0.8014861457
   19      C       4.7001939455     1.5636336821    -0.6762065269
   20      C       5.1729042675     2.7383623863     0.2694696892
   21      C       5.4520186982     1.9595605005     1.6087292785
   22      C       5.0544647534     0.4903188714     1.1920099995
   23      O       5.4925284867     0.4007393238    -0.2210908198
   24      H       2.5760100702     2.0600144115    -0.1320850007
   25      H       2.9857642042     0.9393324432     1.9289297333
   26      H       4.8527518051     1.7383309712    -1.7590412203
   27      H       6.0882723760     3.2063223218    -0.1262440828
   28      H       4.3990593350     3.5144733415     0.3815737455
   29      H       6.5164226934     2.0062546856     1.8885091794
   30      H       4.8473373838     2.3310095038     2.4513931222
   31      H       5.5065174159    -0.3256847093     1.7887590524
   32      O      -1.6011198145    -1.8246151114    -0.3910320166
   33      C      -0.1751923100     1.2083937179     1.1097769124
   34      C      -4.9038506700    -0.3421492351     1.0604077961
   35      C      -6.2861958323    -0.1114493746     0.3356716194
   36      C      -6.0693605474    -0.9304517287    -0.9915878161
   37      C      -4.6192774065    -1.5146299575    -0.7593580665
   38      O      -4.5570564316    -1.7374029217     0.7020947618
   39      H      -4.1765851462     1.5186741443     0.0486228915
   40      H      -3.7723679364     0.2329750510    -1.9054699459
   41      H       0.4833188867     0.3166381037     0.9657399361
   42      H      -4.9019149408    -0.2112150423     2.1602050300
   43      H      -7.1097389228    -0.5294169298     0.9361257146
   44      H      -6.4885371268     0.9555577892     0.1508656489
   45      H      -6.8024251981    -1.7470943607    -1.0873953203
   46      H      -6.1226361540    -0.3010056206    -1.8943173399
   47      H      -4.3956518079    -2.4533526248    -1.3025593090
   48      H      -0.4117626171     1.3340321637     2.1845920778
   49      H       0.3237110295     2.1137030848     0.7167422160
   50      H       0.0040453256    -2.3835655451     0.4140480921
   51      H       1.0383716161    -2.8881487452     1.8316150917
   52      H       1.6412816548    -3.1496160113     0.1535757972
   53      H       1.6238532565    -0.3040282821    -3.6216918976
   54      H       0.2643557185     0.8993523185    -3.6408764939
   55      H      -0.2498689132    -1.7235818524    -3.3124645924
   56      H       0.2348070035    -1.4349319878    -1.6011163429
 ----------------------------------------------------------------

   11   -1510.2988746951      2.69E-09 Convergence criterion met
 Total energy in the final basis set = -1510.29887470
 Final energy is   -1510.29887469512
 **  OPTIMIZATION CONVERGED  **

                    Orbital Energies (a.u.)
 --------------------------------------------------------------

 Alpha MOs
 -- Occupied --
-18.939 -18.937 -18.936 -18.930 -18.889 -18.887 -18.882 -18.877
-18.875 -18.874 -10.107 -10.103 -10.101 -10.097 -10.077 -10.073
-10.063 -10.061 -10.059 -10.057 -10.046 -10.041 -10.040 -10.039
-10.037 -10.037 -10.023 -10.021 -10.021 -10.020  -1.018  -1.014
 -1.010  -1.005  -0.972  -0.970  -0.943  -0.939  -0.936  -0.933
 -0.766  -0.764  -0.729  -0.724  -0.715  -0.706  -0.699  -0.657
 -0.651  -0.621  -0.599  -0.582  -0.548  -0.545  -0.539  -0.538
 -0.512  -0.512  -0.481  -0.477  -0.463  -0.460  -0.455  -0.453
 -0.436  -0.431  -0.427  -0.422  -0.412  -0.409  -0.404  -0.401
 -0.395  -0.383  -0.373  -0.371  -0.366  -0.356  -0.353  -0.349
 -0.346  -0.343  -0.333  -0.333  -0.330  -0.328  -0.323  -0.312
 -0.311  -0.306  -0.305  -0.301  -0.295  -0.289  -0.286  -0.277
 -0.272  -0.256  -0.251  -0.249  -0.242  -0.236  -0.234  -0.187
 -0.182  -0.171  -0.169  -0.161  -0.158  -0.152  -0.151  -0.146
 -0.144

          Ground-State Mulliken Net Atomic Charges

     Atom                 Charge (a.u.)
  ----------------------------------------
      1 O                    -0.213099
      2 C                     0.212478
      3 C                    -0.078256
      4 C                    -0.077898
      5 C                     0.223356
      6 O                    -0.169820
      7 C                    -0.053095
      8 C                    -0.049014
      9 O                    -0.169641
     10 C                     0.209159
     11 C                    -0.079165
     12 C                    -0.079591
     13 C                     0.218107
     14 O                    -0.202600
     15 O                    -0.173346
     16 O                    -0.178043
     17 O                    -0.215396
     18 C                    -0.144416
     19 C                     0.026027
     20 C                    -0.143928
     21 C                    -0.143918
     22 C                     0.024691
     23 O                    -0.185856
     24 H                     0.085718
     25 H                     0.085001
     26 H                     0.082807
     27 H                     0.078630
     28 H                     0.073537
     29 H                     0.079119
     30 H                     0.073505
     31 H                     0.091870
     32 O                    -0.222226
     33 C                    -0.154096
     34 C                     0.023971
     35 C                    -0.143766
     36 C                    -0.144194
     37 C                     0.025774
     38 O                    -0.186805
     39 H                     0.084752
     40 H                     0.086364
     41 H                     0.110312
     42 H                     0.091170
     43 H                     0.078521
     44 H                     0.073154
     45 H                     0.078191
     46 H                     0.073270
     47 H                     0.082841
     48 H                     0.089974
     49 H                     0.076626
     50 H                     0.118526
     51 H                     0.084739
     52 H                     0.088684
     53 H                     0.094462
     54 H                     0.094427
     55 H                     0.084597
     56 H                     0.103807
  ----------------------------------------
  Sum of atomic charges =     0.000000

                    Cartesian Multipole Moments
 -----------------------------------------------------------------
    Charge (ESU x 10^10)
                 0.0000
    Dipole Moment (Debye)
         X      -1.6758      Y       3.2196      Z      -1.8564
       Tot       4.0768
    Quadrupole Moments (Debye-Ang)
        XX    -158.3165     XY       8.8471     YY    -160.7645
        XZ      10.2918     YZ       4.4373     ZZ    -156.6771

 Total job time:  191.17s(wall), 9118.04s(cpu)
        *  Thank you very much for using Q-Chem.  Have a nice day.  *
