 Q-Chem 5.0, Q-Chem, Inc., Pleasanton, CA (2017)
 Q-Chem 5.0.1 for Intel X86 EM64T Linux

User input:
--------------------------------------------------------------
$molecule
0  1
O -3.94934 -3.66094 2.70899
C -3.26408 -4.56952 2.26188
C -3.36658 -6.02376 2.66595
C -2.08505 -6.86885 2.58015
C -0.80551 -6.12401 2.27017
O -0.52122 -6.22445 0.93807
C 0.79838 -5.77793 0.60866
C 1.00904 -5.82908 -0.90103
O 2.33702 -5.38826 -1.22509
C 3.2806 -6.36145 -1.26656
C 4.37736 -6.07543 -2.26454
C 5.77252 -6.56664 -1.85161
C 5.81145 -7.56106 -0.70866
O 6.71801 -8.35064 -0.48667
O -2.55646 -4.31739 1.12856
O 5.13606 -7.16473 0.40859
O 3.03602 -7.51234 -0.91434
C 5.09637 -7.81595 1.62935
C 4.19152 -6.83524 -3.59388
C 4.9343 -6.10268 -4.70944
C 6.3716 -6.37274 -4.31346
C 6.15509 -7.33082 -3.13502
O 4.9603 -8.00288 -3.45015
H 4.36732 -4.98253 -2.48367
H 6.47311 -5.73992 -1.60216
H 3.12435 -6.98175 -3.87081
H 4.71558 -6.65216 -5.65333
H 4.67332 -5.03093 -4.84389
H 6.87763 -6.8854 -5.16139
H 6.95503 -5.47932 -4.00171
H 7.05149 -7.97481 -2.99761
O -0.25837 -5.33856 3.03622
C -2.40983 -3.07215 0.55414
C -3.68742 -6.186 4.16835
C -4.31448 -7.55655 4.42528
C -3.10732 -8.45524 4.26018
C -2.01461 -7.40993 4.01781
O -2.42885 -6.30592 4.78473
H -4.19934 -6.45346 2.06559
H -2.19301 -7.69251 1.83753
H -1.91323 -2.37999 1.26736
H -4.35238 -5.3896 4.56787
H -4.63078 -7.58471 5.49271
H -5.18371 -7.802 3.77794
H -2.92477 -8.97984 5.22453
H -3.17388 -9.19499 3.43329
H -1.01393 -7.83012 4.26297
H -3.40083 -2.66463 0.2611
H -1.77757 -3.1636 -0.35285
H 4.04032 -8.04659 1.88033
H 5.51097 -7.14878 2.41267
H 5.66729 -8.76896 1.62823
H 0.7814 -6.83997 -1.31019
H 0.28509 -5.13295 -1.37558
H 1.54677 -6.43124 1.11071
H 0.95315 -4.72362 0.93369
$end

$opt
CONSTRAINT
tors           1           2           3           4    -150.529
tors           3           4           5           6     -97.980
tors           4           5           6           7    -168.346
tors           5           6           7           8    -176.116
tors           6           7           8           9    -179.635
tors           7           8           9          10     +90.265
tors           8           9          10          11    +148.795
tors           9          10          11          12    +145.612
tors          11          12          13          14    +157.275
ENDCONSTRAINT
$end

$rem
JOBTYPE                   OPT
METHOD                    B3LYP
DFT_D                     d3_op
BASIS                     STO-3G
GEOM_OPT_MAX_CYCLES       100
GEOM_OPT_TOL_GRADIENT     300
GEOM_OPT_TOL_DISPLACEMENT 1200
GEOM_OPT_TOL_ENERGY       100
SYMMETRY                  False
THRESH                    12
SCF_CONVERGENCE           8
MAX_SUB_FILE_NUM          128
MEM_STATIC                400
MEM_TOTAL                 4000
$end
--------------------------------------------------------------

   15   -1510.1289855031      9.45E-09 Convergence criterion met
 Total energy in the final basis set = -1510.12898550
   14   -1510.1998124657      2.61E-09 Convergence criterion met
 Total energy in the final basis set = -1510.19981247
   14   -1510.2384157483      5.14E-09 Convergence criterion met
 Total energy in the final basis set = -1510.23841575
   14   -1510.2566931818      7.45E-09 Convergence criterion met
 Total energy in the final basis set = -1510.25669318
   14   -1510.2641077180      3.74E-09 Convergence criterion met
 Total energy in the final basis set = -1510.26410772
   14   -1510.2674890460      3.21E-09 Convergence criterion met
 Total energy in the final basis set = -1510.26748905
   13   -1510.2692492255      5.74E-09 Convergence criterion met
 Total energy in the final basis set = -1510.26924923
   12   -1510.2704317132      8.76E-09 Convergence criterion met
   11   -1510.2742017887      4.59E-09 Convergence criterion met
 Total energy in the final basis set = -1510.27420179
   11   -1510.2742121540      3.15E-09 Convergence criterion met
 Total energy in the final basis set = -1510.27421215
    9   -1510.2742159280      7.07E-09 Convergence criterion met
 Total energy in the final basis set = -1510.27421593
    9   -1510.2742180868      3.66E-09 Convergence criterion met
 Total energy in the final basis set = -1510.27421809
    9   -1510.2742195697      3.03E-09 Convergence criterion met
 Total energy in the final basis set = -1510.27421957
    8   -1510.2742207211      9.46E-09 Convergence criterion met
 Total energy in the final basis set = -1510.27422072

             Standard Nuclear Orientation (Angstroms)
    I     Atom           X                Y                Z
 ----------------------------------------------------------------
    1      O      -6.0399968010     1.9356597219     1.1447045330
    2      C      -5.0499914263     1.4776684324     0.5349110867
    3      C      -5.0842389196     0.4973616043    -0.6938751094
    4      C      -3.8468711644    -0.4850857416    -0.8478539810
    5      C      -2.6829633220    -0.3003613803     0.1920571376
    6      O      -1.6570379891     0.4955008828    -0.4228639055
    7      C      -0.4300766209     0.4599345202     0.4091677281
    8      C       0.6039300135     1.4258268475    -0.2690533606
    9      O       1.8796997182     1.4555168070     0.4876398476
   10      C       2.7723437904     0.4412934201    -0.0161419152
   11      C       4.2495303782     0.9426121351     0.1528805051
   12      C       5.2725783436    -0.2161348271     0.4790010260
   13      C       4.6372092951    -1.5338567027     1.0421861330
   14      O       5.1328732593    -2.6809103994     1.0055442168
   15      O      -3.6974951097     1.8323976489     0.8341110468
   16      O       3.4573832505    -1.1891879324     1.7825788760
   17      O       2.3881339464    -0.5514145487    -0.6716688915
   18      C       2.7851099490    -2.4033546791     2.2970943930
   19      C       4.7642134723     1.3592398889    -1.2960545743
   20      C       6.1956973746     2.0203145145    -1.1762493520
   21      C       7.1105011094     0.7505572306    -0.9998881352
   22      C       6.0209280919    -0.3861895754    -0.9115852545
   23      O       5.0226229870     0.0409469816    -1.9202174382
   24      H       4.2850441352     1.7694703618     0.8829658231
   25      H       5.9915074264     0.1281495658     1.2469045132
   26      H       4.0301750600     1.9341454984    -1.8936383008
   27      H       6.4427480874     2.5779189982    -2.0934595873
   28      H       6.2573157877     2.7079769295    -0.3175968941
   29      H       7.7536387408     0.5946531074    -1.8809426324
   30      H       7.7451019251     0.8002329749    -0.1008387805
   31      H       6.3739842443    -1.4153257212    -1.1184475637
   32      O      -2.5735290904    -0.8412494453     1.3131012541
   33      C      -3.6409265042     2.7014662834     2.0311726984
   34      C      -6.2725131195    -0.5388530730    -0.5145177103
   35      C      -6.5592577774    -1.2421796246    -1.8984221190
   36      C      -5.3370055343    -2.2299995319    -1.9976769666
   37      C      -4.5654937292    -1.8904865458    -0.6626992752
   38      O      -5.6523915423    -1.6073200646     0.3025250698
   39      H      -5.2126117355     1.1087504669    -1.6070336593
   40      H      -3.4073549010    -0.3853596770    -1.8558985855
   41      H      -4.0224537473     2.1761816450     2.9304112818
   42      H      -7.1550804780    -0.1125829517     0.0018442508
   43      H      -7.5162929450    -1.7864213605    -1.8607171184
   44      H      -6.5964363258    -0.5222138786    -2.7316629372
   45      H      -5.6669577874    -3.2810515954    -1.9949273913
   46      H      -4.7179180481    -2.0549310056    -2.8921918908
   47      H      -3.9066462722    -2.6912902316    -0.2748764524
   48      H      -4.2279410375     3.6313402811     1.8868849795
   49      H      -2.5737170330     2.9520671761     2.1736988213
   50      H       1.8279456944    -2.5457598659     1.7560549464
   51      H       2.5800570904    -2.2598295349     3.3754362783
   52      H       3.4405732936    -3.2840642172     2.1418646764
   53      H       0.7689371534     1.1026238984    -1.3183393501
   54      H       0.2140234402     2.4642976818    -0.2572576291
   55      H      -0.0089837171    -0.5688925061     0.4442070577
   56      H      -0.6397664547     0.7847180970     1.4512516426
 ----------------------------------------------------------------

    9   -1510.2742216210      1.63E-09 Convergence criterion met
 Total energy in the final basis set = -1510.27422162
 Final energy is   -1510.27422162101
 **  OPTIMIZATION CONVERGED  **

                    Orbital Energies (a.u.)
 --------------------------------------------------------------

 Alpha MOs
 -- Occupied --
-18.943 -18.936 -18.925 -18.922 -18.890 -18.885 -18.879 -18.879
-18.871 -18.863 -10.103 -10.103 -10.098 -10.094 -10.071 -10.069
-10.065 -10.064 -10.061 -10.059 -10.057 -10.056 -10.040 -10.039
-10.039 -10.033 -10.024 -10.022 -10.019 -10.018  -1.017  -1.015
 -1.006  -1.000  -0.973  -0.968  -0.940  -0.939  -0.933  -0.927
 -0.766  -0.761  -0.727  -0.722  -0.712  -0.705  -0.694  -0.665
 -0.660  -0.615  -0.598  -0.580  -0.547  -0.543  -0.540  -0.536
 -0.514  -0.509  -0.485  -0.475  -0.464  -0.455  -0.452  -0.449
 -0.436  -0.432  -0.426  -0.415  -0.413  -0.413  -0.410  -0.396
 -0.389  -0.381  -0.377  -0.369  -0.365  -0.355  -0.353  -0.349
 -0.345  -0.337  -0.334  -0.333  -0.328  -0.327  -0.324  -0.315
 -0.310  -0.307  -0.305  -0.297  -0.295  -0.289  -0.286  -0.274
 -0.271  -0.253  -0.249  -0.245  -0.243  -0.236  -0.232  -0.182
 -0.177  -0.170  -0.167  -0.161  -0.158  -0.152  -0.144  -0.143
 -0.142

          Ground-State Mulliken Net Atomic Charges

     Atom                 Charge (a.u.)
  ----------------------------------------
      1 O                    -0.211320
      2 C                     0.213044
      3 C                    -0.077945
      4 C                    -0.080753
      5 C                     0.216475
      6 O                    -0.175827
      7 C                    -0.048757
      8 C                    -0.047780
      9 O                    -0.178518
     10 C                     0.217097
     11 C                    -0.076616
     12 C                    -0.079100
     13 C                     0.216237
     14 O                    -0.212138
     15 O                    -0.166541
     16 O                    -0.170841
     17 O                    -0.214304
     18 C                    -0.134546
     19 C                     0.025003
     20 C                    -0.144748
     21 C                    -0.142295
     22 C                     0.025111
     23 O                    -0.186627
     24 H                     0.087430
     25 H                     0.085279
     26 H                     0.081422
     27 H                     0.078669
     28 H                     0.074195
     29 H                     0.078937
     30 H                     0.073962
     31 H                     0.090882
     32 O                    -0.219538
     33 C                    -0.126559
     34 C                     0.023949
     35 C                    -0.144328
     36 C                    -0.143826
     37 C                     0.025343
     38 O                    -0.188697
     39 H                     0.085183
     40 H                     0.084590
     41 H                     0.093504
     42 H                     0.089613
     43 H                     0.078313
     44 H                     0.072918
     45 H                     0.078056
     46 H                     0.073328
     47 H                     0.086097
     48 H                     0.091410
     49 H                     0.091367
     50 H                     0.088775
     51 H                     0.087547
     52 H                     0.102607
     53 H                     0.091898
     54 H                     0.087931
     55 H                     0.088547
     56 H                     0.086886
  ----------------------------------------
  Sum of atomic charges =    -0.000000

                    Cartesian Multipole Moments
 -----------------------------------------------------------------
    Charge (ESU x 10^10)
                 0.0000
    Dipole Moment (Debye)
         X       1.4289      Y       2.7488      Z      -0.8123
       Tot       3.2027
    Quadrupole Moments (Debye-Ang)
        XX    -158.6189     XY       9.7037     YY    -158.0851
        XZ      15.8282     YZ       0.8921     ZZ    -158.2800

 Total job time:  63.72s(wall), 3023.57s(cpu)
        *  Thank you very much for using Q-Chem.  Have a nice day.  *
