 Q-Chem 5.0, Q-Chem, Inc., Pleasanton, CA (2017)
 Q-Chem 5.0.1 for Intel X86 EM64T Linux

User input:
--------------------------------------------------------------
$molecule
0  1
O -6.0459900225 0.9434377893 1.5983775106
C -5.2724470061 1.0205246418 0.6214588346
C -5.2087661386 0.0681111489 -0.6241741127
C -3.739445849 -0.3620055486 -1.0339204564
C -2.6491391612 0.1044208971 -0.0082292989
O -1.5773174604 0.7190467826 -0.7363166934
C -0.4160417971 0.9294998747 0.1638039805
C 0.683332006 1.6778145634 -0.6727797151
O 1.9612563782 1.7528216424 0.0741725218
C 2.7633650187 0.581024161 -0.1861878717
C 4.2764065158 0.9996073557 -0.2016551733
C 5.1907322167 0.0879291351 0.7175413224
C 4.3746497204 -0.9365667591 1.5815722523
O 4.6570997567 -2.1267049983 1.8292969473
O -4.3178569555 2.0735620755 0.4266304859
O 3.2308464178 -0.2476969078 2.109506808
O 2.2874284056 -0.5201537248 -0.5393423365
C 2.3333293484 -1.1943453512 2.8095713058
C 4.9069757617 0.6837622499 -1.6279694178
C 6.3232647809 1.3814275732 -1.7110318786
C 7.1990005716 0.4067656934 -0.8387059484
C 6.1084847772 -0.6275420648 -0.358205697
O 5.2222336571 -0.7591344247 -1.5389077698
H 4.3523332915 2.0674542324 0.0662979313
H 5.7912431608 0.7091623933 1.4082042496
H 4.2329193586 0.8803642821 -2.4842847445
H 6.6747469511 1.4194643487 -2.7543787396
H 6.2992274208 2.4065336083 -1.3080641148
H 7.9650556023 -0.0991358851 -1.4476942303
H 7.6949674133 0.9150552789 0.0035300986
H 6.4844297571 -1.6199246807 -0.0407742473
O -2.6356103309 -0.0890885978 1.2268561725
C -4.2715714112 2.9449069034 1.6221797621
C -5.8810300056 -1.3357384097 -0.330791475
C -6.213313943 -2.0207137262 -1.7122813812
C -4.7704460374 -2.4157499205 -2.2039368756
C -3.8866206686 -1.9462379928 -0.9797138263
O -4.7631528562 -2.1552061501 0.194170572
H -5.7068595695 0.581443313 -1.4678969934
H -3.4635248872 0.0003906265 -2.0391481116
H -3.8956935285 2.3896595721 2.506068126
H -6.7092479806 -1.291498997 0.4033689401
H -6.8443470895 -2.9106022206 -1.558043386
H -6.7285937605 -1.3369500479 -2.4057478114
H -4.6756056763 -3.5030033543 -2.3533347658
H -4.4859587966 -1.9042704117 -3.1374064205
H -2.9314345888 -2.4920038886 -0.8521804676
H -5.269993592 3.3625601441 1.8640172251
H -3.5733725698 3.7660172314 1.3766008788
H 1.5168099935 -0.5834730436 3.2364566076
H 2.8618422054 -1.7349461232 3.6206455177
H 1.909875429 -1.9371742318 2.1025858674
H 0.8144843383 1.1503242884 -1.6415819947
H 0.3741650937 2.7257747431 -0.8627000891
H -0.0115737263 -0.0479418775 0.5069929135
H -0.7023644386 1.5219057224 1.0591329862
$end

$rem
JOBTYPE                   OPT
METHOD                    B3LYP
DFT_D                     d3_op
BASIS                     STO-3G
GEOM_OPT_MAX_CYCLES       100
GEOM_OPT_TOL_GRADIENT     300
GEOM_OPT_TOL_DISPLACEMENT 1200
GEOM_OPT_TOL_ENERGY       100
SYMMETRY                  False
THRESH                    12
SCF_CONVERGENCE           8
MAX_SUB_FILE_NUM          128
MEM_STATIC                400
MEM_TOTAL                 4000
$end
--------------------------------------------------------------

   16   -1510.2766861839      5.98E-09 Convergence criterion met
 Total energy in the final basis set = -1510.27668618
   14   -1510.2812161741      9.47E-09 Convergence criterion met
 Total energy in the final basis set = -1510.28121617
   14   -1510.2838937246      5.74E-09 Convergence criterion met
 Total energy in the final basis set = -1510.28389372
   14   -1510.2853545416      6.39E-09 Convergence criterion met
 Total energy in the final basis set = -1510.28535454
   14   -1510.2864090826      2.99E-09 Convergence criterion met
 Total energy in the final basis set = -1510.28640908
   14   -1510.2864927327      9.61E-09 Convergence criterion met
 Total energy in the final basis set = -1510.28649273
   14   -1510.2885309185      8.20E-09 Convergence criterion met
 Total energy in the final basis set = -1510.28853092
   13   -1510.2887124694      6.17E-09 Convergence criterion met
   12   -1510.2915275668      8.04E-09 Convergence criterion met
 Total energy in the final basis set = -1510.29152757
   13   -1510.2916299176      4.90E-09 Convergence criterion met
 Total energy in the final basis set = -1510.29162992
   12   -1510.2916751280      7.71E-09 Convergence criterion met
 Total energy in the final basis set = -1510.29167513
   12   -1510.2916853407      4.24E-09 Convergence criterion met
 Total energy in the final basis set = -1510.29168534
   12   -1510.2916904699      1.42E-09 Convergence criterion met
 Total energy in the final basis set = -1510.29169047
   11   -1510.2916920557      3.99E-09 Convergence criterion met
 Total energy in the final basis set = -1510.29169206

             Standard Nuclear Orientation (Angstroms)
    I     Atom           X                Y                Z
 ----------------------------------------------------------------
    1      O      -4.6330863349     1.8153253892     1.8660728795
    2      C      -4.3996998259     1.4336948392     0.7010403605
    3      C      -4.8426243838     0.0889698216     0.0233851194
    4      C      -3.6480791237    -0.6797125390    -0.6869629520
    5      C      -2.2723374839     0.0416018875    -0.4994660403
    6      O      -1.7596037366     0.3865468616    -1.7889248361
    7      C      -0.4611526831     1.0957797234    -1.6640463655
    8      C       0.6657469577     0.2560675801    -2.3592802248
    9      O       1.9747176782     0.8450490882    -1.9880654301
   10      C       2.8204248811    -0.1577844119    -1.3995995349
   11      C       4.1332721399     0.5428242784    -0.9186361230
   12      C       4.3835181443     0.3885603354     0.6417382286
   13      C       3.2712341875    -0.4313277957     1.3903840601
   14      O       3.4428207405    -1.4009426336     2.1590152913
   15      O      -3.6607284714     2.1897871361    -0.2689968936
   16      O       1.9945159985     0.1204134142     1.0550172855
   17      O       2.5277031329    -1.3720132397    -1.3371595687
   18      C       0.9119381557    -0.6867967519     1.6696600339
   19      C       5.4295800613    -0.1787164094    -1.4913573853
   20      C       6.6664239293     0.7801130747    -1.2724084306
   21      C       6.9154840665     0.6096260216     0.2727978118
   22      C       5.7598778657    -0.3946457457     0.6563009482
   23      O       5.6616387001    -1.2779744363    -0.5295293748
   24      H       4.0847385906     1.6043242762    -1.2173838169
   25      H       4.4696410808     1.3812136415     1.1208808851
   26      H       5.3177373667    -0.5788963654    -2.5177246303
   27      H       7.5301711437     0.4335669309    -1.8617063707
   28      H       6.4400130339     1.8204444250    -1.5555566655
   29      H       7.9002302559     0.1590253544     0.4748890695
   30      H       6.8418399537     1.5602266370     0.8249509725
   31      H       5.9189430101    -0.9959226624     1.5727334022
   32      O      -1.6857833049     0.2704888939     0.5849615471
   33      C      -3.0917504559     3.4057755649     0.3540474062
   34      C      -5.2994051107    -0.9772082537     1.1030499529
   35      C      -6.1107121024    -2.1107943454     0.3647784528
   36      C      -4.9516010319    -2.8743245212    -0.3785956640
   37      C      -3.6862187556    -2.0594146477     0.1035251621
   38      O      -4.0333165837    -1.6475977211     1.4815709808
   39      H      -5.6490666884     0.3068105111    -0.7008107854
   40      H      -3.8302045342    -0.8104649009    -1.7677380857
   41      H      -2.3270836854     3.1416026812     1.1135249744
   42      H      -5.7829892468    -0.5316590161     1.9943280905
   43      H      -6.6175051033    -2.7606593764     1.0956974913
   44      H      -6.8640558422    -1.6999875792    -0.3263870207
   45      H      -4.8809504834    -3.9229831892    -0.0487447829
   46      H      -5.0633715241    -2.8555452169    -1.4745471074
   47      H      -2.7316098894    -2.6204867572     0.0952215935
   48      H      -3.8750900005     4.0236602753     0.8374615309
   49      H      -2.6173884538     3.9767071133    -0.4651694289
   50      H      -0.0473963814    -0.2796968384     1.2791285361
   51      H       0.9332147022    -0.6060640519     2.7750479168
   52      H       1.0118255333    -1.7557556636     1.3943495864
   53      H       0.6452541541    -0.8025259189    -2.0167602787
   54      H       0.5525290389     0.2850840433    -3.4634150851
   55      H      -0.2251101555     1.2317125544    -0.5867277367
   56      H      -0.5667595879     2.0875626744    -2.1504589877
 ----------------------------------------------------------------

    9   -1510.2916913637      5.18E-09 Convergence criterion met
 Total energy in the final basis set = -1510.29169136
 Final energy is   -1510.29169136368
 **  OPTIMIZATION CONVERGED  **

                    Orbital Energies (a.u.)
 --------------------------------------------------------------

 Alpha MOs
 -- Occupied --
-18.942 -18.940 -18.929 -18.924 -18.891 -18.885 -18.885 -18.883
-18.872 -18.869 -10.111 -10.105 -10.098 -10.092 -10.070 -10.068
-10.067 -10.064 -10.061 -10.058 -10.054 -10.044 -10.042 -10.038
-10.036 -10.034 -10.024 -10.022 -10.019 -10.017  -1.023  -1.014
 -1.010  -1.000  -0.973  -0.967  -0.945  -0.943  -0.934  -0.928
 -0.768  -0.761  -0.729  -0.723  -0.714  -0.705  -0.696  -0.666
 -0.648  -0.619  -0.598  -0.579  -0.550  -0.542  -0.541  -0.535
 -0.515  -0.507  -0.484  -0.473  -0.467  -0.459  -0.456  -0.448
 -0.439  -0.432  -0.428  -0.419  -0.417  -0.407  -0.400  -0.400
 -0.396  -0.382  -0.379  -0.364  -0.363  -0.359  -0.355  -0.353
 -0.348  -0.338  -0.335  -0.332  -0.329  -0.325  -0.323  -0.314
 -0.308  -0.308  -0.303  -0.300  -0.290  -0.290  -0.281  -0.277
 -0.269  -0.259  -0.255  -0.247  -0.243  -0.237  -0.231  -0.188
 -0.182  -0.170  -0.168  -0.166  -0.158  -0.156  -0.147  -0.145
 -0.141

          Ground-State Mulliken Net Atomic Charges

     Atom                 Charge (a.u.)
  ----------------------------------------
      1 O                    -0.204639
      2 C                     0.214179
      3 C                    -0.078325
      4 C                    -0.078041
      5 C                     0.221265
      6 O                    -0.168081
      7 C                    -0.055365
      8 C                    -0.055882
      9 O                    -0.174160
     10 C                     0.214793
     11 C                    -0.078861
     12 C                    -0.078737
     13 C                     0.211736
     14 O                    -0.209477
     15 O                    -0.172809
     16 O                    -0.177513
     17 O                    -0.215788
     18 C                    -0.145022
     19 C                     0.025741
     20 C                    -0.143952
     21 C                    -0.144089
     22 C                     0.024271
     23 O                    -0.186694
     24 H                     0.085832
     25 H                     0.083860
     26 H                     0.082684
     27 H                     0.077707
     28 H                     0.072976
     29 H                     0.078085
     30 H                     0.072815
     31 H                     0.091438
     32 O                    -0.221356
     33 C                    -0.129340
     34 C                     0.024393
     35 C                    -0.143697
     36 C                    -0.143873
     37 C                     0.025770
     38 O                    -0.185878
     39 H                     0.086155
     40 H                     0.088263
     41 H                     0.093019
     42 H                     0.091638
     43 H                     0.079402
     44 H                     0.073459
     45 H                     0.079534
     46 H                     0.074121
     47 H                     0.084485
     48 H                     0.092145
     49 H                     0.090207
     50 H                     0.109788
     51 H                     0.082606
     52 H                     0.085641
     53 H                     0.101017
     54 H                     0.083054
     55 H                     0.103738
     56 H                     0.085759
  ----------------------------------------
  Sum of atomic charges =     0.000000

                    Cartesian Multipole Moments
 -----------------------------------------------------------------
    Charge (ESU x 10^10)
                 0.0000
    Dipole Moment (Debye)
         X      -1.6069      Y       2.7071      Z      -2.8727
       Tot       4.2618
    Quadrupole Moments (Debye-Ang)
        XX    -145.1087     XY      16.1544     YY    -158.3440
        XZ       5.8354     YZ       1.3246     ZZ    -164.4304

 Total job time:  105.81s(wall), 5034.57s(cpu)
        *  Thank you very much for using Q-Chem.  Have a nice day.  *
