 Q-Chem 5.0, Q-Chem, Inc., Pleasanton, CA (2017)
 Q-Chem 5.0.1 for Intel X86 EM64T Linux

User input:
--------------------------------------------------------------
$molecule
0  1
O -3.94934 -3.66094 2.70899
C -3.26408 -4.56952 2.26188
C -3.36658 -6.02376 2.66595
C -2.05111 -6.77228 2.93633
C -0.78976 -5.93741 2.94576
O 0.16849 -6.5358 2.17823
C 1.46421 -5.94791 2.33551
C 2.46121 -6.61305 1.39227
O 3.79244 -6.16483 1.69196
C 4.4524 -6.88528 2.63247
C 5.93372 -6.99282 2.35903
C 6.83894 -6.63163 3.54578
C 6.1602 -6.56833 4.8993
O 6.63133 -6.98265 5.94855
O -2.47206 -4.31296 1.18718
O 5.1181 -5.69745 4.99164
O 3.88676 -7.58241 3.46783
C 4.4351 -5.40999 6.15521
C 6.40695 -8.43225 2.07173
C 7.69136 -8.39082 1.2464
C 8.66878 -7.8549 2.27382
C 7.77921 -7.85274 3.52438
O 6.87651 -8.91074 3.30871
H 6.16639 -6.36459 1.46751
H 7.34948 -5.65525 3.3949
H 5.63871 -9.05539 1.56358
H 7.95683 -9.44861 1.01966
H 7.64247 -7.81756 0.29572
H 9.50592 -8.58103 2.37209
H 9.06531 -6.83723 2.06656
H 8.40716 -7.92576 4.43914
O -0.61761 -4.94384 3.64384
C -2.29401 -3.06378 0.6309
C -4.0888 -6.21869 4.01222
C -4.62283 -7.64798 4.12191
C -3.33849 -8.4107 4.36703
C -2.32716 -7.26213 4.37162
O -3.04351 -6.19803 4.95206
H -3.93081 -6.51747 1.84333
H -1.91306 -7.64054 2.2508
H -1.85827 -2.37045 1.38177
H -4.9153 -5.49422 4.17884
H -5.25332 -7.71649 5.03702
H -5.21199 -7.97831 3.23937
H -3.38447 -8.85759 5.38549
H -3.10185 -9.20003 3.62131
H -1.39849 -7.57202 4.90074
H -3.26462 -2.66366 0.26747
H -1.59654 -3.14452 -0.22787
H 3.63364 -4.67576 5.93362
H 5.12474 -4.97119 6.90751
H 3.97111 -6.33363 6.56252
H 2.38844 -7.72286 1.47101
H 2.20571 -6.34888 0.34435
H 1.79397 -6.10048 3.38723
H 1.44851 -4.85613 2.11489
$end

$opt
CONSTRAINT
tors           1           2           3           4    -134.954
tors           3           4           5           6    -131.998
tors           4           5           6           7    -168.884
tors           5           6           7           8    -176.771
tors           6           7           8           9    -171.380
tors           7           8           9          10     +88.270
tors           8           9          10          11    +145.060
tors           9          10          11          12    +129.713
tors          11          12          13          14    +139.544
ENDCONSTRAINT
$end

$rem
JOBTYPE                   OPT
METHOD                    B3LYP
DFT_D                     d3_op
BASIS                     STO-3G
GEOM_OPT_MAX_CYCLES       100
GEOM_OPT_TOL_GRADIENT     300
GEOM_OPT_TOL_DISPLACEMENT 1200
GEOM_OPT_TOL_ENERGY       100
SYMMETRY                  False
THRESH                    12
SCF_CONVERGENCE           8
MAX_SUB_FILE_NUM          128
MEM_STATIC                400
MEM_TOTAL                 4000
$end
--------------------------------------------------------------

   15   -1510.1490766546      8.92E-09 Convergence criterion met
 Total energy in the final basis set = -1510.14907665
   13   -1510.2178654578      9.17E-09 Convergence criterion met
 Total energy in the final basis set = -1510.21786546
   14   -1510.2542383445      4.81E-09 Convergence criterion met
 Total energy in the final basis set = -1510.25423834
   13   -1510.2691743281      9.60E-09 Convergence criterion met
 Total energy in the final basis set = -1510.26917433
   13   -1510.2729757892      6.09E-09 Convergence criterion met
 Total energy in the final basis set = -1510.27297579
   12   -1510.2741327874      7.62E-09 Convergence criterion met
 Total energy in the final basis set = -1510.27413279
   13   -1510.2750931634      4.03E-09 Convergence criterion met
 Total energy in the final basis set = -1510.27509316
   12   -1510.2756712158      6.31E-09 Convergence criterion met
   11   -1510.2767112449      9.36E-09 Convergence criterion met
 Total energy in the final basis set = -1510.27671124
   11   -1510.2767564134      6.56E-09 Convergence criterion met
 Total energy in the final basis set = -1510.27675641
   11   -1510.2767873569      3.51E-09 Convergence criterion met
 Total energy in the final basis set = -1510.27678736
   11   -1510.2767980381      2.53E-09 Convergence criterion met
 Total energy in the final basis set = -1510.27679804
    9   -1510.2768025756      9.38E-09 Convergence criterion met
 Total energy in the final basis set = -1510.27680258
    9   -1510.2768043058      6.24E-09 Convergence criterion met
 Total energy in the final basis set = -1510.27680431

             Standard Nuclear Orientation (Angstroms)
    I     Atom           X                Y                Z
 ----------------------------------------------------------------
    1      O      -6.0459900225     0.9434377893     1.5983775106
    2      C      -5.2724470061     1.0205246418     0.6214588346
    3      C      -5.2087661386     0.0681111489    -0.6241741127
    4      C      -3.7394458490    -0.3620055486    -1.0339204564
    5      C      -2.6491391612     0.1044208971    -0.0082292989
    6      O      -1.5773174604     0.7190467826    -0.7363166934
    7      C      -0.4160417971     0.9294998747     0.1638039805
    8      C       0.6833320060     1.6778145634    -0.6727797151
    9      O       1.9612563782     1.7528216424     0.0741725218
   10      C       2.7633650187     0.5810241610    -0.1861878717
   11      C       4.2764065158     0.9996073557    -0.2016551733
   12      C       5.1907322167     0.0879291351     0.7175413224
   13      C       4.3746497204    -0.9365667591     1.5815722523
   14      O       4.6570997567    -2.1267049983     1.8292969473
   15      O      -4.3178569555     2.0735620755     0.4266304859
   16      O       3.2308464178    -0.2476969078     2.1095068080
   17      O       2.2874284056    -0.5201537248    -0.5393423365
   18      C       2.3333293484    -1.1943453512     2.8095713058
   19      C       4.9069757617     0.6837622499    -1.6279694178
   20      C       6.3232647809     1.3814275732    -1.7110318786
   21      C       7.1990005716     0.4067656934    -0.8387059484
   22      C       6.1084847772    -0.6275420648    -0.3582056970
   23      O       5.2222336571    -0.7591344247    -1.5389077698
   24      H       4.3523332915     2.0674542324     0.0662979313
   25      H       5.7912431608     0.7091623933     1.4082042496
   26      H       4.2329193586     0.8803642821    -2.4842847445
   27      H       6.6747469511     1.4194643487    -2.7543787396
   28      H       6.2992274208     2.4065336083    -1.3080641148
   29      H       7.9650556023    -0.0991358851    -1.4476942303
   30      H       7.6949674133     0.9150552789     0.0035300986
   31      H       6.4844297571    -1.6199246807    -0.0407742473
   32      O      -2.6356103309    -0.0890885978     1.2268561725
   33      C      -4.2715714112     2.9449069034     1.6221797621
   34      C      -5.8810300056    -1.3357384097    -0.3307914750
   35      C      -6.2133139430    -2.0207137262    -1.7122813812
   36      C      -4.7704460374    -2.4157499205    -2.2039368756
   37      C      -3.8866206686    -1.9462379928    -0.9797138263
   38      O      -4.7631528562    -2.1552061501     0.1941705720
   39      H      -5.7068595695     0.5814433130    -1.4678969934
   40      H      -3.4635248872     0.0003906265    -2.0391481116
   41      H      -3.8956935285     2.3896595721     2.5060681260
   42      H      -6.7092479806    -1.2914989970     0.4033689401
   43      H      -6.8443470895    -2.9106022206    -1.5580433860
   44      H      -6.7285937605    -1.3369500479    -2.4057478114
   45      H      -4.6756056763    -3.5030033543    -2.3533347658
   46      H      -4.4859587966    -1.9042704117    -3.1374064205
   47      H      -2.9314345888    -2.4920038886    -0.8521804676
   48      H      -5.2699935920     3.3625601441     1.8640172251
   49      H      -3.5733725698     3.7660172314     1.3766008788
   50      H       1.5168099935    -0.5834730436     3.2364566076
   51      H       2.8618422054    -1.7349461232     3.6206455177
   52      H       1.9098754290    -1.9371742318     2.1025858674
   53      H       0.8144843383     1.1503242884    -1.6415819947
   54      H       0.3741650937     2.7257747431    -0.8627000891
   55      H      -0.0115737263    -0.0479418775     0.5069929135
   56      H      -0.7023644386     1.5219057224     1.0591329862
 ----------------------------------------------------------------

    9   -1510.2768051381      4.15E-09 Convergence criterion met
 Total energy in the final basis set = -1510.27680514
 Final energy is   -1510.27680513809
 **  OPTIMIZATION CONVERGED  **

                    Orbital Energies (a.u.)
 --------------------------------------------------------------

 Alpha MOs
 -- Occupied --
-18.938 -18.933 -18.928 -18.923 -18.889 -18.885 -18.882 -18.877
-18.872 -18.866 -10.103 -10.099 -10.099 -10.095 -10.073 -10.067
-10.065 -10.063 -10.063 -10.060 -10.059 -10.056 -10.039 -10.038
-10.036 -10.035 -10.023 -10.021 -10.019 -10.018  -1.016  -1.012
 -1.006  -1.003  -0.972  -0.968  -0.941  -0.937  -0.934  -0.929
 -0.765  -0.761  -0.727  -0.722  -0.712  -0.705  -0.695  -0.662
 -0.661  -0.616  -0.597  -0.580  -0.547  -0.544  -0.539  -0.536
 -0.514  -0.508  -0.484  -0.472  -0.464  -0.454  -0.452  -0.449
 -0.439  -0.431  -0.428  -0.413  -0.412  -0.411  -0.411  -0.397
 -0.389  -0.379  -0.376  -0.369  -0.362  -0.357  -0.352  -0.351
 -0.346  -0.341  -0.337  -0.333  -0.329  -0.327  -0.324  -0.313
 -0.309  -0.307  -0.303  -0.294  -0.291  -0.286  -0.285  -0.275
 -0.270  -0.257  -0.252  -0.251  -0.245  -0.236  -0.232  -0.179
 -0.178  -0.172  -0.170  -0.159  -0.155  -0.150  -0.146  -0.145
 -0.141

          Ground-State Mulliken Net Atomic Charges

     Atom                 Charge (a.u.)
  ----------------------------------------
      1 O                    -0.208617
      2 C                     0.214829
      3 C                    -0.079151
      4 C                    -0.078291
      5 C                     0.212801
      6 O                    -0.174671
      7 C                    -0.049851
      8 C                    -0.046938
      9 O                    -0.179457
     10 C                     0.215230
     11 C                    -0.078359
     12 C                    -0.079294
     13 C                     0.215346
     14 O                    -0.206075
     15 O                    -0.172673
     16 O                    -0.170123
     17 O                    -0.216062
     18 C                    -0.128835
     19 C                     0.025659
     20 C                    -0.144094
     21 C                    -0.143358
     22 C                     0.024334
     23 O                    -0.186198
     24 H                     0.086631
     25 H                     0.085171
     26 H                     0.082001
     27 H                     0.078388
     28 H                     0.073914
     29 H                     0.078909
     30 H                     0.073663
     31 H                     0.091190
     32 O                    -0.217812
     33 C                    -0.128731
     34 C                     0.024162
     35 C                    -0.143421
     36 C                    -0.144218
     37 C                     0.025674
     38 O                    -0.186679
     39 H                     0.084082
     40 H                     0.085936
     41 H                     0.092718
     42 H                     0.090830
     43 H                     0.078316
     44 H                     0.072742
     45 H                     0.078362
     46 H                     0.073514
     47 H                     0.083388
     48 H                     0.090252
     49 H                     0.088940
     50 H                     0.093154
     51 H                     0.091902
     52 H                     0.093489
     53 H                     0.090312
     54 H                     0.088518
     55 H                     0.091056
     56 H                     0.087492
  ----------------------------------------
  Sum of atomic charges =    -0.000000

                    Cartesian Multipole Moments
 -----------------------------------------------------------------
    Charge (ESU x 10^10)
                 0.0000
    Dipole Moment (Debye)
         X       1.0847      Y       3.2661      Z      -1.7936
       Tot       3.8809
    Quadrupole Moments (Debye-Ang)
        XX    -151.6773     XY       8.1999     YY    -159.6690
        XZ      13.3404     YZ       2.0707     ZZ    -157.7397

 Total job time:  51.08s(wall), 2426.30s(cpu)
        *  Thank you very much for using Q-Chem.  Have a nice day.  *
