 Q-Chem 5.0, Q-Chem, Inc., Pleasanton, CA (2017)
 Q-Chem 5.0.1 for Intel X86 EM64T Linux

User input:
--------------------------------------------------------------
$molecule
0  1
O -3.94934 -3.66094 2.70899
C -3.26408 -4.56952 2.26188
C -3.36658 -6.02376 2.66595
C -2.05079 -6.8024 2.828
C -0.77444 -5.99521 2.74162
O -0.03364 -6.41146 1.67234
C 1.21819 -5.72724 1.55396
C 1.98293 -6.23723 0.33691
O 3.35994 -5.8378 0.42147
C 4.11863 -6.54207 1.29757
C 5.59982 -6.40087 1.03914
C 6.38266 -5.67236 2.14128
C 5.6657 -5.51485 3.46712
O 6.17022 -5.10119 4.501
O -2.5045 -4.31918 1.16235
O 4.34114 -5.7813 3.62031
O 3.68364 -7.50865 1.9201
C 3.62609 -5.66326 4.80033
C 6.35878 -7.74294 0.98823
C 7.65353 -7.57507 0.19433
C 8.46562 -6.73025 1.15456
C 7.51642 -6.69296 2.35802
O 6.83683 -7.92406 2.29762
H 5.7275 -5.89105 0.05598
H 6.74959 -4.66759 1.83772
H 5.75381 -8.57466 0.5653
H 8.12261 -8.58281 0.12391
H 7.5391 -7.15408 -0.82768
H 9.39899 -7.28246 1.40339
H 8.71038 -5.70628 0.79781
H 8.0883 -6.50015 3.29267
O -0.49027 -5.05636 3.47762
C -2.33422 -3.07242 0.5984
C -3.97318 -6.21606 4.07027
C -4.54396 -7.62841 4.20699
C -3.2699 -8.44025 4.3137
C -2.22219 -7.32513 4.26431
O -2.85247 -6.25051 4.92066
H -4.01378 -6.50012 1.89568
H -1.99344 -7.6416 2.0962
H -1.87034 -2.38148 1.33447
H -4.7565 -5.46785 4.31976
H -5.08148 -7.68778 5.18034
H -5.23154 -7.92638 3.38634
H -3.24606 -8.92692 5.31438
H -3.12333 -9.2041 3.51977
H -1.26268 -7.67526 4.70564
H -3.31219 -2.66532 0.26378
H -1.66333 -3.16018 -0.28065
H 2.5736 -5.96491 4.63215
H 3.64203 -4.61045 5.1545
H 4.0591 -6.32894 5.57724
H 1.91281 -7.34571 0.24878
H 1.5156 -5.8126 -0.57656
H 1.7999 -5.95184 2.46852
H 1.09333 -4.62343 1.47439
$end

$opt
CONSTRAINT
tors           1           2           3           4    -139.666
tors           3           4           5           6    -117.179
tors           4           5           6           7    -177.719
tors           5           6           7           8    -179.645
tors           6           7           8           9    -164.154
tors           7           8           9          10     +75.825
tors           8           9          10          11    +161.546
tors           9          10          11          12    +113.891
tors          11          12          13          14    +171.426
ENDCONSTRAINT
$end

$rem
JOBTYPE                   OPT
METHOD                    B3LYP
DFT_D                     d3_op
BASIS                     STO-3G
GEOM_OPT_MAX_CYCLES       100
GEOM_OPT_TOL_GRADIENT     300
GEOM_OPT_TOL_DISPLACEMENT 1200
GEOM_OPT_TOL_ENERGY       100
SYMMETRY                  False
THRESH                    12
SCF_CONVERGENCE           8
MAX_SUB_FILE_NUM          128
MEM_STATIC                400
MEM_TOTAL                 4000
$end
--------------------------------------------------------------

   15   -1510.1365566566      6.06E-09 Convergence criterion met
 Total energy in the final basis set = -1510.13655666
   14   -1510.2093872697      7.01E-09 Convergence criterion met
 Total energy in the final basis set = -1510.20938727
   14   -1510.2494008709      8.69E-09 Convergence criterion met
 Total energy in the final basis set = -1510.24940087
   14   -1510.2663603014      6.17E-09 Convergence criterion met
 Total energy in the final basis set = -1510.26636030
   14   -1510.2729168478      6.35E-09 Convergence criterion met
 Total energy in the final basis set = -1510.27291685
   13   -1510.2756333383      4.23E-09 Convergence criterion met
 Total energy in the final basis set = -1510.27563334
   13   -1510.2772138070      7.50E-09 Convergence criterion met
 Total energy in the final basis set = -1510.27721381
   13   -1510.2780949808      6.69E-09 Convergence criterion met
   11   -1510.2797191371      6.97E-09 Convergence criterion met
 Total energy in the final basis set = -1510.27971914
   10   -1510.2797493213      7.83E-09 Convergence criterion met
 Total energy in the final basis set = -1510.27974932
   11   -1510.2797733077      4.51E-09 Convergence criterion met
 Total energy in the final basis set = -1510.27977331
   10   -1510.2797808497      9.58E-09 Convergence criterion met
 Total energy in the final basis set = -1510.27978085
    9   -1510.2797848772      7.24E-09 Convergence criterion met
 Total energy in the final basis set = -1510.27978488
    9   -1510.2797860848      4.42E-09 Convergence criterion met
 Total energy in the final basis set = -1510.27978608

             Standard Nuclear Orientation (Angstroms)
    I     Atom           X                Y                Z
 ----------------------------------------------------------------
    1      O      -5.6977890933     1.2025415299     1.6079054711
    2      C      -4.9191043270     1.1038182752     0.6368944998
    3      C      -5.0375919527     0.1271516486    -0.5857674920
    4      C      -3.6621412901    -0.5096997625    -1.0575527074
    5      C      -2.4415743644    -0.1114028669    -0.1554191878
    6      O      -1.5114210296     0.6255982355    -0.9611334159
    7      C      -0.3206955287     0.9673397496    -0.1450669691
    8      C       0.6573225527     1.7784181990    -1.0698468077
    9      O       2.0229544287     1.8515266403    -0.4994867619
   10      C       2.7115472674     0.5974909169    -0.6709890967
   11      C       4.2512425915     0.8635398092    -0.4993646620
   12      C       4.9251077877     0.1856611713     0.7652063491
   13      C       3.9788255447    -0.4215199042     1.8612058028
   14      O       4.3421779296    -1.1173634236     2.8342057796
   15      O      -3.7734219895     1.9424784126     0.4346788364
   16      O       2.6326408703     0.0206666554     1.6661639875
   17      O       2.1708361999    -0.4468784764    -1.0932732238
   18      C       1.7408035094    -0.5586744107     2.6976848846
   19      C       5.0246617785     0.1070272177    -1.6648846232
   20      C       6.5263630717     0.5988980364    -1.6957957919
   21      C       7.1338874925    -0.1863923378    -0.4750409741
   22      C       5.8480737697    -0.9144622793     0.0793374871
   23      O       5.1106729968    -1.2796623716    -1.1504723754
   24      H       4.4209431848     1.9539239440    -0.5084090955
   25      H       5.5593376178     0.9266294617     1.2873757632
   26      H       4.5026021211     0.1216056985    -2.6411516563
   27      H       7.0068054090     0.3107140242    -2.6440201475
   28      H       6.6036414416     1.6917080253    -1.5784639662
   29      H       7.8810888467    -0.9269190403    -0.8027069770
   30      H       7.5961765074     0.4766932933     0.2734672214
   31      H       6.0361670449    -1.8066740573     0.7080454817
   32      O      -2.2344506224    -0.4265126514     1.0365825057
   33      C      -3.5672536866     2.8219437552     1.6071130753
   34      C      -5.8713189224    -1.1690734366    -0.2158591921
   35      C      -6.3361739672    -1.8579533508    -1.5571826044
   36      C      -4.9809453592    -2.4791093882    -2.0625881978
   37      C      -3.9968401191    -2.0565418617    -0.9006622810
   38      O      -4.8446073787    -2.0980258111     0.3120704753
   39      H      -5.5100554236     0.6830281085    -1.4173558662
   40      H      -3.4271825844    -0.2370825383    -2.1009235479
   41      H      -3.2890565516     2.2323376219     2.5047614022
   42      H      -6.6614022999    -0.9909097289     0.5395712896
   43      H      -7.0845673824    -2.6389631700    -1.3485305417
   44      H      -6.7673659377    -1.1366836300    -2.2698121250
   45      H      -5.0410765959    -3.5766093044    -2.1360757593
   46      H      -4.6658511187    -2.0768350593    -3.0387931471
   47      H      -3.1091396636    -2.7061419238    -0.7745966273
   48      H      -4.4756636858     3.4142191090     1.8383743835
   49      H      -2.7369374824     3.5006433880     1.3385739536
   50      H       0.7267763348    -0.1781162380     2.4763333912
   51      H       2.0447745283    -0.2436341550     3.7166536553
   52      H       1.7379741131    -1.6665779357     2.6540455505
   53      H       0.6738826776     1.2930098865    -2.0700061964
   54      H       0.3170883917     2.8275079674    -1.1769605071
   55      H       0.1870963142     0.0400324868     0.1949215190
   56      H      -0.6063676339     1.5604374447     0.7499365077
 ----------------------------------------------------------------

    8   -1510.2797866427      9.87E-09 Convergence criterion met
 Total energy in the final basis set = -1510.27978664
 Final energy is   -1510.27978664268
 **  OPTIMIZATION CONVERGED  **

                    Orbital Energies (a.u.)
 --------------------------------------------------------------

 Alpha MOs
 -- Occupied --
-18.943 -18.939 -18.926 -18.925 -18.889 -18.885 -18.881 -18.877
-18.865 -18.862 -10.104 -10.102 -10.097 -10.094 -10.071 -10.067
-10.066 -10.064 -10.061 -10.060 -10.058 -10.057 -10.040 -10.038
-10.036 -10.034 -10.021 -10.020 -10.019 -10.018  -1.017  -1.016
 -1.005  -1.001  -0.971  -0.968  -0.940  -0.940  -0.931  -0.927
 -0.764  -0.762  -0.726  -0.722  -0.711  -0.704  -0.694  -0.664
 -0.664  -0.616  -0.597  -0.580  -0.545  -0.544  -0.538  -0.536
 -0.514  -0.509  -0.485  -0.475  -0.464  -0.452  -0.450  -0.449
 -0.438  -0.431  -0.427  -0.415  -0.413  -0.412  -0.411  -0.396
 -0.390  -0.380  -0.378  -0.370  -0.361  -0.357  -0.352  -0.350
 -0.344  -0.338  -0.332  -0.331  -0.329  -0.325  -0.324  -0.314
 -0.309  -0.307  -0.304  -0.298  -0.295  -0.290  -0.284  -0.273
 -0.272  -0.253  -0.253  -0.248  -0.241  -0.235  -0.232  -0.183
 -0.181  -0.171  -0.169  -0.159  -0.157  -0.147  -0.145  -0.142
 -0.141

          Ground-State Mulliken Net Atomic Charges

     Atom                 Charge (a.u.)
  ----------------------------------------
      1 O                    -0.208034
      2 C                     0.214234
      3 C                    -0.078653
      4 C                    -0.079125
      5 C                     0.213492
      6 O                    -0.173170
      7 C                    -0.050058
      8 C                    -0.047581
      9 O                    -0.176292
     10 C                     0.218282
     11 C                    -0.079966
     12 C                    -0.079282
     13 C                     0.211630
     14 O                    -0.212810
     15 O                    -0.170293
     16 O                    -0.167480
     17 O                    -0.218047
     18 C                    -0.127577
     19 C                     0.026390
     20 C                    -0.145032
     21 C                    -0.142815
     22 C                     0.025224
     23 O                    -0.185748
     24 H                     0.085532
     25 H                     0.085312
     26 H                     0.083958
     27 H                     0.078360
     28 H                     0.073461
     29 H                     0.078718
     30 H                     0.073742
     31 H                     0.088461
     32 O                    -0.222514
     33 C                    -0.128598
     34 C                     0.023914
     35 C                    -0.143751
     36 C                    -0.144127
     37 C                     0.025853
     38 O                    -0.186821
     39 H                     0.084726
     40 H                     0.085737
     41 H                     0.092421
     42 H                     0.090284
     43 H                     0.078280
     44 H                     0.072652
     45 H                     0.078247
     46 H                     0.073482
     47 H                     0.084662
     48 H                     0.092069
     49 H                     0.089486
     50 H                     0.097316
     51 H                     0.091297
     52 H                     0.094168
     53 H                     0.091137
     54 H                     0.087784
     55 H                     0.095316
     56 H                     0.082149
  ----------------------------------------
  Sum of atomic charges =     0.000000

                    Cartesian Multipole Moments
 -----------------------------------------------------------------
    Charge (ESU x 10^10)
                 0.0000
    Dipole Moment (Debye)
         X       0.7690      Y       3.1426      Z      -2.0577
       Tot       3.8342
    Quadrupole Moments (Debye-Ang)
        XX    -150.4907     XY       6.4531     YY    -158.4299
        XZ       8.9275     YZ       3.5653     ZZ    -160.4059

 Total job time:  54.60s(wall), 2590.86s(cpu)
        *  Thank you very much for using Q-Chem.  Have a nice day.  *
