 Q-Chem 5.0, Q-Chem, Inc., Pleasanton, CA (2017)
 Q-Chem 5.0.1 for Intel X86 EM64T Linux

User input:
--------------------------------------------------------------
$molecule
0  1
O -5.6977890933 1.2025415299 1.6079054711
C -4.919104327 1.1038182752 0.6368944998
C -5.0375919527 0.1271516486 -0.585767492
C -3.6621412901 -0.5096997625 -1.0575527074
C -2.4415743644 -0.1114028669 -0.1554191878
O -1.5114210296 0.6255982355 -0.9611334159
C -0.3206955287 0.9673397496 -0.1450669691
C 0.6573225527 1.778418199 -1.0698468077
O 2.0229544287 1.8515266403 -0.4994867619
C 2.7115472674 0.5974909169 -0.6709890967
C 4.2512425915 0.8635398092 -0.499364662
C 4.9251077877 0.1856611713 0.7652063491
C 3.9788255447 -0.4215199042 1.8612058028
O 4.3421779296 -1.1173634236 2.8342057796
O -3.7734219895 1.9424784126 0.4346788364
O 2.6326408703 0.0206666554 1.6661639875
O 2.1708361999 -0.4468784764 -1.0932732238
C 1.7408035094 -0.5586744107 2.6976848846
C 5.0246617785 0.1070272177 -1.6648846232
C 6.5263630717 0.5988980364 -1.6957957919
C 7.1338874925 -0.1863923378 -0.4750409741
C 5.8480737697 -0.9144622793 0.0793374871
O 5.1106729968 -1.2796623716 -1.1504723754
H 4.4209431848 1.953923944 -0.5084090955
H 5.5593376178 0.9266294617 1.2873757632
H 4.5026021211 0.1216056985 -2.6411516563
H 7.006805409 0.3107140242 -2.6440201475
H 6.6036414416 1.6917080253 -1.5784639662
H 7.8810888467 -0.9269190403 -0.802706977
H 7.5961765074 0.4766932933 0.2734672214
H 6.0361670449 -1.8066740573 0.7080454817
O -2.2344506224 -0.4265126514 1.0365825057
C -3.5672536866 2.8219437552 1.6071130753
C -5.8713189224 -1.1690734366 -0.2158591921
C -6.3361739672 -1.8579533508 -1.5571826044
C -4.9809453592 -2.4791093882 -2.0625881978
C -3.9968401191 -2.0565418617 -0.900662281
O -4.8446073787 -2.0980258111 0.3120704753
H -5.5100554236 0.6830281085 -1.4173558662
H -3.4271825844 -0.2370825383 -2.1009235479
H -3.2890565516 2.2323376219 2.5047614022
H -6.6614022999 -0.9909097289 0.5395712896
H -7.0845673824 -2.63896317 -1.3485305417
H -6.7673659377 -1.13668363 -2.269812125
H -5.0410765959 -3.5766093044 -2.1360757593
H -4.6658511187 -2.0768350593 -3.0387931471
H -3.1091396636 -2.7061419238 -0.7745966273
H -4.4756636858 3.414219109 1.8383743835
H -2.7369374824 3.500643388 1.3385739536
H 0.7267763348 -0.178116238 2.4763333912
H 2.0447745283 -0.243634155 3.7166536553
H 1.7379741131 -1.6665779357 2.6540455505
H 0.6738826776 1.2930098865 -2.0700061964
H 0.3170883917 2.8275079674 -1.1769605071
H 0.1870963142 0.0400324868 0.194921519
H -0.6063676339 1.5604374447 0.7499365077
$end

$rem
JOBTYPE                   OPT
METHOD                    B3LYP
DFT_D                     d3_op
BASIS                     STO-3G
GEOM_OPT_MAX_CYCLES       100
GEOM_OPT_TOL_GRADIENT     300
GEOM_OPT_TOL_DISPLACEMENT 1200
GEOM_OPT_TOL_ENERGY       100
SYMMETRY                  False
THRESH                    12
SCF_CONVERGENCE           8
MAX_SUB_FILE_NUM          128
MEM_STATIC                400
MEM_TOTAL                 4000
$end
--------------------------------------------------------------

   16   -1510.2799000350      6.10E-09 Convergence criterion met
 Total energy in the final basis set = -1510.27990003
   14   -1510.2798310273      2.77E-09 Convergence criterion met
 Total energy in the final basis set = -1510.27983103
   14   -1510.2825785430      2.80E-09 Convergence criterion met
 Total energy in the final basis set = -1510.28257854
   13   -1510.2838013172      5.71E-09 Convergence criterion met
 Total energy in the final basis set = -1510.28380132
   14   -1510.2856132225      4.97E-09 Convergence criterion met
 Total energy in the final basis set = -1510.28561322
   14   -1510.2761732896      7.44E-09 Convergence criterion met
 Total energy in the final basis set = -1510.27617329
   14   -1510.2865713826      6.99E-09 Convergence criterion met
 Total energy in the final basis set = -1510.28657138
   15   -1510.2852117835      1.98E-09 Convergence criterion met
   11   -1510.2986824623      7.87E-09 Convergence criterion met
 Total energy in the final basis set = -1510.29868246
   11   -1510.2986994728      4.39E-09 Convergence criterion met
 Total energy in the final basis set = -1510.29869947
   11   -1510.2987020631      4.28E-09 Convergence criterion met
 Total energy in the final basis set = -1510.29870206
   11   -1510.2987052871      4.07E-09 Convergence criterion met
 Total energy in the final basis set = -1510.29870529
   11   -1510.2987055451      2.43E-09 Convergence criterion met
 Total energy in the final basis set = -1510.29870555
   11   -1510.2987060564      2.15E-09 Convergence criterion met
 Total energy in the final basis set = -1510.29870606

             Standard Nuclear Orientation (Angstroms)
    I     Atom           X                Y                Z
 ----------------------------------------------------------------
    1      O      -2.4860061430     2.4413411656     0.5572568710
    2      C      -2.5134411112     1.4110746742    -0.1503850485
    3      C      -3.7742692579     0.5614950972    -0.5370925932
    4      C      -3.5663247033    -1.0066548109    -0.4185139820
    5      C      -2.1500320020    -1.4303915113     0.1062626143
    6      O      -1.4862492580    -2.1405187019    -0.9440748965
    7      C      -0.1807181318    -2.6826991068    -0.4962763548
    8      C       0.8788700376    -2.5140109680    -1.6410384478
    9      O       1.4717519391    -1.1565916746    -1.6804046095
   10      C       2.6147097141    -1.0924197086    -0.8117068329
   11      C       3.2702522232     0.3201307132    -0.9684215747
   12      C       3.4402851196     1.1078359702     0.3984708137
   13      C       2.8870691251     0.3549115838     1.6601932914
   14      O       3.4785633457     0.1354543792     2.7365320725
   15      O      -1.3770654883     0.8210258587    -0.7819137798
   16      O       1.5315418419    -0.0279584289     1.3955121485
   17      O       3.0177557052    -2.0475661994    -0.1129629066
   18      C       0.9177976801    -0.7063118359     2.5620581937
   19      C       4.7923383343     0.1936002431    -1.4172728267
   20      C       5.2801266985     1.6090753686    -1.9217399341
   21      C       5.4524979435     2.3764380489    -0.5578452018
   22      C       5.0143339110     1.2645774934     0.4727203667
   23      O       5.5108360617     0.0086871688    -0.1378871584
   24      H       2.6749860682     0.8978279153    -1.6960613060
   25      H       2.9349209195     2.0897823913     0.3398124608
   26      H       4.9991949540    -0.6497490692    -2.1042873366
   27      H       6.2383118284     1.5167874316    -2.4573344218
   28      H       4.5461856151     2.0866909033    -2.5903905199
   29      H       6.5011361480     2.6678105394    -0.3880812203
   30      H       4.8198776558     3.2759010872    -0.4926848270
   31      H       5.4029350690     1.3732416170     1.5039962019
   32      O      -1.6996610535    -1.2701548327     1.2640247250
   33      C      -0.1355115749     1.5517193258    -0.4276283276
   34      C      -4.9606639808     0.7972363165     0.4846650493
   35      C      -6.2988372739     0.2830470577    -0.1749095662
   36      C      -6.1020684235    -1.2764741981    -0.0787961856
   37      C      -4.6979543326    -1.3646131080     0.6420439486
   38      O      -4.6951804533    -0.1973143801     1.5505383677
   39      H      -4.0675709874     0.8331931676    -1.5681174304
   40      H      -3.7328192327    -1.5067947113    -1.3883667735
   41      H       0.4796329864     0.9265427418     0.2647042307
   42      H      -4.9870448789     1.8208508836     0.9067877625
   43      H      -7.1706274826     0.6163561347     0.4102124832
   44      H      -6.4132102355     0.6350016687    -1.2126764493
   45      H      -6.8825344156    -1.7453686115     0.5412975961
   46      H      -6.0925366337    -1.7668506756    -1.0652599567
   47      H      -4.5164381562    -2.2974709443     1.2104715008
   48      H      -0.3996098507     2.5118350807     0.0578083687
   49      H       0.4207543126     1.7363697751    -1.3656640167
   50      H      -0.1147646802    -0.9639197848     2.2350205117
   51      H       0.8908578609    -0.0361352344     3.4442564751
   52      H       1.4842884040    -1.6216909159     2.8255365710
   53      H       1.6792368435    -3.2703837406    -1.4914246741
   54      H       0.3911286194    -2.6686395414    -2.6251284511
   55      H      -0.3042006795    -3.7658215915    -0.2745898529
   56      H       0.1544216822    -2.1692251584     0.4267410052
 ----------------------------------------------------------------

   11   -1510.2987061315      1.05E-09 Convergence criterion met
 Total energy in the final basis set = -1510.29870613
 Final energy is   -1510.29870613149
 **  OPTIMIZATION CONVERGED  **

                    Orbital Energies (a.u.)
 --------------------------------------------------------------

 Alpha MOs
 -- Occupied --
-18.941 -18.936 -18.935 -18.930 -18.889 -18.888 -18.883 -18.877
-18.874 -18.874 -10.107 -10.104 -10.100 -10.098 -10.075 -10.072
-10.063 -10.061 -10.059 -10.058 -10.048 -10.041 -10.040 -10.039
-10.038 -10.036 -10.022 -10.021 -10.021 -10.020  -1.018  -1.015
 -1.010  -1.005  -0.972  -0.970  -0.943  -0.940  -0.935  -0.933
 -0.766  -0.764  -0.729  -0.724  -0.715  -0.706  -0.699  -0.658
 -0.651  -0.621  -0.599  -0.581  -0.548  -0.545  -0.539  -0.538
 -0.512  -0.512  -0.482  -0.478  -0.463  -0.460  -0.454  -0.453
 -0.436  -0.431  -0.427  -0.421  -0.413  -0.409  -0.404  -0.400
 -0.396  -0.383  -0.373  -0.372  -0.366  -0.356  -0.353  -0.349
 -0.346  -0.342  -0.333  -0.333  -0.330  -0.328  -0.323  -0.312
 -0.311  -0.307  -0.305  -0.301  -0.295  -0.289  -0.285  -0.277
 -0.272  -0.256  -0.251  -0.249  -0.243  -0.236  -0.234  -0.187
 -0.184  -0.170  -0.169  -0.161  -0.159  -0.153  -0.152  -0.145
 -0.144

          Ground-State Mulliken Net Atomic Charges

     Atom                 Charge (a.u.)
  ----------------------------------------
      1 O                    -0.213023
      2 C                     0.212709
      3 C                    -0.078136
      4 C                    -0.078117
      5 C                     0.223404
      6 O                    -0.169802
      7 C                    -0.053387
      8 C                    -0.049839
      9 O                    -0.169981
     10 C                     0.209513
     11 C                    -0.079305
     12 C                    -0.079429
     13 C                     0.217771
     14 O                    -0.202332
     15 O                    -0.172886
     16 O                    -0.176788
     17 O                    -0.216120
     18 C                    -0.144472
     19 C                     0.026123
     20 C                    -0.143926
     21 C                    -0.143977
     22 C                     0.024474
     23 O                    -0.185900
     24 H                     0.085710
     25 H                     0.085115
     26 H                     0.083113
     27 H                     0.078646
     28 H                     0.073522
     29 H                     0.079077
     30 H                     0.073437
     31 H                     0.091867
     32 O                    -0.222420
     33 C                    -0.154082
     34 C                     0.023996
     35 C                    -0.143900
     36 C                    -0.144056
     37 C                     0.025780
     38 O                    -0.186907
     39 H                     0.085012
     40 H                     0.086412
     41 H                     0.109752
     42 H                     0.091225
     43 H                     0.078509
     44 H                     0.073091
     45 H                     0.078212
     46 H                     0.073270
     47 H                     0.082990
     48 H                     0.090773
     49 H                     0.076039
     50 H                     0.118751
     51 H                     0.086203
     52 H                     0.087582
     53 H                     0.095706
     54 H                     0.093459
     55 H                     0.084273
     56 H                     0.103272
  ----------------------------------------
  Sum of atomic charges =     0.000000

                    Cartesian Multipole Moments
 -----------------------------------------------------------------
    Charge (ESU x 10^10)
                -0.0000
    Dipole Moment (Debye)
         X      -1.5168      Y       0.0248      Z      -3.7341
       Tot       4.0304
    Quadrupole Moments (Debye-Ang)
        XX    -158.6007     XY      13.5246     YY    -154.1786
        XZ      -1.7208     YZ      -0.0345     ZZ    -163.6119

 Total job time:  167.56s(wall), 7977.62s(cpu)
        *  Thank you very much for using Q-Chem.  Have a nice day.  *
