 Q-Chem 5.0, Q-Chem, Inc., Pleasanton, CA (2017)
 Q-Chem 5.0.1 for Intel X86 EM64T Linux

User input:
--------------------------------------------------------------
$molecule
0  1
O -5.3746837507 1.8456242692 1.0718483196
C -4.6154560456 1.5229853722 0.1332521865
C -4.7210587662 0.2504599046 -0.7820997979
C -3.5315632918 -0.7962799743 -0.6065580577
C -2.4249606613 -0.3493641097 0.4099426497
O -1.5006734766 0.4999259797 -0.2767650531
C -0.4156641528 0.9187493778 0.6438474296
C 0.5467065242 1.8453103443 -0.1833142604
O 1.9073105508 1.8258341019 0.4045411658
C 2.683112028 0.780198168 -0.2015831648
C 4.1535259508 0.8829540051 0.3223707687
C 4.7850513822 -0.5325688282 0.6434052716
C 3.7640685601 -1.724985858 0.6431424456
O 3.9453691127 -2.870942808 0.1815608107
O -3.5056041398 2.313426558 -0.306204798
O 2.5968798705 -1.3276927585 1.3785282105
O 2.2446556303 -0.0004899388 -1.0744363023
C 1.5939236434 -2.4173487249 1.3674887184
C 5.0997856393 1.3465973 -0.8708517942
C 6.538339797 1.6602471351 -0.2943412854
C 7.1168087662 0.2086897542 -0.0996864934
C 5.8682978979 -0.6649685246 -0.5071094488
O 5.2833370878 0.0942541058 -1.6375662949
H 4.1872442602 1.5691295413 1.1859031197
H 5.2703406688 -0.5147963437 1.6373301426
H 4.6681418352 2.1370663624 -1.5151045203
H 7.1281485413 2.2386804663 -1.0229549516
H 6.4883910408 2.2272886346 0.6490703444
H 7.9584530065 0.0165951755 -0.7841440866
H 7.4481345409 0.0135812257 0.9327037595
H 6.0798268103 -1.7102996283 -0.8059667541
O -2.3197005249 -0.6685221805 1.6140932056
C -3.3575791222 3.506835064 0.5575496478
C -5.9615834926 -0.6345883834 -0.3507349685
C -6.2680334821 -1.6745299752 -1.4989818857
C -5.0996575841 -2.7083881681 -1.2936590396
C -4.3301679355 -2.0610776313 -0.0762232619
O -5.4123580395 -1.469932101 0.7432482203
H -4.78759587 0.5829327318 -1.8341547584
H -3.04637587 -0.9905514019 -1.5797393808
H -3.1911406051 3.2257197267 1.6175802278
H -6.8262412563 -0.0461765448 0.0126631312
H -7.2534089826 -2.1416894686 -1.343571656
H -6.2518600024 -1.2073659562 -2.4967342409
H -5.4851034134 -3.7028278987 -1.0176471803
H -4.4595172049 -2.8126402427 -2.1843800402
H -3.7229807083 -2.7585800313 0.5326197252
H -4.2489956491 4.1648044908 0.5047945988
H -2.4739448662 4.0502042228 0.1753292612
H 0.7880348663 -2.1035814713 2.0569215434
H 2.0291370676 -3.3769860085 1.7122747207
H 1.1749454897 -2.5640544458 0.3505666085
H 0.5757514465 1.4744059471 -1.2305871338
H 0.2026356572 2.8981599467 -0.1618273005
H 0.1506475053 0.0339719407 1.0077881683
H -0.8271004311 1.4493901991 1.5289054995
$end

$rem
JOBTYPE                   OPT
METHOD                    B3LYP
DFT_D                     d3_op
BASIS                     STO-3G
GEOM_OPT_MAX_CYCLES       100
GEOM_OPT_TOL_GRADIENT     300
GEOM_OPT_TOL_DISPLACEMENT 1200
GEOM_OPT_TOL_ENERGY       100
SYMMETRY                  False
THRESH                    12
SCF_CONVERGENCE           8
MAX_SUB_FILE_NUM          128
MEM_STATIC                400
MEM_TOTAL                 4000
$end
--------------------------------------------------------------

   16   -1510.2821066107      5.79E-09 Convergence criterion met
 Total energy in the final basis set = -1510.28210661
   14   -1510.2829740817      5.90E-09 Convergence criterion met
 Total energy in the final basis set = -1510.28297408
   14   -1510.2842786051      6.81E-09 Convergence criterion met
 Total energy in the final basis set = -1510.28427861
   15   -1510.2854698011      3.82E-09 Convergence criterion met
 Total energy in the final basis set = -1510.28546980
   14   -1510.2849912468      7.75E-09 Convergence criterion met
 Total energy in the final basis set = -1510.28499125
   14   -1510.2855650029      9.75E-09 Convergence criterion met
 Total energy in the final basis set = -1510.28556500
   14   -1510.2872426534      3.62E-09 Convergence criterion met
 Total energy in the final basis set = -1510.28724265
   15   -1510.2858170320      2.41E-09 Convergence criterion met
   12   -1510.2902521839      9.25E-09 Convergence criterion met
 Total energy in the final basis set = -1510.29025218
   12   -1510.2904091711      6.40E-09 Convergence criterion met
 Total energy in the final basis set = -1510.29040917
   12   -1510.2904055009      3.42E-09 Convergence criterion met
 Total energy in the final basis set = -1510.29040550
   11   -1510.2904219587      7.16E-09 Convergence criterion met
 Total energy in the final basis set = -1510.29042196
   12   -1510.2903984346      4.69E-09 Convergence criterion met
 Total energy in the final basis set = -1510.29039843
   12   -1510.2904221886      2.09E-09 Convergence criterion met
 Total energy in the final basis set = -1510.29042219

             Standard Nuclear Orientation (Angstroms)
    I     Atom           X                Y                Z
 ----------------------------------------------------------------
    1      O      -4.8341763870     1.0017394550     2.2410308234
    2      C      -4.4018341995     1.1083613802     1.0752080944
    3      C      -4.7797542075     0.2379107819    -0.1756077105
    4      C      -3.5156894483    -0.3294232783    -0.9519682644
    5      C      -2.1600001880     0.0819796264    -0.2819307574
    6      O      -1.4173676160     0.8724284458    -1.2112710667
    7      C      -0.1546892103     1.3556874218    -0.5973302422
    8      C       0.8150323999     1.7727535530    -1.7581937620
    9      O       2.1707023854     1.9593036252    -1.1875247833
   10      C       2.8506937017     0.6934030662    -1.1278922598
   11      C       4.1318112897     0.8712948793    -0.2549710433
   12      C       4.2385417298    -0.2078697676     0.9057252959
   13      C       3.1113389033    -1.3066108921     0.9047049718
   14      O       3.2842403395    -2.5392429442     0.7955174165
   15      O      -3.4496978559     2.0950200361     0.6516304325
   16      O       1.8309849583    -0.6948365389     1.1123575853
   17      O       2.4446974972    -0.3491760808    -1.6857582376
   18      C       0.7843019190    -1.7469115020     1.1890293720
   19      C       5.4692841223     0.5670206633    -1.0645428064
   20      C       6.6792785359     1.1684030366    -0.2472999726
   21      C       6.7886314119     0.1343682381     0.9342376665
   22      C       5.6328315348    -0.8763351856     0.5658115459
   23      O       5.6407830441    -0.8936104812    -0.9168058616
   24      H       4.1300229563     1.8981053476     0.1500277307
   25      H       4.2411020600     0.2863146910     1.8947094449
   26      H       5.4336075046     0.8488552905    -2.1348135882
   27      H       7.5923555454     1.1759222529    -0.8635589188
   28      H       6.4776471129     2.1945368075     0.0992242172
   29      H       7.7639028504    -0.3776488426     0.9333674110
   30      H       6.6348241834     0.5990135443     1.9213387237
   31      H       5.7410246218    -1.9049345877     0.9610877626
   32      O      -1.7577492265    -0.2483551713     0.8585258639
   33      C      -2.9589699097     2.8646782266     1.8172722058
   34      C      -5.5035544430    -1.1021929047     0.2576354256
   35      C      -6.2011918529    -1.7270323763    -1.0122852274
   36      C      -4.9553970941    -2.2837330609    -1.7981974640
   37      C      -3.7766172717    -1.8930215239    -0.8208116516
   38      O      -4.3768365058    -2.0264927536     0.5252046099
   39      H      -5.4098505703     0.8489182309    -0.8483154753
   40      H      -3.5016349904     0.0049259217    -2.0038184345
   41      H      -2.3559770388     2.2220932401     2.4916480899
   42      H      -6.1385451730    -0.9950320652     1.1586331290
   43      H      -6.8860000088    -2.5376697004    -0.7165252433
   44      H      -6.7683933180    -0.9777286596    -1.5873798139
   45      H      -5.0082067635    -3.3775277574    -1.9180932897
   46      H      -4.8382954541    -1.8238993359    -2.7924785070
   47      H      -2.8666350939    -2.5186219828    -0.9026848700
   48      H      -3.7938470091     3.3058470463     2.3982283126
   49      H      -2.3228357279     3.6706148518     1.4073934263
   50      H      -0.1918290166    -1.2116219201     1.1977943368
   51      H       0.8988754431    -2.3533229984     2.1097402973
   52      H       0.8382322299    -2.4236480928     0.3131981988
   53      H       0.8254040713     0.9760705019    -2.5330630926
   54      H       0.5161720446     2.7389851534    -2.2097004882
   55      H       0.3356320072     0.5638523387     0.0098540921
   56      H      -0.3651410241     2.2208458415     0.0674096643
 ----------------------------------------------------------------

    9   -1510.2904217975      6.23E-09 Convergence criterion met
 Total energy in the final basis set = -1510.29042180
 Final energy is   -1510.29042179754
 **  OPTIMIZATION CONVERGED  **

                    Orbital Energies (a.u.)
 --------------------------------------------------------------

 Alpha MOs
 -- Occupied --
-18.940 -18.939 -18.934 -18.924 -18.889 -18.886 -18.884 -18.878
-18.877 -18.869 -10.107 -10.104 -10.101 -10.092 -10.073 -10.069
-10.068 -10.062 -10.060 -10.060 -10.055 -10.042 -10.040 -10.039
-10.038 -10.036 -10.022 -10.021 -10.020 -10.019  -1.020  -1.015
 -1.011  -1.002  -0.972  -0.969  -0.943  -0.941  -0.937  -0.927
 -0.766  -0.762  -0.728  -0.723  -0.714  -0.706  -0.696  -0.666
 -0.649  -0.619  -0.598  -0.580  -0.549  -0.544  -0.540  -0.536
 -0.515  -0.508  -0.484  -0.475  -0.463  -0.458  -0.457  -0.449
 -0.440  -0.431  -0.429  -0.418  -0.417  -0.408  -0.400  -0.399
 -0.395  -0.380  -0.377  -0.366  -0.362  -0.358  -0.356  -0.352
 -0.347  -0.338  -0.335  -0.331  -0.330  -0.326  -0.324  -0.312
 -0.309  -0.307  -0.303  -0.299  -0.292  -0.288  -0.281  -0.277
 -0.273  -0.259  -0.256  -0.252  -0.243  -0.236  -0.233  -0.184
 -0.181  -0.177  -0.169  -0.163  -0.157  -0.154  -0.146  -0.145
 -0.142

          Ground-State Mulliken Net Atomic Charges

     Atom                 Charge (a.u.)
  ----------------------------------------
      1 O                    -0.204891
      2 C                     0.214205
      3 C                    -0.078330
      4 C                    -0.078550
      5 C                     0.219921
      6 O                    -0.168942
      7 C                    -0.054944
      8 C                    -0.051096
      9 O                    -0.173193
     10 C                     0.210252
     11 C                    -0.080086
     12 C                    -0.078831
     13 C                     0.211609
     14 O                    -0.208812
     15 O                    -0.172798
     16 O                    -0.180078
     17 O                    -0.210599
     18 C                    -0.145931
     19 C                     0.026078
     20 C                    -0.143492
     21 C                    -0.144543
     22 C                     0.024799
     23 O                    -0.186119
     24 H                     0.086050
     25 H                     0.083930
     26 H                     0.082831
     27 H                     0.078093
     28 H                     0.073309
     29 H                     0.078349
     30 H                     0.073001
     31 H                     0.091650
     32 O                    -0.221580
     33 C                    -0.129604
     34 C                     0.024407
     35 C                    -0.143905
     36 C                    -0.143810
     37 C                     0.025718
     38 O                    -0.186152
     39 H                     0.085697
     40 H                     0.087201
     41 H                     0.093377
     42 H                     0.091065
     43 H                     0.079041
     44 H                     0.073217
     45 H                     0.079152
     46 H                     0.073980
     47 H                     0.084430
     48 H                     0.092403
     49 H                     0.089032
     50 H                     0.109642
     51 H                     0.081338
     52 H                     0.086448
     53 H                     0.099804
     54 H                     0.089223
     55 H                     0.104237
     56 H                     0.082797
  ----------------------------------------
  Sum of atomic charges =     0.000000

                    Cartesian Multipole Moments
 -----------------------------------------------------------------
    Charge (ESU x 10^10)
                -0.0000
    Dipole Moment (Debye)
         X      -0.8195      Y       3.6351      Z      -0.9615
       Tot       3.8484
    Quadrupole Moments (Debye-Ang)
        XX    -148.1026     XY       9.3085     YY    -160.6258
        XZ      16.9143     YZ       1.9468     ZZ    -161.2102

 Total job time:  69.68s(wall), 3315.02s(cpu)
        *  Thank you very much for using Q-Chem.  Have a nice day.  *
