 Q-Chem 5.0, Q-Chem, Inc., Pleasanton, CA (2017)
 Q-Chem 5.0.1 for Intel X86 EM64T Linux

User input:
--------------------------------------------------------------
$molecule
0  1
O -3.94934 -3.66094 2.70899
C -3.26408 -4.56952 2.26188
C -3.36658 -6.02376 2.66595
C -2.16837 -6.63141 3.41356
C -1.07618 -5.67144 3.8303
O -0.21322 -5.47088 2.79083
C 0.87038 -4.59508 3.11951
C 1.78655 -4.41679 1.91328
O 3.10801 -4.06257 2.35051
C 3.94775 -5.1042 2.57186
C 5.35841 -4.66617 2.88621
C 6.04723 -5.45753 4.00762
C 5.38719 -6.76562 4.39482
O 5.97427 -7.80541 4.65702
O -2.31915 -4.27944 1.3298
O 4.09929 -6.66102 4.82475
O 3.68173 -6.26153 2.26318
C 3.35361 -7.70183 5.33834
C 6.34629 -4.92016 1.7267
C 7.52625 -3.95761 1.84462
C 8.21519 -4.50837 3.07721
C 7.38385 -5.77708 3.31096
O 6.95372 -6.1531 2.02566
H 5.3454 -3.56978 3.08861
H 6.14585 -4.85606 4.93769
H 5.87771 -4.8359 0.72166
H 8.17602 -4.14463 0.95932
H 7.27468 -2.87606 1.88677
H 9.26726 -4.75242 2.81029
H 8.18836 -3.84802 3.97114
H 7.9856 -6.53114 3.86396
O -0.88645 -5.27814 4.97701
C -2.051 -3.01085 0.861
C -4.49315 -6.25997 3.6939
C -4.93177 -7.72391 3.66792
C -3.7509 -8.38061 4.34536
C -2.9006 -7.14987 4.67332
O -3.84899 -6.14651 4.93607
H -3.60433 -6.58302 1.73363
H -1.68957 -7.48848 2.88837
H -1.72335 -2.35661 1.69709
H -5.37771 -5.60428 3.53806
H -5.8206 -7.82481 4.33118
H -5.17898 -8.11409 2.65716
H -4.10575 -8.85262 5.28889
H -3.20365 -9.1286 3.73198
H -2.2027 -7.39206 5.50527
H -2.95463 -2.58171 0.37779
H -1.2353 -3.06579 0.11124
H 2.341 -7.32953 5.59694
H 3.8335 -8.10191 6.25687
H 3.25517 -8.50944 4.58189
H 1.79646 -5.35254 1.31022
H 1.37321 -3.6448 1.23056
H 1.46266 -5.1035 3.91501
H 0.53701 -3.60252 3.49809
$end

$opt
CONSTRAINT
tors           1           2           3           4    -113.409
tors           3           4           5           6     -84.057
tors           4           5           6           7    -178.591
tors           5           6           7           8    -179.856
tors           6           7           8           9    -154.988
tors           7           8           9          10     +90.444
tors           8           9          10          11    +173.908
tors           9          10          11          12    +138.813
tors          11          12          13          14    +139.493
ENDCONSTRAINT
$end

$rem
JOBTYPE                   OPT
METHOD                    B3LYP
DFT_D                     d3_op
BASIS                     STO-3G
GEOM_OPT_MAX_CYCLES       100
GEOM_OPT_TOL_GRADIENT     300
GEOM_OPT_TOL_DISPLACEMENT 1200
GEOM_OPT_TOL_ENERGY       100
SYMMETRY                  False
THRESH                    12
SCF_CONVERGENCE           8
MAX_SUB_FILE_NUM          128
MEM_STATIC                400
MEM_TOTAL                 4000
$end
--------------------------------------------------------------

   15   -1510.1492731000      6.66E-09 Convergence criterion met
 Total energy in the final basis set = -1510.14927310
   14   -1510.2182021147      7.05E-09 Convergence criterion met
 Total energy in the final basis set = -1510.21820211
   14   -1510.2549211869      9.09E-09 Convergence criterion met
 Total energy in the final basis set = -1510.25492119
   14   -1510.2706536998      7.21E-09 Convergence criterion met
 Total energy in the final basis set = -1510.27065370
    2   -1510.2706536999      1.53E-09 Convergence criterion met
 Total energy in the final basis set = -1510.27065370
   14   -1510.2758008204      4.59E-09 Convergence criterion met
 Total energy in the final basis set = -1510.27580082
   13   -1510.2779294302      8.20E-09 Convergence criterion met
 Total energy in the final basis set = -1510.27792943
   13   -1510.2791144168      8.58E-09 Convergence criterion met
   10   -1510.2821193389      7.36E-09 Convergence criterion met
 Total energy in the final basis set = -1510.28211934
   11   -1510.2821223015      1.76E-09 Convergence criterion met
 Total energy in the final basis set = -1510.28212230
   10   -1510.2821267597      7.25E-09 Convergence criterion met
 Total energy in the final basis set = -1510.28212676
   11   -1510.2821323442      2.96E-09 Convergence criterion met
 Total energy in the final basis set = -1510.28213234
   11   -1510.2821368294      2.02E-09 Convergence criterion met
 Total energy in the final basis set = -1510.28213683
    9   -1510.2821415457      4.61E-09 Convergence criterion met
 Total energy in the final basis set = -1510.28214155

             Standard Nuclear Orientation (Angstroms)
    I     Atom           X                Y                Z
 ----------------------------------------------------------------
    1      O      -5.3746837507     1.8456242692     1.0718483196
    2      C      -4.6154560456     1.5229853722     0.1332521865
    3      C      -4.7210587662     0.2504599046    -0.7820997979
    4      C      -3.5315632918    -0.7962799743    -0.6065580577
    5      C      -2.4249606613    -0.3493641097     0.4099426497
    6      O      -1.5006734766     0.4999259797    -0.2767650531
    7      C      -0.4156641528     0.9187493778     0.6438474296
    8      C       0.5467065242     1.8453103443    -0.1833142604
    9      O       1.9073105508     1.8258341019     0.4045411658
   10      C       2.6831120280     0.7801981680    -0.2015831648
   11      C       4.1535259508     0.8829540051     0.3223707687
   12      C       4.7850513822    -0.5325688282     0.6434052716
   13      C       3.7640685601    -1.7249858580     0.6431424456
   14      O       3.9453691127    -2.8709428080     0.1815608107
   15      O      -3.5056041398     2.3134265580    -0.3062047980
   16      O       2.5968798705    -1.3276927585     1.3785282105
   17      O       2.2446556303    -0.0004899388    -1.0744363023
   18      C       1.5939236434    -2.4173487249     1.3674887184
   19      C       5.0997856393     1.3465973000    -0.8708517942
   20      C       6.5383397970     1.6602471351    -0.2943412854
   21      C       7.1168087662     0.2086897542    -0.0996864934
   22      C       5.8682978979    -0.6649685246    -0.5071094488
   23      O       5.2833370878     0.0942541058    -1.6375662949
   24      H       4.1872442602     1.5691295413     1.1859031197
   25      H       5.2703406688    -0.5147963437     1.6373301426
   26      H       4.6681418352     2.1370663624    -1.5151045203
   27      H       7.1281485413     2.2386804663    -1.0229549516
   28      H       6.4883910408     2.2272886346     0.6490703444
   29      H       7.9584530065     0.0165951755    -0.7841440866
   30      H       7.4481345409     0.0135812257     0.9327037595
   31      H       6.0798268103    -1.7102996283    -0.8059667541
   32      O      -2.3197005249    -0.6685221805     1.6140932056
   33      C      -3.3575791222     3.5068350640     0.5575496478
   34      C      -5.9615834926    -0.6345883834    -0.3507349685
   35      C      -6.2680334821    -1.6745299752    -1.4989818857
   36      C      -5.0996575841    -2.7083881681    -1.2936590396
   37      C      -4.3301679355    -2.0610776313    -0.0762232619
   38      O      -5.4123580395    -1.4699321010     0.7432482203
   39      H      -4.7875958700     0.5829327318    -1.8341547584
   40      H      -3.0463758700    -0.9905514019    -1.5797393808
   41      H      -3.1911406051     3.2257197267     1.6175802278
   42      H      -6.8262412563    -0.0461765448     0.0126631312
   43      H      -7.2534089826    -2.1416894686    -1.3435716560
   44      H      -6.2518600024    -1.2073659562    -2.4967342409
   45      H      -5.4851034134    -3.7028278987    -1.0176471803
   46      H      -4.4595172049    -2.8126402427    -2.1843800402
   47      H      -3.7229807083    -2.7585800313     0.5326197252
   48      H      -4.2489956491     4.1648044908     0.5047945988
   49      H      -2.4739448662     4.0502042228     0.1753292612
   50      H       0.7880348663    -2.1035814713     2.0569215434
   51      H       2.0291370676    -3.3769860085     1.7122747207
   52      H       1.1749454897    -2.5640544458     0.3505666085
   53      H       0.5757514465     1.4744059471    -1.2305871338
   54      H       0.2026356572     2.8981599467    -0.1618273005
   55      H       0.1506475053     0.0339719407     1.0077881683
   56      H      -0.8271004311     1.4493901991     1.5289054995
 ----------------------------------------------------------------

    8   -1510.2821373845      7.84E-09 Convergence criterion met
 Total energy in the final basis set = -1510.28213738
 Final energy is   -1510.28213738451
 **  OPTIMIZATION CONVERGED  **

                    Orbital Energies (a.u.)
 --------------------------------------------------------------

 Alpha MOs
 -- Occupied --
-18.936 -18.935 -18.934 -18.934 -18.889 -18.885 -18.878 -18.877
-18.875 -18.873 -10.101 -10.100 -10.099 -10.099 -10.073 -10.071
-10.067 -10.064 -10.063 -10.059 -10.058 -10.057 -10.040 -10.039
-10.039 -10.037 -10.022 -10.021 -10.019 -10.018  -1.017  -1.015
 -1.010  -1.007  -0.972  -0.968  -0.940  -0.938  -0.936  -0.934
 -0.765  -0.762  -0.728  -0.723  -0.713  -0.705  -0.697  -0.665
 -0.662  -0.619  -0.598  -0.582  -0.547  -0.546  -0.539  -0.537
 -0.514  -0.509  -0.486  -0.471  -0.464  -0.455  -0.453  -0.451
 -0.443  -0.432  -0.428  -0.415  -0.414  -0.412  -0.411  -0.400
 -0.394  -0.379  -0.375  -0.370  -0.363  -0.357  -0.353  -0.350
 -0.347  -0.342  -0.340  -0.333  -0.332  -0.329  -0.327  -0.313
 -0.310  -0.306  -0.305  -0.296  -0.292  -0.286  -0.281  -0.275
 -0.273  -0.258  -0.255  -0.253  -0.248  -0.235  -0.232  -0.184
 -0.181  -0.174  -0.171  -0.159  -0.158  -0.152  -0.149  -0.145
 -0.142

          Ground-State Mulliken Net Atomic Charges

     Atom                 Charge (a.u.)
  ----------------------------------------
      1 O                    -0.209038
      2 C                     0.206567
      3 C                    -0.077599
      4 C                    -0.078528
      5 C                     0.206318
      6 O                    -0.167787
      7 C                    -0.047886
      8 C                    -0.050658
      9 O                    -0.172927
     10 C                     0.213285
     11 C                    -0.078132
     12 C                    -0.079093
     13 C                     0.214997
     14 O                    -0.209142
     15 O                    -0.168295
     16 O                    -0.174307
     17 O                    -0.215323
     18 C                    -0.130652
     19 C                     0.025732
     20 C                    -0.144400
     21 C                    -0.143120
     22 C                     0.024426
     23 O                    -0.186797
     24 H                     0.087304
     25 H                     0.084823
     26 H                     0.082311
     27 H                     0.078450
     28 H                     0.073887
     29 H                     0.078732
     30 H                     0.073471
     31 H                     0.091737
     32 O                    -0.212808
     33 C                    -0.128645
     34 C                     0.024272
     35 C                    -0.144335
     36 C                    -0.143920
     37 C                     0.025048
     38 O                    -0.186814
     39 H                     0.085623
     40 H                     0.086476
     41 H                     0.089062
     42 H                     0.089249
     43 H                     0.078259
     44 H                     0.072791
     45 H                     0.078116
     46 H                     0.073235
     47 H                     0.086376
     48 H                     0.089569
     49 H                     0.088249
     50 H                     0.092358
     51 H                     0.092150
     52 H                     0.091227
     53 H                     0.102265
     54 H                     0.087111
     55 H                     0.090390
     56 H                     0.086340
  ----------------------------------------
  Sum of atomic charges =    -0.000000

                    Cartesian Multipole Moments
 -----------------------------------------------------------------
    Charge (ESU x 10^10)
                 0.0000
    Dipole Moment (Debye)
         X       1.2296      Y       2.0292      Z      -0.5332
       Tot       2.4318
    Quadrupole Moments (Debye-Ang)
        XX    -155.6646     XY       7.8404     YY    -153.5427
        XZ      22.0983     YZ      -0.3827     ZZ    -165.4422

 Total job time:  68.01s(wall), 3234.60s(cpu)
        *  Thank you very much for using Q-Chem.  Have a nice day.  *
