 Q-Chem 5.0, Q-Chem, Inc., Pleasanton, CA (2017)
 Q-Chem 5.0.1 for Intel X86 EM64T Linux

User input:
--------------------------------------------------------------
$molecule
0  1
O -3.94934 -3.66094 2.70899
C -3.26408 -4.56952 2.26188
C -3.36658 -6.02376 2.66595
C -2.26617 -6.57645 3.58654
C -1.28449 -5.56962 4.14392
O -0.62156 -4.95282 3.12142
C 0.35086 -4.00387 3.57211
C 1.04515 -3.35568 2.37883
O 2.34575 -2.8849 2.76575
C 3.39303 -3.57249 2.24655
C 4.7277 -2.94407 2.56968
C 5.93153 -3.89185 2.46589
C 5.68695 -5.19225 1.72707
O 6.26815 -5.55167 0.71337
O -2.36 -4.28084 1.28913
O 4.85594 -6.07618 2.34343
O 3.26529 -4.25524 1.23579
C 4.55528 -7.33178 1.85831
C 5.14962 -1.84386 1.57397
C 6.12021 -0.88509 2.26016
C 7.34006 -1.77383 2.40168
C 6.87139 -3.00878 1.62018
O 5.9909 -2.49218 0.65188
H 4.64275 -2.48989 3.58399
H 6.35311 -4.15503 3.46078
H 4.28993 -1.28443 1.14434
H 6.34775 -0.08209 1.52245
H 5.76161 -0.41998 3.20351
H 8.19679 -1.27488 1.89694
H 7.61284 -2.04344 3.44508
H 7.74877 -3.57184 1.23258
O -1.13226 -5.3135 5.33392
C -2.19644 -3.03002 0.73103
C -4.60053 -6.28873 3.56419
C -5.00661 -7.7593 3.4764
C -3.88113 -8.40794 4.25123
C -3.12042 -7.16456 4.72378
O -4.11858 -6.18862 4.88148
H -3.50431 -6.60829 1.72863
H -1.65702 -7.3542 3.07467
H -1.92486 -2.29173 1.51502
H -5.47511 -5.64863 3.31445
H -5.94819 -7.87254 4.06061
H -5.16565 -8.15163 2.449
H -4.31886 -8.95328 5.11683
H -3.22932 -9.08908 3.66231
H -2.52207 -7.40733 5.62931
H -3.13516 -2.71042 0.23028
H -1.38434 -3.07118 -0.02349
H 3.85404 -7.83282 2.55665
H 5.47941 -7.94329 1.77861
H 4.07074 -7.25039 0.86183
H 1.07613 -4.14187 1.59382
H 0.43627 -2.53357 1.95202
H 1.124 -4.57801 4.13344
H -0.07196 -3.21799 4.23764
$end

$opt
CONSTRAINT
tors           1           2           3           4    -104.762
tors           3           4           5           6     -60.490
tors           4           5           6           7    -178.652
tors           5           6           7           8    -179.856
tors           6           7           8           9    -154.988
tors           7           8           9          10    +109.912
tors           8           9          10          11    +173.908
tors           9          10          11          12    +159.048
tors          11          12          13          14    +119.169
ENDCONSTRAINT
$end

$rem
JOBTYPE                   OPT
METHOD                    B3LYP
DFT_D                     d3_op
BASIS                     STO-3G
GEOM_OPT_MAX_CYCLES       100
GEOM_OPT_TOL_GRADIENT     300
GEOM_OPT_TOL_DISPLACEMENT 1200
GEOM_OPT_TOL_ENERGY       100
SYMMETRY                  False
THRESH                    12
SCF_CONVERGENCE           8
MAX_SUB_FILE_NUM          128
MEM_STATIC                400
MEM_TOTAL                 4000
$end
--------------------------------------------------------------

   15   -1510.1459514988      6.82E-09 Convergence criterion met
 Total energy in the final basis set = -1510.14595150
   14   -1510.2154216552      5.85E-09 Convergence criterion met
 Total energy in the final basis set = -1510.21542166
   13   -1510.2527745486      9.62E-09 Convergence criterion met
 Total energy in the final basis set = -1510.25277455
   14   -1510.2696447882      6.34E-09 Convergence criterion met
 Total energy in the final basis set = -1510.26964479
   14   -1510.2758529853      3.93E-09 Convergence criterion met
 Total energy in the final basis set = -1510.27585299
   14   -1510.2783280620      3.49E-09 Convergence criterion met
 Total energy in the final basis set = -1510.27832806
   13   -1510.2792892197      5.05E-09 Convergence criterion met
 Total energy in the final basis set = -1510.27928922
   13   -1510.2800069248      6.31E-09 Convergence criterion met
   12   -1510.2814415383      2.65E-09 Convergence criterion met
 Total energy in the final basis set = -1510.28144154
   11   -1510.2814924497      3.17E-09 Convergence criterion met
 Total energy in the final basis set = -1510.28149245
   11   -1510.2815244041      5.47E-09 Convergence criterion met
 Total energy in the final basis set = -1510.28152440
   10   -1510.2815439058      5.37E-09 Convergence criterion met
 Total energy in the final basis set = -1510.28154391
   11   -1510.2815506827      2.65E-09 Convergence criterion met
 Total energy in the final basis set = -1510.28155068
   11   -1510.2815539157      1.82E-09 Convergence criterion met
 Total energy in the final basis set = -1510.28155392

             Standard Nuclear Orientation (Angstroms)
    I     Atom           X                Y                Z
 ----------------------------------------------------------------
    1      O       4.4107976820    -2.5183745957    -0.0682892144
    2      C       4.0069446491    -1.5485760229    -0.7459162745
    3      C       4.6477913105    -0.1215626017    -0.8451157431
    4      C       3.8987648320     1.0403069821    -0.0563935959
    5      C       2.7802401824     0.5655110482     0.9425683751
    6      O       1.7661744829    -0.1410964567     0.2218532378
    7      C       0.6865039269    -0.5676245935     1.1478288247
    8      C      -0.3724921650    -1.3324625727     0.2780805778
    9      O      -1.7022405947    -1.2656682711     0.9325021814
   10      C      -2.5835708665    -0.4211203618     0.1823327470
   11      C      -4.0078175011    -0.5054683931     0.8191248107
   12      C      -4.9248694532     0.7305592938     0.4492632984
   13      C      -4.1949456766     1.8551338658    -0.3731720767
   14      O      -4.4840440730     2.2618858782    -1.5178024618
   15      O       2.9298152861    -1.6268674785    -1.6877031610
   16      O      -3.1952961039     2.4438497850     0.4715235641
   17      O      -2.2507313036     0.2079411086    -0.8476004978
   18      C      -2.4333171852     3.4585100328    -0.2892540746
   19      C      -4.8361854080    -1.6915370985     0.1487034778
   20      C      -6.1365461697    -1.9438094654     1.0102462136
   21      C      -7.0332371127    -0.7246549897     0.5761569084
   22      C      -6.0585090828     0.0299248076    -0.4080811132
   23      O      -5.3458695889    -1.0742961639    -1.0945963864
   24      H      -3.9056092809    -0.6454271562     1.9096628719
   25      H      -5.3344979960     1.1916140017     1.3665173452
   26      H      -4.2382893495    -2.5958613825    -0.0784373211
   27      H      -6.5977258297    -2.9056519875     0.7353415550
   28      H      -5.9215334156    -1.9511349175     2.0907508934
   29      H      -7.9357104033    -1.0600332019     0.0408451670
   30      H      -7.3394286634    -0.0960684175     1.4274547857
   31      H      -6.5361220391     0.6989230708    -1.1499019421
   32      O       2.7363221459     0.7788913607     2.1732744180
   33      C       2.3237137254    -2.9766503335    -1.6482465557
   34      C       6.0886483939    -0.0567485608    -0.1828249247
   35      C       6.8641887774     1.1543364970    -0.8319580010
   36      C       6.1107201612     2.3727522882    -0.1786153112
   37      C       5.1017367531     1.6338940501     0.7858144810
   38      O       5.8292230903     0.4099879563     1.1982885661
   39      H       4.6911622411     0.1383732085    -1.9182895278
   40      H       3.4579470556     1.7711774146    -0.7593284163
   41      H       2.0052740487    -3.2527099499    -0.6227872400
   42      H       6.6253164840    -1.0251899744    -0.1684908263
   43      H       7.9254794935     1.1324802701    -0.5371674372
   44      H       6.8014525502     1.1519536739    -1.9318163711
   45      H       6.7975893896     3.0126553219     0.3976473290
   46      H       5.5887940518     2.9970107471    -0.9216435968
   47      H       4.7778424382     2.2055329806     1.6769846059
   48      H       3.0283874355    -3.7514085061    -2.0151221331
   49      H       1.4418788888    -2.9356235116    -2.3137832990
   50      H      -1.7065920375     3.8937440664     0.4212309205
   51      H      -3.0934423941     4.2579739039    -0.6835111132
   52      H      -1.8908959089     2.9960332656    -1.1395186790
   53      H      -0.4393187698    -0.8510973848    -0.7222900117
   54      H      -0.1035049104    -2.4020986424     0.1703777664
   55      H       0.2066849203     0.3173335124     1.6222213160
   56      H       1.0883822934    -1.2122604110     1.9586164398
 ----------------------------------------------------------------

    9   -1510.2815548114      3.44E-09 Convergence criterion met
 Total energy in the final basis set = -1510.28155481
 Final energy is   -1510.28155481140
 **  OPTIMIZATION CONVERGED  **

                    Orbital Energies (a.u.)
 --------------------------------------------------------------

 Alpha MOs
 -- Occupied --
-18.942 -18.938 -18.934 -18.924 -18.889 -18.887 -18.885 -18.879
-18.874 -18.868 -10.108 -10.101 -10.099 -10.094 -10.076 -10.075
-10.065 -10.064 -10.058 -10.058 -10.057 -10.057 -10.043 -10.040
-10.037 -10.036 -10.023 -10.021 -10.020 -10.019  -1.022  -1.016
 -1.009  -1.002  -0.972  -0.968  -0.946  -0.939  -0.934  -0.929
 -0.765  -0.763  -0.730  -0.723  -0.714  -0.705  -0.699  -0.664
 -0.658  -0.619  -0.598  -0.583  -0.547  -0.546  -0.539  -0.537
 -0.515  -0.510  -0.487  -0.469  -0.464  -0.456  -0.456  -0.451
 -0.445  -0.433  -0.429  -0.413  -0.413  -0.411  -0.407  -0.404
 -0.395  -0.383  -0.374  -0.370  -0.363  -0.356  -0.352  -0.349
 -0.345  -0.344  -0.336  -0.334  -0.334  -0.329  -0.327  -0.313
 -0.310  -0.306  -0.305  -0.300  -0.293  -0.284  -0.281  -0.275
 -0.273  -0.259  -0.255  -0.250  -0.248  -0.236  -0.233  -0.185
 -0.183  -0.173  -0.169  -0.166  -0.159  -0.150  -0.148  -0.145
 -0.143

          Ground-State Mulliken Net Atomic Charges

     Atom                 Charge (a.u.)
  ----------------------------------------
      1 O                    -0.213391
      2 C                     0.208661
      3 C                    -0.079718
      4 C                    -0.076880
      5 C                     0.208203
      6 O                    -0.170733
      7 C                    -0.048099
      8 C                    -0.054562
      9 O                    -0.172682
     10 C                     0.215262
     11 C                    -0.077624
     12 C                    -0.080369
     13 C                     0.215825
     14 O                    -0.212285
     15 O                    -0.165421
     16 O                    -0.177107
     17 O                    -0.208436
     18 C                    -0.128813
     19 C                     0.025688
     20 C                    -0.143745
     21 C                    -0.143818
     22 C                     0.024665
     23 O                    -0.188273
     24 H                     0.088066
     25 H                     0.084289
     26 H                     0.082777
     27 H                     0.078597
     28 H                     0.074251
     29 H                     0.078678
     30 H                     0.073739
     31 H                     0.091363
     32 O                    -0.209265
     33 C                    -0.127455
     34 C                     0.024045
     35 C                    -0.143190
     36 C                    -0.145052
     37 C                     0.024110
     38 O                    -0.188381
     39 H                     0.085526
     40 H                     0.085985
     41 H                     0.086105
     42 H                     0.088250
     43 H                     0.078236
     44 H                     0.072883
     45 H                     0.078336
     46 H                     0.072757
     47 H                     0.089873
     48 H                     0.087539
     49 H                     0.090056
     50 H                     0.086792
     51 H                     0.087806
     52 H                     0.092343
     53 H                     0.107654
     54 H                     0.085906
     55 H                     0.090433
     56 H                     0.090596
  ----------------------------------------
  Sum of atomic charges =     0.000000

                    Cartesian Multipole Moments
 -----------------------------------------------------------------
    Charge (ESU x 10^10)
                 0.0000
    Dipole Moment (Debye)
         X      -0.7516      Y       0.0911      Z      -0.0313
       Tot       0.7577
    Quadrupole Moments (Debye-Ang)
        XX    -156.0642     XY      10.5748     YY    -152.1761
        XZ     -25.2356     YZ       2.2312     ZZ    -168.5686

 Total job time:  52.03s(wall), 2472.74s(cpu)
        *  Thank you very much for using Q-Chem.  Have a nice day.  *
