 Q-Chem 5.0, Q-Chem, Inc., Pleasanton, CA (2017)
 Q-Chem 5.0.1 for Intel X86 EM64T Linux

User input:
--------------------------------------------------------------
$molecule
0  1
O 4.410797682 -2.5183745957 -0.0682892144
C 4.0069446491 -1.5485760229 -0.7459162745
C 4.6477913105 -0.1215626017 -0.8451157431
C 3.898764832 1.0403069821 -0.0563935959
C 2.7802401824 0.5655110482 0.9425683751
O 1.7661744829 -0.1410964567 0.2218532378
C 0.6865039269 -0.5676245935 1.1478288247
C -0.372492165 -1.3324625727 0.2780805778
O -1.7022405947 -1.2656682711 0.9325021814
C -2.5835708665 -0.4211203618 0.182332747
C -4.0078175011 -0.5054683931 0.8191248107
C -4.9248694532 0.7305592938 0.4492632984
C -4.1949456766 1.8551338658 -0.3731720767
O -4.484044073 2.2618858782 -1.5178024618
O 2.9298152861 -1.6268674785 -1.687703161
O -3.1952961039 2.443849785 0.4715235641
O -2.2507313036 0.2079411086 -0.8476004978
C -2.4333171852 3.4585100328 -0.2892540746
C -4.836185408 -1.6915370985 0.1487034778
C -6.1365461697 -1.9438094654 1.0102462136
C -7.0332371127 -0.7246549897 0.5761569084
C -6.0585090828 0.0299248076 -0.4080811132
O -5.3458695889 -1.0742961639 -1.0945963864
H -3.9056092809 -0.6454271562 1.9096628719
H -5.334497996 1.1916140017 1.3665173452
H -4.2382893495 -2.5958613825 -0.0784373211
H -6.5977258297 -2.9056519875 0.735341555
H -5.9215334156 -1.9511349175 2.0907508934
H -7.9357104033 -1.0600332019 0.040845167
H -7.3394286634 -0.0960684175 1.4274547857
H -6.5361220391 0.6989230708 -1.1499019421
O 2.7363221459 0.7788913607 2.173274418
C 2.3237137254 -2.9766503335 -1.6482465557
C 6.0886483939 -0.0567485608 -0.1828249247
C 6.8641887774 1.154336497 -0.831958001
C 6.1107201612 2.3727522882 -0.1786153112
C 5.1017367531 1.6338940501 0.785814481
O 5.8292230903 0.4099879563 1.1982885661
H 4.6911622411 0.1383732085 -1.9182895278
H 3.4579470556 1.7711774146 -0.7593284163
H 2.0052740487 -3.2527099499 -0.62278724
H 6.625316484 -1.0251899744 -0.1684908263
H 7.9254794935 1.1324802701 -0.5371674372
H 6.8014525502 1.1519536739 -1.9318163711
H 6.7975893896 3.0126553219 0.397647329
H 5.5887940518 2.9970107471 -0.9216435968
H 4.7778424382 2.2055329806 1.6769846059
H 3.0283874355 -3.7514085061 -2.0151221331
H 1.4418788888 -2.9356235116 -2.313783299
H -1.7065920375 3.8937440664 0.4212309205
H -3.0934423941 4.2579739039 -0.6835111132
H -1.8908959089 2.9960332656 -1.139518679
H -0.4393187698 -0.8510973848 -0.7222900117
H -0.1035049104 -2.4020986424 0.1703777664
H 0.2066849203 0.3173335124 1.622221316
H 1.0883822934 -1.212260411 1.9586164398
$end

$rem
JOBTYPE                   OPT
METHOD                    B3LYP
DFT_D                     d3_op
BASIS                     STO-3G
GEOM_OPT_MAX_CYCLES       100
GEOM_OPT_TOL_GRADIENT     300
GEOM_OPT_TOL_DISPLACEMENT 1200
GEOM_OPT_TOL_ENERGY       100
SYMMETRY                  False
THRESH                    12
SCF_CONVERGENCE           8
MAX_SUB_FILE_NUM          128
MEM_STATIC                400
MEM_TOTAL                 4000
$end
--------------------------------------------------------------

   16   -1510.2814590367      5.67E-09 Convergence criterion met
 Total energy in the final basis set = -1510.28145904
   14   -1510.2824355697      4.30E-09 Convergence criterion met
 Total energy in the final basis set = -1510.28243557
   13   -1510.2830817453      9.59E-09 Convergence criterion met
 Total energy in the final basis set = -1510.28308175
   13   -1510.2838178272      6.35E-09 Convergence criterion met
 Total energy in the final basis set = -1510.28381783
   14   -1510.2843935746      4.07E-09 Convergence criterion met
 Total energy in the final basis set = -1510.28439357
   13   -1510.2847909709      7.80E-09 Convergence criterion met
 Total energy in the final basis set = -1510.28479097
   13   -1510.2852446139      6.69E-09 Convergence criterion met
 Total energy in the final basis set = -1510.28524461
   13   -1510.2855925952      5.14E-09 Convergence criterion met
   13   -1510.2898019974      2.27E-09 Convergence criterion met
 Total energy in the final basis set = -1510.28980200
   12   -1510.2900127733      7.24E-09 Convergence criterion met
 Total energy in the final basis set = -1510.29001277
   12   -1510.2899972222      4.60E-09 Convergence criterion met
 Total energy in the final basis set = -1510.28999722
   11   -1510.2900203861      4.48E-09 Convergence criterion met
 Total energy in the final basis set = -1510.29002039
   11   -1510.2900360388      9.91E-09 Convergence criterion met
 Total energy in the final basis set = -1510.29003604
   11   -1510.2900453476      6.27E-09 Convergence criterion met
 Total energy in the final basis set = -1510.29004535

             Standard Nuclear Orientation (Angstroms)
    I     Atom           X                Y                Z
 ----------------------------------------------------------------
    1      O      -3.4677942401     1.5075121612     1.4447704818
    2      C      -3.8360609057     1.4714620932     0.2505514866
    3      C      -4.4889973284     0.2699813287    -0.5186189118
    4      C      -3.5165757035    -0.9757467097    -0.6819356809
    5      C      -2.1146826549    -0.7654763569    -0.0091176059
    6      O      -1.5723817012     0.4688711906    -0.4816176326
    7      C      -0.3310003267     0.8250495581     0.2507872440
    8      C       0.5416792101     1.7368065734    -0.6805604404
    9      O       1.8893288280     1.8543930886    -0.0741134311
   10      C       2.7579515692     0.8435759029    -0.6151210035
   11      C       4.0616607197     0.8146484522     0.2428460728
   12      C       4.4176117222    -0.6418018816     0.7650930483
   13      C       3.4430458005    -1.7767534600     0.2778196992
   14      O       3.7566508840    -2.7898032616    -0.3827223686
   15      O      -3.7576919922     2.5861807371    -0.6483739957
   16      O       2.1162520892    -1.5095263711     0.7499604986
   17      O       2.4761184036     0.1307840244    -1.6028309614
   18      C       1.2073657230    -2.6007811081     0.3158875116
   19      C       5.3613092175     1.1417840844    -0.6164062224
   20      C       6.5388197545     1.4671829443     0.3859466147
   21      C       6.8950667309     0.0281828571     0.9151920803
   22      C       5.8513162625    -0.8527726808     0.1251095005
   23      O       5.7378255594    -0.1695372851    -1.1859955039
   24      H       3.9383043177     1.5255705516     1.0781269444
   25      H       4.4479736399    -0.6601612119     1.8701858083
   26      H       5.2057915891     1.8865321823    -1.4208057166
   27      H       7.3859928553     1.9214086987    -0.1522334828
   28      H       6.2223331653     2.1509666099     1.1897062830
   29      H       7.9242054281    -0.2582608672     0.6460664692
   30      H       6.7757338374    -0.0657546077     2.0065185855
   31      H       6.1206007216    -1.9169913156    -0.0194620336
   32      O      -1.5484195931    -1.5380312227     0.7962764017
   33      C      -3.1291284571     3.7388778688     0.0357180549
   34      C      -5.6665492369    -0.3946115640     0.3193410372
   35      C      -6.5126414165    -1.3107908539    -0.6509132726
   36      C      -5.5477503978    -2.5415879325    -0.8272142286
   37      C      -4.3290990326    -2.1042000690     0.0748310115
   38      O      -4.9653082647    -1.3646496054     1.1903635022
   39      H      -4.8362755951     0.6364678493    -1.5002913962
   40      H      -3.3608387096    -1.2173382184    -1.7497550678
   41      H      -2.0848757931     3.5134827948     0.3338383359
   42      H      -6.2544774908     0.3178882334     0.9298028864
   43      H      -7.4589783160    -1.6055545358    -0.1702612603
   44      H      -6.7424580694    -0.8077207705    -1.6038657100
   45      H      -6.0000572454    -3.4680387649    -0.4391458413
   46      H      -5.2520428094    -2.7055939667    -1.8758008039
   47      H      -3.6945707104    -2.9232812704     0.4658702333
   48      H      -3.6950960662     4.0360209437     0.9420432246
   49      H      -3.1333935597     4.5690131503    -0.6943436135
   50      H       0.1809709182    -2.2812998815     0.6013444712
   51      H       1.4637146657    -3.5557956438     0.8168890681
   52      H       1.2658379305    -2.7524244781    -0.7805054590
   53      H       0.6184410519     1.2731745735    -1.6877794894
   54      H       0.1199551959     2.7583492325    -0.7599558227
   55      H       0.2511698796    -0.0821911767     0.5187031953
   56      H      -0.6010136662     1.3579616501     1.1883523176
 ----------------------------------------------------------------

   10   -1510.2900455869      9.28E-09 Convergence criterion met
 Total energy in the final basis set = -1510.29004559
 Final energy is   -1510.29004558687
 **  OPTIMIZATION CONVERGED  **

                    Orbital Energies (a.u.)
 --------------------------------------------------------------

 Alpha MOs
 -- Occupied --
-18.946 -18.935 -18.934 -18.925 -18.893 -18.889 -18.887 -18.879
-18.870 -18.870 -10.114 -10.102 -10.099 -10.093 -10.074 -10.073
-10.066 -10.062 -10.061 -10.061 -10.056 -10.044 -10.042 -10.039
-10.038 -10.036 -10.022 -10.021 -10.020 -10.019  -1.024  -1.015
 -1.008  -1.003  -0.972  -0.969  -0.950  -0.939  -0.934  -0.928
 -0.767  -0.762  -0.730  -0.723  -0.712  -0.707  -0.698  -0.665
 -0.651  -0.618  -0.599  -0.583  -0.549  -0.544  -0.540  -0.536
 -0.515  -0.509  -0.484  -0.477  -0.462  -0.460  -0.457  -0.450
 -0.441  -0.432  -0.430  -0.417  -0.413  -0.410  -0.403  -0.401
 -0.397  -0.387  -0.372  -0.368  -0.362  -0.359  -0.357  -0.352
 -0.346  -0.337  -0.335  -0.333  -0.331  -0.327  -0.325  -0.313
 -0.309  -0.308  -0.303  -0.302  -0.295  -0.288  -0.281  -0.277
 -0.272  -0.259  -0.255  -0.253  -0.245  -0.236  -0.233  -0.188
 -0.178  -0.176  -0.170  -0.167  -0.159  -0.151  -0.147  -0.146
 -0.143

          Ground-State Mulliken Net Atomic Charges

     Atom                 Charge (a.u.)
  ----------------------------------------
      1 O                    -0.219029
      2 C                     0.210674
      3 C                    -0.079367
      4 C                    -0.077779
      5 C                     0.222808
      6 O                    -0.171634
      7 C                    -0.055278
      8 C                    -0.052341
      9 O                    -0.172704
     10 C                     0.211563
     11 C                    -0.079699
     12 C                    -0.078786
     13 C                     0.211652
     14 O                    -0.209269
     15 O                    -0.169095
     16 O                    -0.179273
     17 O                    -0.211027
     18 C                    -0.144808
     19 C                     0.025931
     20 C                    -0.143546
     21 C                    -0.144336
     22 C                     0.024681
     23 O                    -0.186141
     24 H                     0.086785
     25 H                     0.084535
     26 H                     0.082772
     27 H                     0.078047
     28 H                     0.073494
     29 H                     0.078405
     30 H                     0.073289
     31 H                     0.091686
     32 O                    -0.208137
     33 C                    -0.128247
     34 C                     0.025592
     35 C                    -0.143749
     36 C                    -0.144162
     37 C                     0.024406
     38 O                    -0.186271
     39 H                     0.086771
     40 H                     0.087380
     41 H                     0.084419
     42 H                     0.084074
     43 H                     0.078668
     44 H                     0.073924
     45 H                     0.079127
     46 H                     0.073639
     47 H                     0.090794
     48 H                     0.089562
     49 H                     0.089710
     50 H                     0.107146
     51 H                     0.081884
     52 H                     0.086545
     53 H                     0.102277
     54 H                     0.086787
     55 H                     0.105509
     56 H                     0.090142
  ----------------------------------------
  Sum of atomic charges =     0.000000

                    Cartesian Multipole Moments
 -----------------------------------------------------------------
    Charge (ESU x 10^10)
                 0.0000
    Dipole Moment (Debye)
         X      -1.3016      Y       2.4041      Z      -0.1825
       Tot       2.7399
    Quadrupole Moments (Debye-Ang)
        XX    -147.7740     XY       8.1373     YY    -154.7637
        XZ      20.5688     YZ      -0.1173     ZZ    -166.9152

 Total job time:  87.26s(wall), 4155.49s(cpu)
        *  Thank you very much for using Q-Chem.  Have a nice day.  *
