 Q-Chem 5.0, Q-Chem, Inc., Pleasanton, CA (2017)
 Q-Chem 5.0.1 for Intel X86 EM64T Linux

User input:
--------------------------------------------------------------
$molecule
0  1
O -3.94934 -3.66094 2.70899
C -3.26408 -4.56952 2.26188
C -3.36658 -6.02376 2.66595
C -2.16837 -6.63141 3.41356
C -1.07618 -5.67144 3.8303
O -0.44535 -5.17779 2.72405
C 0.63686 -4.29547 3.03966
C 1.28812 -3.78342 1.75912
O 2.52545 -3.12342 2.06943
C 3.55174 -3.94035 2.41366
C 4.89138 -3.24354 2.39129
C 5.82572 -3.59952 3.55686
C 5.44834 -4.83228 4.35348
O 6.2315 -5.67125 4.77461
O -2.40343 -4.2893 1.24853
O 4.21246 -4.80163 4.92404
O 3.46679 -5.16465 2.39792
C 3.71663 -5.76408 5.77901
C 5.77553 -3.65582 1.19466
C 6.77585 -2.54153 0.89406
C 7.68131 -2.64301 2.10539
C 7.11281 -3.90572 2.76699
O 6.61652 -4.66722 1.69331
H 4.70959 -2.14568 2.32125
H 5.91932 -2.7617 4.28203
H 5.19232 -3.90885 0.28218
H 7.34719 -2.86399 -0.00621
H 6.34556 -1.53403 0.70807
H 8.72364 -2.80221 1.75062
H 7.64028 -1.77815 2.80268
H 7.89286 -4.39346 3.39159
O -0.77936 -5.397 4.98861
C -2.23756 -3.03646 0.69563
C -4.48096 -6.26372 3.71051
C -4.93374 -7.72276 3.66929
C -3.74159 -8.40454 4.30267
C -2.8848 -7.18624 4.66093
O -3.82437 -6.18194 4.95069
H -3.6249 -6.58658 1.74099
H -1.67541 -7.44537 2.83647
H -1.88398 -2.32088 1.46855
H -5.36254 -5.59892 3.57854
H -5.80303 -7.81972 4.35877
H -5.21957 -8.09959 2.66373
H -4.08271 -8.92077 5.2277
H -3.19829 -9.11955 3.64765
H -2.17971 -7.44996 5.47974
H -3.19651 -2.67888 0.26343
H -1.48299 -3.09346 -0.11523
H 2.6864 -5.48488 6.08135
H 4.35036 -5.83362 6.68873
H 3.68387 -6.74885 5.26584
H 1.4669 -4.61137 1.03567
H 0.59695 -3.06596 1.27315
H 1.37805 -4.87109 3.63465
H 0.29689 -3.42548 3.6461
$end

$opt
CONSTRAINT
tors           1           2           3           4    -113.409
tors           3           4           5           6     -67.054
tors           4           5           6           7    -177.874
tors           5           6           7           8    -179.856
tors           6           7           8           9    -168.453
tors           7           8           9          10     +73.665
tors           8           9          10          11    +165.635
tors           9          10          11          12    +138.813
tors          11          12          13          14    +139.493
ENDCONSTRAINT
$end

$rem
JOBTYPE                   OPT
METHOD                    B3LYP
DFT_D                     d3_op
BASIS                     STO-3G
GEOM_OPT_MAX_CYCLES       100
GEOM_OPT_TOL_GRADIENT     300
GEOM_OPT_TOL_DISPLACEMENT 1200
GEOM_OPT_TOL_ENERGY       100
SYMMETRY                  False
THRESH                    12
SCF_CONVERGENCE           8
MAX_SUB_FILE_NUM          128
MEM_STATIC                400
MEM_TOTAL                 4000
$end
--------------------------------------------------------------

   15   -1510.1502217593      6.70E-09 Convergence criterion met
 Total energy in the final basis set = -1510.15022176
   13   -1510.2190663385      9.10E-09 Convergence criterion met
 Total energy in the final basis set = -1510.21906634
   14   -1510.2554285947      8.76E-09 Convergence criterion met
 Total energy in the final basis set = -1510.25542859
   14   -1510.2704396347      7.08E-09 Convergence criterion met
 Total energy in the final basis set = -1510.27043963
   14   -1510.2747202728      5.28E-09 Convergence criterion met
 Total energy in the final basis set = -1510.27472027
   14   -1510.2760359303      4.24E-09 Convergence criterion met
 Total energy in the final basis set = -1510.27603593
   13   -1510.2772692938      1.71E-09 Convergence criterion met
 Total energy in the final basis set = -1510.27726929
   13   -1510.2780482001      5.04E-09 Convergence criterion met
   12   -1510.2796095202      4.33E-09 Convergence criterion met
 Total energy in the final basis set = -1510.27960952
   11   -1510.2796832199      4.84E-09 Convergence criterion met
 Total energy in the final basis set = -1510.27968322
   11   -1510.2797482379      8.42E-09 Convergence criterion met
 Total energy in the final basis set = -1510.27974824
   11   -1510.2797947102      7.34E-09 Convergence criterion met
 Total energy in the final basis set = -1510.27979471
   11   -1510.2798157389      3.16E-09 Convergence criterion met
 Total energy in the final basis set = -1510.27981574
    9   -1510.2798224247      9.09E-09 Convergence criterion met
 Total energy in the final basis set = -1510.27982242

             Standard Nuclear Orientation (Angstroms)
    I     Atom           X                Y                Z
 ----------------------------------------------------------------
    1      O      -4.8117518190     1.8867705752     1.4672511591
    2      C      -4.3134158504     1.6060195201     0.3553568041
    3      C      -4.7576415528     0.4606482423    -0.6211296059
    4      C      -3.7223097603    -0.7292382900    -0.8516189669
    5      C      -2.4410978280    -0.7121205040     0.0597472967
    6      O      -1.6270266473     0.4128924655    -0.2780709721
    7      C      -0.3932730935     0.3983624190     0.5480669393
    8      C       0.4496622705     1.6565427365     0.1310792561
    9      O       1.8231982158     1.5992324187     0.6884568912
   10      C       2.6190429986     0.6298417298    -0.0107043638
   11      C       4.1221900290     0.8689215284     0.3578757834
   12      C       4.9129191491    -0.4835260512     0.5939653148
   13      C       4.0062242900    -1.7626945156     0.6676001273
   14      O       4.2412425250    -2.8844287150     0.1720650040
   15      O      -3.3172045799     2.4035589445    -0.2934881770
   16      O       2.8775710302    -1.4688316977     1.5032353518
   17      O       2.1725276230    -0.1635768736    -0.8680588380
   18      C       1.9596022191    -2.6299119412     1.5490861453
   19      C       4.8902333616     1.4195427121    -0.9231920443
   20      C       6.3410991661     1.8762260782    -0.4929521550
   21      C       7.0754360351     0.4898784512    -0.3610910977
   22      C       5.8875389657    -0.5052484037    -0.6554576532
   23      O       5.1193470510     0.1906498586    -1.7152268105
   24      H       4.1847149828     1.5539048179     1.2206334547
   25      H       5.4854273000    -0.4295367969     1.5389542814
   26      H       4.3206946786     2.1619595553    -1.5156092202
   27      H       6.7955007900     2.5044225091    -1.2753290032
   28      H       6.3311079727     2.4424213445     0.4522310139
   29      H       7.8664200289     0.3801049963    -1.1201033523
   30      H       7.5164004366     0.3327258486     0.6361182297
   31      H       6.1731986276    -1.5235772888    -0.9845726838
   32      O      -2.1325909361    -1.5531298721     0.9324257037
   33      C      -2.8933161016     3.5053000815     0.5997904456
   34      C      -6.0081657996    -0.3380637373    -0.0570200635
   35      C      -6.7261544956    -1.0465817138    -1.2712826778
   36      C      -5.7054324292    -2.2018767764    -1.5904302575
   37      C      -4.6214123327    -1.9743995753    -0.4650595261
   38      O      -5.4030576055    -1.4661562520     0.6867127498
   39      H      -4.9909707426     0.9348316527    -1.5921191157
   40      H      -3.3956082767    -0.7541813102    -1.9074706958
   41      H      -2.4340155483     3.1197166455     1.5330379280
   42      H      -6.6587734710     0.2601566796     0.6102286653
   43      H      -7.7029221797    -1.4479408095    -0.9573320559
   44      H      -6.8804560565    -0.3651771328    -2.1231401497
   45      H      -6.1705474574    -3.1947299070    -1.4851748278
   46      H      -5.2743145010    -2.1197487900    -2.6011276047
   47      H      -4.0384670296    -2.8679337043    -0.1689599838
   48      H      -3.7440682804     4.1622758177     0.8737877145
   49      H      -2.1442605903     4.0866941779     0.0314478587
   50      H       1.1411153198    -2.3482444305     2.2369671269
   51      H       2.4693441090    -3.5394887410     1.9265868475
   52      H       1.5397018032    -2.8503925806     0.5461790900
   53      H       0.4751549965     1.7134917597    -0.9788273902
   54      H      -0.0015010041     2.5837221094     0.5351989603
   55      H       0.1989519177    -0.5183918563     0.3419758503
   56      H      -0.6357799300     0.4248923279     1.6320937658
 ----------------------------------------------------------------

   10   -1510.2798231665      5.51E-09 Convergence criterion met
 Total energy in the final basis set = -1510.27982317
 Final energy is   -1510.27982316647
 **  OPTIMIZATION CONVERGED  **

                    Orbital Energies (a.u.)
 --------------------------------------------------------------

 Alpha MOs
 -- Occupied --
-18.936 -18.935 -18.935 -18.933 -18.889 -18.884 -18.877 -18.875
-18.874 -18.873 -10.101 -10.100 -10.099 -10.098 -10.077 -10.070
-10.067 -10.063 -10.062 -10.059 -10.056 -10.056 -10.039 -10.038
-10.038 -10.037 -10.022 -10.021 -10.019 -10.018  -1.017  -1.014
 -1.009  -1.007  -0.971  -0.967  -0.940  -0.937  -0.935  -0.934
 -0.765  -0.761  -0.728  -0.722  -0.712  -0.704  -0.697  -0.665
 -0.661  -0.618  -0.597  -0.584  -0.547  -0.545  -0.539  -0.536
 -0.513  -0.509  -0.484  -0.470  -0.464  -0.456  -0.455  -0.451
 -0.439  -0.432  -0.428  -0.414  -0.413  -0.411  -0.410  -0.400
 -0.389  -0.383  -0.374  -0.370  -0.365  -0.357  -0.354  -0.349
 -0.347  -0.340  -0.337  -0.333  -0.332  -0.328  -0.326  -0.313
 -0.310  -0.306  -0.304  -0.296  -0.290  -0.287  -0.281  -0.274
 -0.273  -0.259  -0.254  -0.253  -0.246  -0.235  -0.232  -0.185
 -0.181  -0.174  -0.170  -0.158  -0.157  -0.151  -0.148  -0.144
 -0.142

          Ground-State Mulliken Net Atomic Charges

     Atom                 Charge (a.u.)
  ----------------------------------------
      1 O                    -0.211873
      2 C                     0.206999
      3 C                    -0.078930
      4 C                    -0.077220
      5 C                     0.206966
      6 O                    -0.168524
      7 C                    -0.051013
      8 C                    -0.047010
      9 O                    -0.172983
     10 C                     0.214602
     11 C                    -0.078112
     12 C                    -0.079202
     13 C                     0.214724
     14 O                    -0.208942
     15 O                    -0.164352
     16 O                    -0.173790
     17 O                    -0.216375
     18 C                    -0.129641
     19 C                     0.025658
     20 C                    -0.144345
     21 C                    -0.143130
     22 C                     0.024253
     23 O                    -0.186688
     24 H                     0.087128
     25 H                     0.084550
     26 H                     0.081815
     27 H                     0.078412
     28 H                     0.073878
     29 H                     0.078686
     30 H                     0.073514
     31 H                     0.091732
     32 O                    -0.212558
     33 C                    -0.128016
     34 C                     0.023765
     35 C                    -0.143579
     36 C                    -0.144804
     37 C                     0.024389
     38 O                    -0.188386
     39 H                     0.085158
     40 H                     0.086011
     41 H                     0.086509
     42 H                     0.088951
     43 H                     0.078029
     44 H                     0.072442
     45 H                     0.078239
     46 H                     0.072839
     47 H                     0.089384
     48 H                     0.089902
     49 H                     0.088645
     50 H                     0.093845
     51 H                     0.090511
     52 H                     0.092354
     53 H                     0.093479
     54 H                     0.088705
     55 H                     0.096900
     56 H                     0.086491
  ----------------------------------------
  Sum of atomic charges =     0.000000

                    Cartesian Multipole Moments
 -----------------------------------------------------------------
    Charge (ESU x 10^10)
                 0.0000
    Dipole Moment (Debye)
         X       0.8455      Y       2.6763      Z      -0.4900
       Tot       2.8491
    Quadrupole Moments (Debye-Ang)
        XX    -150.1254     XY       6.6455     YY    -156.4075
        XZ      20.5387     YZ      -0.2478     ZZ    -164.2743

 Total job time:  50.09s(wall), 2380.03s(cpu)
        *  Thank you very much for using Q-Chem.  Have a nice day.  *
