 Q-Chem 5.0, Q-Chem, Inc., Pleasanton, CA (2017)
 Q-Chem 5.0.1 for Intel X86 EM64T Linux

User input:
--------------------------------------------------------------
$molecule
0  1
O -4.811751819 1.8867705752 1.4672511591
C -4.3134158504 1.6060195201 0.3553568041
C -4.7576415528 0.4606482423 -0.6211296059
C -3.7223097603 -0.72923829 -0.8516189669
C -2.441097828 -0.712120504 0.0597472967
O -1.6270266473 0.4128924655 -0.2780709721
C -0.3932730935 0.398362419 0.5480669393
C 0.4496622705 1.6565427365 0.1310792561
O 1.8231982158 1.5992324187 0.6884568912
C 2.6190429986 0.6298417298 -0.0107043638
C 4.122190029 0.8689215284 0.3578757834
C 4.9129191491 -0.4835260512 0.5939653148
C 4.00622429 -1.7626945156 0.6676001273
O 4.241242525 -2.884428715 0.172065004
O -3.3172045799 2.4035589445 -0.293488177
O 2.8775710302 -1.4688316977 1.5032353518
O 2.172527623 -0.1635768736 -0.868058838
C 1.9596022191 -2.6299119412 1.5490861453
C 4.8902333616 1.4195427121 -0.9231920443
C 6.3410991661 1.8762260782 -0.492952155
C 7.0754360351 0.4898784512 -0.3610910977
C 5.8875389657 -0.5052484037 -0.6554576532
O 5.119347051 0.1906498586 -1.7152268105
H 4.1847149828 1.5539048179 1.2206334547
H 5.4854273 -0.4295367969 1.5389542814
H 4.3206946786 2.1619595553 -1.5156092202
H 6.79550079 2.5044225091 -1.2753290032
H 6.3311079727 2.4424213445 0.4522310139
H 7.8664200289 0.3801049963 -1.1201033523
H 7.5164004366 0.3327258486 0.6361182297
H 6.1731986276 -1.5235772888 -0.9845726838
O -2.1325909361 -1.5531298721 0.9324257037
C -2.8933161016 3.5053000815 0.5997904456
C -6.0081657996 -0.3380637373 -0.0570200635
C -6.7261544956 -1.0465817138 -1.2712826778
C -5.7054324292 -2.2018767764 -1.5904302575
C -4.6214123327 -1.9743995753 -0.4650595261
O -5.4030576055 -1.466156252 0.6867127498
H -4.9909707426 0.9348316527 -1.5921191157
H -3.3956082767 -0.7541813102 -1.9074706958
H -2.4340155483 3.1197166455 1.533037928
H -6.658773471 0.2601566796 0.6102286653
H -7.7029221797 -1.4479408095 -0.9573320559
H -6.8804560565 -0.3651771328 -2.1231401497
H -6.1705474574 -3.194729907 -1.4851748278
H -5.274314501 -2.11974879 -2.6011276047
H -4.0384670296 -2.8679337043 -0.1689599838
H -3.7440682804 4.1622758177 0.8737877145
H -2.1442605903 4.0866941779 0.0314478587
H 1.1411153198 -2.3482444305 2.2369671269
H 2.469344109 -3.539488741 1.9265868475
H 1.5397018032 -2.8503925806 0.54617909
H 0.4751549965 1.7134917597 -0.9788273902
H -0.0015010041 2.5837221094 0.5351989603
H 0.1989519177 -0.5183918563 0.3419758503
H -0.63577993 0.4248923279 1.6320937658
$end

$rem
JOBTYPE                   OPT
METHOD                    B3LYP
DFT_D                     d3_op
BASIS                     STO-3G
GEOM_OPT_MAX_CYCLES       100
GEOM_OPT_TOL_GRADIENT     300
GEOM_OPT_TOL_DISPLACEMENT 1200
GEOM_OPT_TOL_ENERGY       100
SYMMETRY                  False
THRESH                    12
SCF_CONVERGENCE           8
MAX_SUB_FILE_NUM          128
MEM_STATIC                400
MEM_TOTAL                 4000
$end
--------------------------------------------------------------

   16   -1510.2797873108      5.71E-09 Convergence criterion met
 Total energy in the final basis set = -1510.27978731
   14   -1510.2819889249      3.36E-09 Convergence criterion met
 Total energy in the final basis set = -1510.28198892
   13   -1510.2832559189      6.86E-09 Convergence criterion met
 Total energy in the final basis set = -1510.28325592
   13   -1510.2842926435      7.37E-09 Convergence criterion met
 Total energy in the final basis set = -1510.28429264
   14   -1510.2853116869      6.74E-09 Convergence criterion met
 Total energy in the final basis set = -1510.28531169
   13   -1510.2861187834      4.79E-09 Convergence criterion met
 Total energy in the final basis set = -1510.28611878
   14   -1510.2866428739      7.53E-09 Convergence criterion met
 Total energy in the final basis set = -1510.28664287
   14   -1510.2840736959      8.80E-09 Convergence criterion met
   12   -1510.2903701517      3.93E-09 Convergence criterion met
 Total energy in the final basis set = -1510.29037015
   12   -1510.2903900364      4.23E-09 Convergence criterion met
 Total energy in the final basis set = -1510.29039004
   12   -1510.2903914428      1.75E-09 Convergence criterion met
 Total energy in the final basis set = -1510.29039144
   10   -1510.2903929472      7.60E-09 Convergence criterion met
 Total energy in the final basis set = -1510.29039295
   11   -1510.2904050400      8.85E-09 Convergence criterion met
 Total energy in the final basis set = -1510.29040504
   11   -1510.2903988074      2.45E-09 Convergence criterion met
 Total energy in the final basis set = -1510.29039881

             Standard Nuclear Orientation (Angstroms)
    I     Atom           X                Y                Z
 ----------------------------------------------------------------
    1      O      -3.6277864772     1.5867843678     1.6692738664
    2      C      -3.9253480005     1.5575832432     0.4556854035
    3      C      -4.5679717144     0.3752972175    -0.3538434001
    4      C      -3.5773950572    -0.8317809204    -0.6458307469
    5      C      -2.1511342637    -0.6630521091    -0.0144335183
    6      O      -1.7024701232     0.6721013672    -0.2500293211
    7      C      -0.4401679138     0.9563078356     0.4779440398
    8      C       0.5250673377     1.7449486446    -0.4714439288
    9      O       1.8685201538     1.7652082681     0.1548204098
   10      C       2.7805248424     0.9618199090    -0.6141963526
   11      C       4.1197623893     0.8572021076     0.1826667664
   12      C       4.5392470638    -0.6434029730     0.4891117898
   13      C       3.5504271067    -1.7244152867    -0.0806367045
   14      O       3.8423519814    -2.6864163820    -0.8221239433
   15      O      -3.7994893058     2.6781219318    -0.4325820669
   16      O       2.2312726491    -1.4549279150     0.4072469142
   17      O       2.5081931061     0.4690540327    -1.7310634368
   18      C       1.2756819366    -2.4382308107    -0.1604855597
   19      C       5.3665934184     1.3366834552    -0.6810185150
   20      C       6.5878994675     1.5520772431     0.2990672471
   21      C       7.0068972677     0.0633631904     0.5950373831
   22      C       5.9361098779    -0.7271197206    -0.2533212061
   23      O       5.7386785310     0.1280718625    -1.4471117476
   24      H       4.0118319458     1.4437231206     1.1115323888
   25      H       4.6401110695    -0.8019016254     1.5787054831
   26      H       5.1547928134     2.1805923557    -1.3659384165
   27      H       7.3940548492     2.1071350634    -0.2064780648
   28      H       6.2955143494     2.1014750372     1.2081360791
   29      H       8.0234743559    -0.1497433380     0.2282711694
   30      H       6.9567802014    -0.1880443918     1.6664680805
   31      H       6.2161140313    -1.7544447142    -0.5577933913
   32      O      -1.4948136966    -1.5417972880     0.5896448138
   33      C      -3.1776034579     3.8168011503     0.2791335605
   34      C      -5.6906759368    -0.3722926160     0.4885266496
   35      C      -6.5711664538    -1.2272787852    -0.5058625648
   36      C      -5.5937290685    -2.4185117000    -0.8293797177
   37      C      -4.3416536698    -2.0327541024     0.0499898281
   38      O      -4.9352083003    -1.3945769312     1.2477691785
   39      H      -4.9677524272     0.7886317376    -1.2962349965
   40      H      -3.4586221793    -0.9897949262    -1.7342565504
   41      H      -2.1334050114     3.5879157197     0.5748603888
   42      H      -6.2552473609     0.2822807407     1.1803216274
   43      H      -7.4844500870    -1.5811289017    -0.0017473204
   44      H      -6.8602345188    -0.6570814968    -1.4030840787
   45      H      -6.0104382374    -3.3840088447    -0.5012776752
   46      H      -5.3450790086    -2.4873056034    -1.9005415853
   47      H      -3.6781795907    -2.8695250198     0.3438791097
   48      H      -3.7471535590     4.0918723784     1.1901532404
   49      H      -3.1809155534     4.6631575622    -0.4321014325
   50      H       0.2667906588    -2.1432785866     0.2029166429
   51      H       1.5136654130    -3.4675182135     0.1750849918
   52      H       1.2983487688    -2.4162185053    -1.2686515202
   53      H       0.6031885642     1.2353338321    -1.4573597185
   54      H       0.1823366367     2.7905495624    -0.6112029997
   55      H       0.0342932607     0.0048639115     0.7972866398
   56      H      -0.6867967917     1.5540025061     1.3816766083
 ----------------------------------------------------------------

   11   -1510.2903998023      1.79E-09 Convergence criterion met
 Total energy in the final basis set = -1510.29039980
 Final energy is   -1510.29039980229
 **  OPTIMIZATION CONVERGED  **

                    Orbital Energies (a.u.)
 --------------------------------------------------------------

 Alpha MOs
 -- Occupied --
-18.950 -18.933 -18.931 -18.927 -18.896 -18.890 -18.887 -18.877
-18.871 -18.868 -10.117 -10.101 -10.098 -10.094 -10.075 -10.071
-10.064 -10.062 -10.061 -10.060 -10.056 -10.046 -10.043 -10.039
-10.038 -10.036 -10.023 -10.022 -10.020 -10.019  -1.028  -1.014
 -1.006  -1.003  -0.973  -0.969  -0.953  -0.938  -0.932  -0.930
 -0.767  -0.763  -0.731  -0.723  -0.712  -0.707  -0.698  -0.664
 -0.652  -0.619  -0.599  -0.582  -0.549  -0.544  -0.540  -0.536
 -0.516  -0.508  -0.486  -0.477  -0.462  -0.460  -0.457  -0.451
 -0.440  -0.433  -0.430  -0.417  -0.413  -0.409  -0.404  -0.401
 -0.401  -0.387  -0.373  -0.368  -0.363  -0.360  -0.355  -0.351
 -0.346  -0.337  -0.334  -0.333  -0.330  -0.328  -0.326  -0.314
 -0.309  -0.309  -0.304  -0.303  -0.294  -0.289  -0.282  -0.276
 -0.271  -0.258  -0.253  -0.251  -0.246  -0.237  -0.233  -0.192
 -0.176  -0.174  -0.173  -0.169  -0.160  -0.149  -0.148  -0.146
 -0.143

          Ground-State Mulliken Net Atomic Charges

     Atom                 Charge (a.u.)
  ----------------------------------------
      1 O                    -0.220546
      2 C                     0.212560
      3 C                    -0.079908
      4 C                    -0.077359
      5 C                     0.223297
      6 O                    -0.169239
      7 C                    -0.054462
      8 C                    -0.055499
      9 O                    -0.172907
     10 C                     0.213874
     11 C                    -0.079074
     12 C                    -0.078671
     13 C                     0.211751
     14 O                    -0.209208
     15 O                    -0.170157
     16 O                    -0.177901
     17 O                    -0.213459
     18 C                    -0.143938
     19 C                     0.025942
     20 C                    -0.143746
     21 C                    -0.144186
     22 C                     0.024569
     23 O                    -0.186491
     24 H                     0.086946
     25 H                     0.084725
     26 H                     0.082896
     27 H                     0.078024
     28 H                     0.073401
     29 H                     0.078406
     30 H                     0.073249
     31 H                     0.091634
     32 O                    -0.209361
     33 C                    -0.128231
     34 C                     0.025518
     35 C                    -0.143773
     36 C                    -0.144198
     37 C                     0.024323
     38 O                    -0.186999
     39 H                     0.086540
     40 H                     0.087882
     41 H                     0.083422
     42 H                     0.084964
     43 H                     0.078734
     44 H                     0.073946
     45 H                     0.079258
     46 H                     0.073620
     47 H                     0.090818
     48 H                     0.089423
     49 H                     0.089087
     50 H                     0.106117
     51 H                     0.083391
     52 H                     0.085718
     53 H                     0.103981
     54 H                     0.084396
     55 H                     0.106343
     56 H                     0.090558
  ----------------------------------------
  Sum of atomic charges =     0.000000

                    Cartesian Multipole Moments
 -----------------------------------------------------------------
    Charge (ESU x 10^10)
                -0.0000
    Dipole Moment (Debye)
         X      -1.2965      Y       2.1473      Z       0.1239
       Tot       2.5115
    Quadrupole Moments (Debye-Ang)
        XX    -147.0621     XY       6.7926     YY    -154.7874
        XZ      21.4136     YZ       0.5681     ZZ    -168.8436

 Total job time:  96.46s(wall), 4595.49s(cpu)
        *  Thank you very much for using Q-Chem.  Have a nice day.  *
