 Q-Chem 5.0, Q-Chem, Inc., Pleasanton, CA (2017)
 Q-Chem 5.0.1 for Intel X86 EM64T Linux

User input:
--------------------------------------------------------------
$molecule
0  1
O -4.4927994378 1.9202388196 1.1850950118
C -4.1317658714 1.5887056193 0.0353473145
C -4.4723673933 0.268765424 -0.7379834252
C -3.3734683467 -0.8728565883 -0.5843130818
C -2.2434228968 -0.5342686951 0.4528378006
O -1.4519302893 0.5346015173 -0.0714261342
C -0.3545144328 0.8585568499 0.8719885691
C 0.4808990812 2.0370283573 0.2542762689
O 1.8812043392 1.8987612638 0.7236764498
C 2.5783431701 0.972881717 -0.1263283783
C 4.0516781382 0.8593991718 0.3763587884
C 4.5084782341 -0.6416539791 0.6106408352
C 3.4033700783 -1.7484116129 0.4371754775
O 3.5626587838 -2.8594398209 -0.1119308528
O -3.3491095208 2.4207672793 -0.8298528959
O 2.1904470878 -1.3613594519 1.1033396059
O 2.0724756338 0.4253076785 -1.1296558256
C 1.1883426294 -2.4504761513 0.9744374823
C 5.0606850484 1.2863824497 -0.7790941644
C 6.5025305834 1.4511161052 -0.1540495927
C 6.9340989758 -0.0523782743 0.0205290158
C 5.6404743086 -0.7982805861 -0.48789905
O 5.1648497493 0.0594957997 -1.5992479274
H 4.1673354702 1.473318338 1.2861458976
H 4.9259933945 -0.7561838762 1.6289333163
H 4.7137259649 2.1374778054 -1.3966174926
H 7.1663285035 1.986192194 -0.8514768036
H 6.4769678318 2.0003849357 0.8006471236
H 7.7961656937 -0.3008460066 -0.6188877915
H 7.1822053308 -0.307201196 1.0632164748
H 5.7810596921 -1.8413737271 -0.8329523828
O -2.0027265588 -1.11858892 1.5321980079
C -2.9619196967 3.6615118853 -0.1216331129
C -5.7512704338 -0.4705981878 -0.156306034
C -6.2831290032 -1.4618252902 -1.263881137
C -5.1877943559 -2.592057283 -1.2060439453
C -4.2625787161 -2.0647475075 -0.0403419393
O -5.2010822606 -1.3772501544 0.8771173195
H -4.6014369054 0.527413221 -1.8041268094
H -2.9013122427 -1.0981821072 -1.5577999897
H -2.4263735544 3.4412772456 0.82402541
H -6.5075544453 0.2053669664 0.2875461506
H -7.2762080818 -1.8495822348 -0.9860294666
H -6.3529537016 -0.9848956818 -2.2544990911
H -5.6253513678 -3.5673195988 -0.9404017423
H -4.637129496 -2.6984722082 -2.1544946306
H -3.6881544863 -2.837319594 0.5065123764
H -3.8448747975 4.2905436928 0.1146810713
H -2.2920675383 4.2097105926 -0.8092578524
H 0.2909881264 -2.1208719507 1.532952368
H 1.567815824 -3.400947995 1.4003177529
H 0.9179036973 -2.621939847 -0.0872934727
H 0.4265013364 1.9761102008 -0.8539242908
H 0.1235500618 3.0255341373 0.601673257
H 0.3232620186 -0.0112221003 1.0037508651
H -0.7606109941 1.1320642195 1.86921662
$end

$rem
JOBTYPE                   OPT
METHOD                    B3LYP
DFT_D                     d3_op
BASIS                     STO-3G
GEOM_OPT_MAX_CYCLES       100
GEOM_OPT_TOL_GRADIENT     300
GEOM_OPT_TOL_DISPLACEMENT 1200
GEOM_OPT_TOL_ENERGY       100
SYMMETRY                  False
THRESH                    12
SCF_CONVERGENCE           8
MAX_SUB_FILE_NUM          128
MEM_STATIC                400
MEM_TOTAL                 4000
$end
--------------------------------------------------------------

   16   -1510.2838802386      5.70E-09 Convergence criterion met
 Total energy in the final basis set = -1510.28388024
   15   -1510.2801751997      2.44E-09 Convergence criterion met
 Total energy in the final basis set = -1510.28017520
   14   -1510.2846284954      5.90E-09 Convergence criterion met
 Total energy in the final basis set = -1510.28462850
   14   -1510.2850835793      7.20E-09 Convergence criterion met
 Total energy in the final basis set = -1510.28508358
   13   -1510.2863474998      6.99E-09 Convergence criterion met
 Total energy in the final basis set = -1510.28634750
   14   -1510.2875158934      4.00E-09 Convergence criterion met
 Total energy in the final basis set = -1510.28751589
   15   -1510.2865891034      1.35E-09 Convergence criterion met
 Total energy in the final basis set = -1510.28658910
   14   -1510.2886734323      4.04E-09 Convergence criterion met
   11   -1510.2903781728      5.77E-09 Convergence criterion met
 Total energy in the final basis set = -1510.29037817
   11   -1510.2903729098      3.60E-09 Convergence criterion met
 Total energy in the final basis set = -1510.29037291
    9   -1510.2903789674      6.20E-09 Convergence criterion met
 Total energy in the final basis set = -1510.29037897
    9   -1510.2903808801      7.39E-09 Convergence criterion met
 Total energy in the final basis set = -1510.29038088
   10   -1510.2903835576      9.15E-09 Convergence criterion met
 Total energy in the final basis set = -1510.29038356
   11   -1510.2903806821      2.02E-09 Convergence criterion met
 Total energy in the final basis set = -1510.29038068

             Standard Nuclear Orientation (Angstroms)
    I     Atom           X                Y                Z
 ----------------------------------------------------------------
    1      O      -3.6618078281     1.6500331454     1.5400001658
    2      C      -3.9400028765     1.5975492327     0.3226118821
    3      C      -4.5610243596     0.3964005114    -0.4752229330
    4      C      -3.5597914068    -0.8144398265    -0.7111777961
    5      C      -2.1545296140    -0.6247803526    -0.0405228760
    6      O      -1.6883572047     0.6953716527    -0.3230850809
    7      C      -0.4375467687     0.9976759572     0.4180778284
    8      C       0.5968477146     1.6398109250    -0.5681164613
    9      O       1.9184039818     1.6668519364     0.1031505276
   10      C       2.8373854834     0.8024868531    -0.5873186533
   11      C       4.1547325071     0.7297086541     0.2491645951
   12      C       4.5345565681    -0.7523605883     0.6740209409
   13      C       3.5330299850    -1.8483590555     0.1581827665
   14      O       3.8158359343    -2.8704906425    -0.5019247236
   15      O      -3.8021461417     2.7011727689    -0.5844290971
   16      O       2.2098507565    -1.5052509939     0.5843680490
   17      O       2.5869417335     0.2432523830    -1.6778127237
   18      C       1.2386478235    -2.4934983472     0.0536213399
   19      C       5.4314704973     1.1186341665    -0.6162502953
   20      C       6.6342234962     1.3793438328     0.3756853346
   21      C       7.0147098237    -0.0917902368     0.7878326350
   22      C       5.9456168024    -0.9201019916    -0.0256916890
   23      O       5.7938163244    -0.1505153866    -1.2832816463
   24      H       4.0391577915     1.3856932521     1.1293724886
   25      H       4.6059062696    -0.8340416164     1.7743834591
   26      H       5.2543892447     1.9147258626    -1.3651351529
   27      H       7.4634839897     1.8806249464    -0.1483665997
   28      H       6.3326067260     1.9982767374     1.2356789491
   29      H       8.0341295465    -0.3518821184     0.4611764948
   30      H       6.9363884213    -0.2637559305     1.8733133997
   31      H       6.2088122359    -1.9725494676    -0.2481008019
   32      O      -1.5261624917    -1.4764388793     0.6286148581
   33      C      -3.1926951713     3.8541396202     0.1151238438
   34      C      -5.7046449633    -0.3343100052     0.3536411777
   35      C      -6.5563578528    -1.2135146900    -0.6449401952
   36      C      -5.5681540085    -2.4085060518    -0.9160794079
   37      C      -4.3414598951    -2.0011732964    -0.0108579172
   38      O      -4.9684578704    -1.3376724965     1.1558700358
   39      H      -4.9361318669     0.7861676558    -1.4375882448
   40      H      -3.4078123536    -0.9957928921    -1.7917531967
   41      H      -2.1456331151     3.6393144089     0.4115377328
   42      H      -6.2891191630     0.3343060322     1.0148531443
   43      H      -7.4819907880    -1.5587649335    -0.1576608539
   44      H      -6.8229367059    -0.6635288562    -1.5616101911
   45      H      -5.9918255004    -3.3679680022    -0.5793560177
   46      H      -5.2896306214    -2.4993247095    -1.9782058862
   47      H      -3.6855700057    -2.8301125559     0.3198660906
   48      H      -3.7643681483     4.1315160555     1.0240234764
   49      H      -3.2057015925     4.6931940217    -0.6045980777
   50      H       0.2288780735    -2.1351232835     0.3514799221
   51      H       1.4221499670    -3.5017570263     0.4761377589
   52      H       1.3053983353    -2.5587628544    -1.0510296951
   53      H       0.6868758830     1.0292753992    -1.4941872288
   54      H       0.3062347770     2.6783445972    -0.8286967051
   55      H      -0.0253707214     0.0623048151     0.8513694407
   56      H      -0.6873740620     1.6964475431     1.2448869147
 ----------------------------------------------------------------

    9   -1510.2903814637      4.82E-09 Convergence criterion met
 Total energy in the final basis set = -1510.29038146
 Final energy is   -1510.29038146373
 **  OPTIMIZATION CONVERGED  **

                    Orbital Energies (a.u.)
 --------------------------------------------------------------

 Alpha MOs
 -- Occupied --
-18.950 -18.933 -18.931 -18.926 -18.896 -18.890 -18.886 -18.876
-18.871 -18.868 -10.117 -10.101 -10.098 -10.094 -10.075 -10.070
-10.064 -10.062 -10.062 -10.060 -10.056 -10.046 -10.043 -10.039
-10.038 -10.036 -10.023 -10.022 -10.020 -10.019  -1.028  -1.014
 -1.007  -1.003  -0.973  -0.969  -0.953  -0.937  -0.933  -0.930
 -0.768  -0.762  -0.731  -0.723  -0.712  -0.707  -0.698  -0.664
 -0.651  -0.619  -0.599  -0.582  -0.549  -0.544  -0.540  -0.536
 -0.516  -0.508  -0.486  -0.477  -0.463  -0.460  -0.457  -0.450
 -0.440  -0.433  -0.429  -0.417  -0.413  -0.410  -0.404  -0.401
 -0.400  -0.386  -0.373  -0.368  -0.363  -0.360  -0.355  -0.351
 -0.346  -0.337  -0.335  -0.333  -0.330  -0.328  -0.325  -0.314
 -0.309  -0.309  -0.304  -0.303  -0.294  -0.289  -0.282  -0.276
 -0.271  -0.258  -0.253  -0.250  -0.245  -0.237  -0.233  -0.192
 -0.175  -0.174  -0.173  -0.169  -0.160  -0.150  -0.148  -0.146
 -0.143

          Ground-State Mulliken Net Atomic Charges

     Atom                 Charge (a.u.)
  ----------------------------------------
      1 O                    -0.220002
      2 C                     0.212209
      3 C                    -0.079813
      4 C                    -0.077282
      5 C                     0.223399
      6 O                    -0.169439
      7 C                    -0.054530
      8 C                    -0.055854
      9 O                    -0.172867
     10 C                     0.214138
     11 C                    -0.078953
     12 C                    -0.078614
     13 C                     0.211779
     14 O                    -0.209243
     15 O                    -0.169936
     16 O                    -0.177660
     17 O                    -0.213997
     18 C                    -0.144050
     19 C                     0.025811
     20 C                    -0.143744
     21 C                    -0.144121
     22 C                     0.024461
     23 O                    -0.186454
     24 H                     0.086827
     25 H                     0.084730
     26 H                     0.082886
     27 H                     0.077973
     28 H                     0.073362
     29 H                     0.078377
     30 H                     0.073225
     31 H                     0.091619
     32 O                    -0.209230
     33 C                    -0.128307
     34 C                     0.025520
     35 C                    -0.143717
     36 C                    -0.144241
     37 C                     0.024375
     38 O                    -0.186821
     39 H                     0.086625
     40 H                     0.087939
     41 H                     0.083563
     42 H                     0.084940
     43 H                     0.078767
     44 H                     0.073949
     45 H                     0.079303
     46 H                     0.073651
     47 H                     0.090845
     48 H                     0.089817
     49 H                     0.089194
     50 H                     0.106382
     51 H                     0.083120
     52 H                     0.085718
     53 H                     0.103700
     54 H                     0.084166
     55 H                     0.106517
     56 H                     0.089985
  ----------------------------------------
  Sum of atomic charges =     0.000000

                    Cartesian Multipole Moments
 -----------------------------------------------------------------
    Charge (ESU x 10^10)
                -0.0000
    Dipole Moment (Debye)
         X      -1.3021      Y       2.2922      Z      -0.0576
       Tot       2.6368
    Quadrupole Moments (Debye-Ang)
        XX    -147.7731     XY       7.8048     YY    -155.4247
        XZ      21.3716     YZ      -0.0894     ZZ    -167.4387

 Total job time:  120.01s(wall), 5715.85s(cpu)
        *  Thank you very much for using Q-Chem.  Have a nice day.  *
