 Q-Chem 5.0, Q-Chem, Inc., Pleasanton, CA (2017)
 Q-Chem 5.0.1 for Intel X86 EM64T Linux

User input:
--------------------------------------------------------------
$molecule
0  1
O -3.94934 -3.66094 2.70899
C -3.26408 -4.56952 2.26188
C -3.36658 -6.02376 2.66595
C -2.42296 -6.51246 3.77708
C -1.60663 -5.45266 4.48314
O -0.67879 -4.93379 3.62564
C 0.15531 -3.94091 4.23203
C 1.16023 -3.40707 3.21651
O 2.36353 -2.99951 3.88647
C 3.257 -3.98927 4.13391
C 4.5065 -3.49514 4.82329
C 4.8886 -4.26146 6.09805
C 4.20008 -5.59665 6.29781
O 4.73264 -6.61251 6.72086
O -2.24509 -4.2631 1.41701
O 2.84015 -5.55403 6.34563
O 3.14294 -5.1355 3.71183
C 2.03308 -6.63393 6.64326
C 5.78785 -3.68572 3.98631
C 6.84201 -2.67436 4.43192
C 7.18692 -3.21452 5.80569
C 6.37848 -4.51899 5.79862
O 6.34097 -4.8959 4.4433
H 4.38211 -2.40563 5.02587
H 4.70185 -3.66077 7.01511
H 5.61424 -3.60812 2.89065
H 7.72063 -2.81645 3.7621
H 6.53596 -1.60641 4.40659
H 8.28087 -3.41434 5.83831
H 6.88891 -2.56738 6.65906
H 6.83484 -5.25408 6.49707
O -1.72732 -5.13397 5.66179
C -1.96059 -2.9888 0.97319
C -4.72951 -6.32656 3.33506
C -5.05506 -7.81462 3.21436
C -4.06294 -8.39785 4.19516
C -3.44748 -7.11296 4.75954
O -4.4955 -6.17929 4.71284
H -3.32043 -6.62469 1.73008
H -1.70683 -7.28493 3.41833
H -1.72744 -2.32674 1.83426
H -5.56803 -5.72753 2.91605
H -6.08145 -7.95856 3.62233
H -5.00932 -8.23189 2.18549
H -4.6278 -8.94127 4.98507
H -3.29159 -9.06442 3.75213
H -3.01242 -7.31269 5.76362
H -2.82489 -2.57891 0.40821
H -1.07832 -3.02605 0.3019
H 0.9706 -6.31777 6.61315
H 2.26035 -7.01444 7.6619
H 2.18691 -7.44164 5.89621
H 1.392 -4.18011 2.44836
H 0.70972 -2.56273 2.65425
H 0.72353 -4.45707 5.03532
H -0.41209 -3.09908 4.68917
$end

$opt
CONSTRAINT
tors           1           2           3           4     -94.067
tors           3           4           5           6     -68.466
tors           4           5           6           7    -178.711
tors           5           6           7           8    -179.856
tors           6           7           8           9    -150.105
tors           7           8           9          10     +83.957
tors           8           9          10          11    +179.270
tors           9          10          11          12    +128.103
tors          11          12          13          14    +139.493
ENDCONSTRAINT
$end

$rem
JOBTYPE                   OPT
METHOD                    B3LYP
DFT_D                     d3_op
BASIS                     STO-3G
GEOM_OPT_MAX_CYCLES       100
GEOM_OPT_TOL_GRADIENT     300
GEOM_OPT_TOL_DISPLACEMENT 1200
GEOM_OPT_TOL_ENERGY       100
SYMMETRY                  False
THRESH                    12
SCF_CONVERGENCE           8
MAX_SUB_FILE_NUM          128
MEM_STATIC                400
MEM_TOTAL                 4000
$end
--------------------------------------------------------------

   15   -1510.1538773001      8.42E-09 Convergence criterion met
 Total energy in the final basis set = -1510.15387730
   14   -1510.2225240823      6.72E-09 Convergence criterion met
 Total energy in the final basis set = -1510.22252408
   14   -1510.2590469099      6.80E-09 Convergence criterion met
 Total energy in the final basis set = -1510.25904691
   13   -1510.2745327086      9.84E-09 Convergence criterion met
 Total energy in the final basis set = -1510.27453271
   14   -1510.2793842037      4.92E-09 Convergence criterion met
 Total energy in the final basis set = -1510.27938420
   13   -1510.2806193872      5.62E-09 Convergence criterion met
 Total energy in the final basis set = -1510.28061939
   13   -1510.2815782277      5.42E-09 Convergence criterion met
 Total energy in the final basis set = -1510.28157823
   12   -1510.2823108471      9.79E-09 Convergence criterion met
   11   -1510.2837153470      6.79E-09 Convergence criterion met
 Total energy in the final basis set = -1510.28371535
   11   -1510.2837712511      5.22E-09 Convergence criterion met
 Total energy in the final basis set = -1510.28377125
   11   -1510.2838216970      4.32E-09 Convergence criterion met
 Total energy in the final basis set = -1510.28382170
   11   -1510.2838405474      3.52E-09 Convergence criterion met
 Total energy in the final basis set = -1510.28384055
   11   -1510.2838436398      2.81E-09 Convergence criterion met
 Total energy in the final basis set = -1510.28384364
   10   -1510.2838402890      7.97E-09 Convergence criterion met
 Total energy in the final basis set = -1510.28384029

             Standard Nuclear Orientation (Angstroms)
    I     Atom           X                Y                Z
 ----------------------------------------------------------------
    1      O      -4.4927994378     1.9202388196     1.1850950118
    2      C      -4.1317658714     1.5887056193     0.0353473145
    3      C      -4.4723673933     0.2687654240    -0.7379834252
    4      C      -3.3734683467    -0.8728565883    -0.5843130818
    5      C      -2.2434228968    -0.5342686951     0.4528378006
    6      O      -1.4519302893     0.5346015173    -0.0714261342
    7      C      -0.3545144328     0.8585568499     0.8719885691
    8      C       0.4808990812     2.0370283573     0.2542762689
    9      O       1.8812043392     1.8987612638     0.7236764498
   10      C       2.5783431701     0.9728817170    -0.1263283783
   11      C       4.0516781382     0.8593991718     0.3763587884
   12      C       4.5084782341    -0.6416539791     0.6106408352
   13      C       3.4033700783    -1.7484116129     0.4371754775
   14      O       3.5626587838    -2.8594398209    -0.1119308528
   15      O      -3.3491095208     2.4207672793    -0.8298528959
   16      O       2.1904470878    -1.3613594519     1.1033396059
   17      O       2.0724756338     0.4253076785    -1.1296558256
   18      C       1.1883426294    -2.4504761513     0.9744374823
   19      C       5.0606850484     1.2863824497    -0.7790941644
   20      C       6.5025305834     1.4511161052    -0.1540495927
   21      C       6.9340989758    -0.0523782743     0.0205290158
   22      C       5.6404743086    -0.7982805861    -0.4878990500
   23      O       5.1648497493     0.0594957997    -1.5992479274
   24      H       4.1673354702     1.4733183380     1.2861458976
   25      H       4.9259933945    -0.7561838762     1.6289333163
   26      H       4.7137259649     2.1374778054    -1.3966174926
   27      H       7.1663285035     1.9861921940    -0.8514768036
   28      H       6.4769678318     2.0003849357     0.8006471236
   29      H       7.7961656937    -0.3008460066    -0.6188877915
   30      H       7.1822053308    -0.3072011960     1.0632164748
   31      H       5.7810596921    -1.8413737271    -0.8329523828
   32      O      -2.0027265588    -1.1185889200     1.5321980079
   33      C      -2.9619196967     3.6615118853    -0.1216331129
   34      C      -5.7512704338    -0.4705981878    -0.1563060340
   35      C      -6.2831290032    -1.4618252902    -1.2638811370
   36      C      -5.1877943559    -2.5920572830    -1.2060439453
   37      C      -4.2625787161    -2.0647475075    -0.0403419393
   38      O      -5.2010822606    -1.3772501544     0.8771173195
   39      H      -4.6014369054     0.5274132210    -1.8041268094
   40      H      -2.9013122427    -1.0981821072    -1.5577999897
   41      H      -2.4263735544     3.4412772456     0.8240254100
   42      H      -6.5075544453     0.2053669664     0.2875461506
   43      H      -7.2762080818    -1.8495822348    -0.9860294666
   44      H      -6.3529537016    -0.9848956818    -2.2544990911
   45      H      -5.6253513678    -3.5673195988    -0.9404017423
   46      H      -4.6371294960    -2.6984722082    -2.1544946306
   47      H      -3.6881544863    -2.8373195940     0.5065123764
   48      H      -3.8448747975     4.2905436928     0.1146810713
   49      H      -2.2920675383     4.2097105926    -0.8092578524
   50      H       0.2909881264    -2.1208719507     1.5329523680
   51      H       1.5678158240    -3.4009479950     1.4003177529
   52      H       0.9179036973    -2.6219398470    -0.0872934727
   53      H       0.4265013364     1.9761102008    -0.8539242908
   54      H       0.1235500618     3.0255341373     0.6016732570
   55      H       0.3232620186    -0.0112221003     1.0037508651
   56      H      -0.7606109941     1.1320642195     1.8692166200
 ----------------------------------------------------------------

    9   -1510.2838394992      6.29E-09 Convergence criterion met
 Total energy in the final basis set = -1510.28383950
 Final energy is   -1510.28383949924
 **  OPTIMIZATION CONVERGED  **

                    Orbital Energies (a.u.)
 --------------------------------------------------------------

 Alpha MOs
 -- Occupied --
-18.937 -18.936 -18.934 -18.934 -18.889 -18.885 -18.878 -18.878
-18.874 -18.873 -10.102 -10.101 -10.100 -10.098 -10.073 -10.069
-10.065 -10.062 -10.061 -10.058 -10.058 -10.057 -10.040 -10.039
-10.039 -10.037 -10.022 -10.021 -10.020 -10.019  -1.018  -1.015
 -1.009  -1.008  -0.971  -0.968  -0.941  -0.938  -0.935  -0.934
 -0.765  -0.763  -0.728  -0.723  -0.712  -0.705  -0.697  -0.664
 -0.662  -0.618  -0.598  -0.583  -0.547  -0.546  -0.539  -0.537
 -0.514  -0.509  -0.485  -0.472  -0.464  -0.456  -0.454  -0.450
 -0.444  -0.432  -0.429  -0.415  -0.414  -0.411  -0.408  -0.400
 -0.395  -0.381  -0.373  -0.369  -0.364  -0.358  -0.354  -0.349
 -0.347  -0.341  -0.338  -0.332  -0.332  -0.329  -0.328  -0.312
 -0.310  -0.306  -0.305  -0.297  -0.293  -0.286  -0.281  -0.275
 -0.274  -0.258  -0.256  -0.253  -0.249  -0.235  -0.233  -0.183
 -0.181  -0.176  -0.173  -0.159  -0.159  -0.152  -0.149  -0.145
 -0.143

          Ground-State Mulliken Net Atomic Charges

     Atom                 Charge (a.u.)
  ----------------------------------------
      1 O                    -0.212033
      2 C                     0.206965
      3 C                    -0.079095
      4 C                    -0.077349
      5 C                     0.208234
      6 O                    -0.170639
      7 C                    -0.052948
      8 C                    -0.050934
      9 O                    -0.172222
     10 C                     0.211133
     11 C                    -0.079744
     12 C                    -0.078345
     13 C                     0.213024
     14 O                    -0.209248
     15 O                    -0.166204
     16 O                    -0.174046
     17 O                    -0.214007
     18 C                    -0.133020
     19 C                     0.026263
     20 C                    -0.144202
     21 C                    -0.143621
     22 C                     0.024206
     23 O                    -0.186326
     24 H                     0.087074
     25 H                     0.084922
     26 H                     0.082832
     27 H                     0.078470
     28 H                     0.073811
     29 H                     0.078858
     30 H                     0.073477
     31 H                     0.092245
     32 O                    -0.213098
     33 C                    -0.127748
     34 C                     0.024787
     35 C                    -0.143388
     36 C                    -0.144662
     37 C                     0.024591
     38 O                    -0.186890
     39 H                     0.086042
     40 H                     0.087394
     41 H                     0.086387
     42 H                     0.086699
     43 H                     0.078149
     44 H                     0.073142
     45 H                     0.078333
     46 H                     0.073289
     47 H                     0.088312
     48 H                     0.088002
     49 H                     0.089307
     50 H                     0.098590
     51 H                     0.090265
     52 H                     0.091161
     53 H                     0.101942
     54 H                     0.087032
     55 H                     0.097710
     56 H                     0.087117
  ----------------------------------------
  Sum of atomic charges =     0.000000

                    Cartesian Multipole Moments
 -----------------------------------------------------------------
    Charge (ESU x 10^10)
                 0.0000
    Dipole Moment (Debye)
         X       0.9213      Y       1.7800      Z      -0.4233
       Tot       2.0486
    Quadrupole Moments (Debye-Ang)
        XX    -150.0129     XY       6.2235     YY    -153.2611
        XZ      21.4069     YZ      -0.1992     ZZ    -167.5730

 Total job time:  52.71s(wall), 2509.12s(cpu)
        *  Thank you very much for using Q-Chem.  Have a nice day.  *
