 Q-Chem 5.0, Q-Chem, Inc., Pleasanton, CA (2017)
 Q-Chem 5.0.1 for Intel X86 EM64T Linux

User input:
--------------------------------------------------------------
$molecule
0  1
O -4.1992276544 2.044833484 1.1361009477
C -3.9001019248 1.6660163146 -0.0168490717
C -4.3522456658 0.3530552408 -0.7444968206
C -3.3401820541 -0.8652355568 -0.6126250936
C -2.1777784065 -0.6523286089 0.4233728147
O -1.4382212415 0.5170711605 0.0766798737
C -0.3223684872 0.6966953591 1.039865114
C 0.4586297008 2.0112400241 0.6878487606
O 1.8723040972 1.7624991811 1.0681776155
C 2.5330852973 1.0727811128 -0.006230436
C 4.0181213051 0.8400012397 0.4085679626
C 4.4125445656 -0.6927753121 0.5447229733
C 3.3013007059 -1.7941690246 0.3513190239
O 3.5213611846 -2.9406936171 -0.0968525301
O -3.1438854619 2.4505706375 -0.9482753093
O 2.0220393904 -1.3969790662 0.8729378795
O 1.9913409522 0.7917037827 -1.0968730446
C 1.0776805545 -2.5438231808 0.7690217434
C 5.0005277988 1.2860098788 -0.7612505923
C 6.4664634289 1.3727736481 -0.1783809323
C 6.8463370312 -0.1514737457 -0.0818655635
C 5.5146204722 -0.8280151903 -0.5898543675
O 5.0376847735 0.0983192557 -1.6426188761
H 4.2101414892 1.3852229036 1.3488193075
H 4.8563913436 -0.8752522829 1.5422818397
H 4.6611877593 2.1761926666 -1.3254071205
H 7.1275197689 1.9127938561 -0.8746161892
H 6.4917634146 1.8810060431 0.7987528598
H 7.6824751168 -0.4013578101 -0.7542537428
H 7.1108481696 -0.4624067678 0.9414061085
H 5.6125986546 -1.8576579606 -0.9865926626
O -1.8594231425 -1.4238219491 1.3580762801
C -2.6979266406 3.7052950539 -0.3026616543
C -5.6677468379 -0.2835566815 -0.1224910226
C -6.3146528972 -1.216835504 -1.2192174917
C -5.3053945969 -2.4254989914 -1.2160560742
C -4.3093403998 -1.9932356479 -0.0689717913
O -5.1628915643 -1.244794979 0.8840970339
H -4.4949710788 0.6025136947 -1.8110888837
H -2.8921164303 -1.1167697368 -1.5916672288
H -2.1545304159 3.5073187957 0.6427767651
H -6.3512621789 0.4478243316 0.3504310081
H -7.32255944 -1.5337148893 -0.9066909362
H -6.386971013 -0.722836349 -2.2011943986
H -5.8058416617 -3.3718925006 -0.9572855601
H -4.7915057476 -2.5504704351 -2.1826895929
H -3.7820042702 -2.8162769723 0.4514706172
H -3.5537919609 4.3757978981 -0.08059328
H -2.0212815544 4.1984451387 -1.0244673549
H 0.1016690118 -2.191845531 1.1648831202
H 1.4369380534 -3.4090690051 1.3607991853
H 0.956229272 -2.8643237105 -0.2850854488
H 0.3694922199 2.2178184912 -0.4000783819
H 0.1139282822 2.8810937575 1.2791078026
H 0.4053193073 -0.1393978892 0.9635607135
H -0.7095520557 0.7264086273 2.080337843
$end

$rem
JOBTYPE                   OPT
METHOD                    B3LYP
DFT_D                     d3_op
BASIS                     STO-3G
GEOM_OPT_MAX_CYCLES       100
GEOM_OPT_TOL_GRADIENT     300
GEOM_OPT_TOL_DISPLACEMENT 1200
GEOM_OPT_TOL_ENERGY       100
SYMMETRY                  False
THRESH                    12
SCF_CONVERGENCE           8
MAX_SUB_FILE_NUM          128
MEM_STATIC                400
MEM_TOTAL                 4000
$end
--------------------------------------------------------------

   16   -1510.2833375294      5.96E-09 Convergence criterion met
 Total energy in the final basis set = -1510.28333753
   15   -1510.2492948521      5.56E-09 Convergence criterion met
 Total energy in the final basis set = -1510.24929485
   15   -1510.2847612244      3.74E-09 Convergence criterion met
 Total energy in the final basis set = -1510.28476122
   14   -1510.2850305834      4.16E-09 Convergence criterion met
 Total energy in the final basis set = -1510.28503058
   13   -1510.2860189931      6.47E-09 Convergence criterion met
 Total energy in the final basis set = -1510.28601899
   13   -1510.2871290385      6.16E-09 Convergence criterion met
 Total energy in the final basis set = -1510.28712904
   14   -1510.2877161762      4.27E-09 Convergence criterion met
 Total energy in the final basis set = -1510.28771618
   14   -1510.2875469777      2.77E-09 Convergence criterion met
   13   -1510.2907214530      6.09E-09 Convergence criterion met
 Total energy in the final basis set = -1510.29072145
   13   -1510.2906896710      2.54E-09 Convergence criterion met
 Total energy in the final basis set = -1510.29068967
   14   -1510.2904435170      3.63E-09 Convergence criterion met
 Total energy in the final basis set = -1510.29044352
   12   -1510.2907468007      8.84E-09 Convergence criterion met
 Total energy in the final basis set = -1510.29074680
   12   -1510.2907695400      8.11E-09 Convergence criterion met
 Total energy in the final basis set = -1510.29076954
   11   -1510.2907740318      4.65E-09 Convergence criterion met
 Total energy in the final basis set = -1510.29077403

             Standard Nuclear Orientation (Angstroms)
    I     Atom           X                Y                Z
 ----------------------------------------------------------------
    1      O      -3.5949329394     1.2826618699     1.7909971044
    2      C      -4.0427734228     1.5508269733     0.6551213141
    3      C      -4.6188546644     0.5524640620    -0.4075861041
    4      C      -3.5816813744    -0.5683484194    -0.8413432223
    5      C      -2.1772329569    -0.4265883353    -0.1598342465
    6      O      -1.7113371511     0.9042251020    -0.3942079478
    7      C      -0.3934086821     1.1413020650     0.2453832383
    8      C       0.6753307353     1.4183561229    -0.8676690975
    9      O       2.0073619410     1.5096549682    -0.2267676015
   10      C       2.9046827599     0.5458810347    -0.8065613643
   11      C       4.2531872335     0.6261509420    -0.0189338937
   12      C       4.5784116516    -0.6791232118     0.8257899129
   13      C       3.5505051248    -1.8533117401     0.6360502725
   14      O       3.8232659884    -3.0471453528     0.3878728088
   15      O      -4.1390660614     2.8771145115     0.1206337690
   16      O       2.2220147234    -1.3487758316     0.8004351458
   17      O       2.6250120014    -0.1669999621    -1.7949464163
   18      C       1.2357743989    -2.4261142546     0.5365817694
   19      C       5.5123489769     0.6678375033    -0.9901101858
   20      C       6.7527452083     1.1879476663    -0.1628458735
   21      C       7.0782390656    -0.0753379404     0.7187863305
   22      C       5.9793928098    -1.0913669306     0.2160850903
   23      O       5.8237289143    -0.7599647323    -1.2201275996
   24      H       4.2075223875     1.5159594515     0.6327961044
   25      H       4.6459110801    -0.4394861249     1.9032416098
   26      H       5.3327692413     1.1845917642    -1.9529042609
   27      H       7.5875422875     1.4346502906    -0.8380243834
   28      H       6.5097670437     2.0784176171     0.4388098054
   29      H       8.0877793997    -0.4637006555     0.5108760016
   30      H       6.9919564243     0.1262310800     1.7984853718
   31      H       6.2159992064    -2.1661795052     0.3400086710
   32      O      -1.5522394834    -1.3081270385     0.4709698158
   33      C      -3.5877532551     3.8513333975     1.0899924674
   34      C      -5.7741752064    -0.3526274803     0.2081721576
   35      C      -6.5342179686    -1.0607162338    -0.9832308585
   36      C      -5.5006332964    -2.1783940301    -1.3846249951
   37      C      -4.3285074196    -1.8844743072    -0.3707084753
   38      O      -5.0334816311    -1.4555888106     0.8595916310
   39      H      -4.9709276734     1.1341331543    -1.2768672938
   40      H      -3.4301931703    -0.5535819425    -1.9367328499
   41      H      -2.5058169485     3.6805761170     1.2651433143
   42      H      -6.4221284727     0.1648044021     0.9419267457
   43      H      -7.4837542225    -1.4946127688    -0.6317443617
   44      H      -6.7469528448    -0.3633749419    -1.8090598444
   45      H      -5.9106438326    -3.1866108756    -1.2149421818
   46      H      -5.1739249948    -2.1014715607    -2.4340035674
   47      H      -3.6492472329    -2.7316059916    -0.1529051135
   48      H      -4.1129193501     3.8011471463     2.0655625574
   49      H      -3.7349043352     4.8497598792     0.6388661902
   50      H       0.2287158184    -1.9553197012     0.5658292596
   51      H       1.3002885041    -3.2214479698     1.3062277135
   52      H       1.4088883242    -2.8852680381    -0.4571828613
   53      H       0.6983527782     0.5931833006    -1.6140719413
   54      H       0.4556694983     2.3755349442    -1.3860104294
   55      H      -0.1019983083     0.2544621150     0.8459076939
   56      H      -0.4986907803     2.0202614694     0.9146578049
 ----------------------------------------------------------------

    9   -1510.2907742955      8.90E-09 Convergence criterion met
 Total energy in the final basis set = -1510.29077430
 Final energy is   -1510.29077429546
 **  OPTIMIZATION CONVERGED  **

                    Orbital Energies (a.u.)
 --------------------------------------------------------------

 Alpha MOs
 -- Occupied --
-18.946 -18.935 -18.930 -18.928 -18.895 -18.891 -18.885 -18.872
-18.871 -18.871 -10.115 -10.099 -10.099 -10.094 -10.074 -10.068
-10.066 -10.063 -10.062 -10.059 -10.055 -10.045 -10.041 -10.040
-10.036 -10.035 -10.023 -10.022 -10.019 -10.018  -1.025  -1.011
 -1.009  -1.003  -0.973  -0.968  -0.951  -0.935  -0.935  -0.930
 -0.768  -0.761  -0.730  -0.722  -0.713  -0.706  -0.697  -0.665
 -0.650  -0.618  -0.599  -0.581  -0.549  -0.543  -0.541  -0.535
 -0.515  -0.507  -0.485  -0.476  -0.465  -0.459  -0.456  -0.448
 -0.438  -0.433  -0.428  -0.417  -0.413  -0.411  -0.402  -0.400
 -0.399  -0.386  -0.373  -0.366  -0.363  -0.361  -0.356  -0.351
 -0.347  -0.335  -0.335  -0.333  -0.329  -0.326  -0.324  -0.314
 -0.308  -0.308  -0.303  -0.301  -0.293  -0.288  -0.283  -0.277
 -0.270  -0.259  -0.255  -0.247  -0.245  -0.237  -0.232  -0.192
 -0.177  -0.173  -0.171  -0.168  -0.157  -0.152  -0.147  -0.146
 -0.142

          Ground-State Mulliken Net Atomic Charges

     Atom                 Charge (a.u.)
  ----------------------------------------
      1 O                    -0.216623
      2 C                     0.210541
      3 C                    -0.078873
      4 C                    -0.077527
      5 C                     0.223676
      6 O                    -0.172065
      7 C                    -0.052954
      8 C                    -0.055675
      9 O                    -0.173871
     10 C                     0.215477
     11 C                    -0.079527
     12 C                    -0.078305
     13 C                     0.211630
     14 O                    -0.209771
     15 O                    -0.168929
     16 O                    -0.176159
     17 O                    -0.216005
     18 C                    -0.144215
     19 C                     0.025652
     20 C                    -0.143624
     21 C                    -0.144458
     22 C                     0.024137
     23 O                    -0.187118
     24 H                     0.086025
     25 H                     0.084582
     26 H                     0.083381
     27 H                     0.077858
     28 H                     0.073063
     29 H                     0.078239
     30 H                     0.072964
     31 H                     0.091503
     32 O                    -0.208674
     33 C                    -0.128103
     34 C                     0.025782
     35 C                    -0.143943
     36 C                    -0.143815
     37 C                     0.024710
     38 O                    -0.185843
     39 H                     0.087150
     40 H                     0.087228
     41 H                     0.085790
     42 H                     0.083965
     43 H                     0.078821
     44 H                     0.074033
     45 H                     0.079395
     46 H                     0.073701
     47 H                     0.090971
     48 H                     0.089815
     49 H                     0.090064
     50 H                     0.109120
     51 H                     0.083039
     52 H                     0.086652
     53 H                     0.100718
     54 H                     0.083143
     55 H                     0.105530
     56 H                     0.087726
  ----------------------------------------
  Sum of atomic charges =     0.000000

                    Cartesian Multipole Moments
 -----------------------------------------------------------------
    Charge (ESU x 10^10)
                -0.0000
    Dipole Moment (Debye)
         X      -1.5341      Y       3.3171      Z      -0.3884
       Tot       3.6752
    Quadrupole Moments (Debye-Ang)
        XX    -146.5670     XY       8.3152     YY    -158.7637
        XZ      17.5253     YZ       1.9062     ZZ    -163.7324

 Total job time:  255.41s(wall), 12175.06s(cpu)
        *  Thank you very much for using Q-Chem.  Have a nice day.  *
