 Q-Chem 5.0, Q-Chem, Inc., Pleasanton, CA (2017)
 Q-Chem 5.0.1 for Intel X86 EM64T Linux

User input:
--------------------------------------------------------------
$molecule
0  1
O -3.94934 -3.66094 2.70899
C -3.26408 -4.56952 2.26188
C -3.36658 -6.02376 2.66595
C -2.42296 -6.51246 3.77708
C -1.60663 -5.45266 4.48314
O -0.85199 -4.76649 3.57478
C -0.02641 -3.76161 4.17302
C 0.74652 -3.00689 3.0964
O 2.01953 -2.58648 3.61173
C 3.00582 -3.51576 3.55859
C 4.32194 -3.00838 4.09809
C 4.83392 -3.73886 5.3481
C 4.16701 -5.06379 5.65877
O 4.70008 -6.01205 6.21662
O -2.30936 -4.27408 1.34095
O 2.81144 -5.03598 5.78593
O 2.86427 -4.64764 3.10707
C 2.06658 -6.0938 6.28675
C 5.50306 -3.20426 3.13196
C 6.60314 -2.19574 3.45668
C 7.10042 -2.73812 4.78174
C 6.27567 -4.02817 4.87885
O 6.08775 -4.41673 3.53861
H 4.20527 -1.9199 4.31036
H 4.78312 -3.11776 6.26924
H 5.21162 -3.13267 2.0612
H 7.40181 -2.33425 2.69282
H 6.29132 -1.1292 3.46857
H 8.18518 -2.96442 4.68159
H 6.92592 -2.08041 5.66076
H 6.79787 -4.76378 5.52912
O -1.66787 -5.1949 5.68088
C -2.1235 -3.0219 0.7933
C -4.72527 -6.33226 3.34457
C -5.05202 -7.81901 3.21103
C -4.04556 -8.41457 4.1707
C -3.43342 -7.13655 4.75461
O -4.48363 -6.20418 4.72433
H -3.32954 -6.62671 1.73075
H -1.69225 -7.2552 3.38715
H -1.90767 -2.28032 1.59015
H -5.56733 -5.72896 2.93917
H -6.07218 -7.96457 3.63397
H -5.02492 -8.22803 2.17822
H -4.59809 -8.98257 4.95187
H -3.27056 -9.06149 3.70531
H -2.99098 -7.34795 5.75285
H -3.03369 -2.7111 0.2374
H -1.26705 -3.05542 0.08919
H 0.99399 -5.82691 6.33439
H 2.39291 -6.33906 7.32014
H 2.18568 -6.98558 5.6348
H 0.89559 -3.64698 2.19609
H 0.15363 -2.13711 2.7477
H 0.70071 -4.28962 4.80197
H -0.5852 -3.04077 4.8117
$end

$opt
CONSTRAINT
tors           1           2           3           4     -94.067
tors           3           4           5           6     -57.471
tors           4           5           6           7    -178.711
tors           5           6           7           8    -177.986
tors           6           7           8           9    -148.085
tors           7           8           9          10     +83.957
tors           8           9          10          11    +179.270
tors           9          10          11          12    +116.473
tors          11          12          13          14    +149.684
ENDCONSTRAINT
$end

$rem
JOBTYPE                   OPT
METHOD                    B3LYP
DFT_D                     d3_op
BASIS                     STO-3G
GEOM_OPT_MAX_CYCLES       100
GEOM_OPT_TOL_GRADIENT     300
GEOM_OPT_TOL_DISPLACEMENT 1200
GEOM_OPT_TOL_ENERGY       100
SYMMETRY                  False
THRESH                    12
SCF_CONVERGENCE           8
MAX_SUB_FILE_NUM          128
MEM_STATIC                400
MEM_TOTAL                 4000
$end
--------------------------------------------------------------

   15   -1510.1507652700      7.15E-09 Convergence criterion met
 Total energy in the final basis set = -1510.15076527
   13   -1510.2202016871      9.30E-09 Convergence criterion met
 Total energy in the final basis set = -1510.22020169
   13   -1510.2571362602      8.71E-09 Convergence criterion met
 Total energy in the final basis set = -1510.25713626
   14   -1510.2724224884      6.15E-09 Convergence criterion met
 Total energy in the final basis set = -1510.27242249
   14   -1510.2763151302      5.78E-09 Convergence criterion met
 Total energy in the final basis set = -1510.27631513
   13   -1510.2801633310      9.92E-09 Convergence criterion met
 Total energy in the final basis set = -1510.28016333
   13   -1510.2807757321      6.39E-09 Convergence criterion met
 Total energy in the final basis set = -1510.28077573
   13   -1510.2820796656      6.58E-09 Convergence criterion met
   12   -1510.2831720370      3.18E-09 Convergence criterion met
 Total energy in the final basis set = -1510.28317204
   11   -1510.2832199476      7.86E-09 Convergence criterion met
 Total energy in the final basis set = -1510.28321995
   11   -1510.2832742111      9.18E-09 Convergence criterion met
 Total energy in the final basis set = -1510.28327421
   11   -1510.2833048944      5.98E-09 Convergence criterion met
 Total energy in the final basis set = -1510.28330489
   11   -1510.2833254224      5.50E-09 Convergence criterion met
 Total energy in the final basis set = -1510.28332542
   10   -1510.2833276038      9.22E-09 Convergence criterion met
 Total energy in the final basis set = -1510.28332760

             Standard Nuclear Orientation (Angstroms)
    I     Atom           X                Y                Z
 ----------------------------------------------------------------
    1      O      -4.1992276544     2.0448334840     1.1361009477
    2      C      -3.9001019248     1.6660163146    -0.0168490717
    3      C      -4.3522456658     0.3530552408    -0.7444968206
    4      C      -3.3401820541    -0.8652355568    -0.6126250936
    5      C      -2.1777784065    -0.6523286089     0.4233728147
    6      O      -1.4382212415     0.5170711605     0.0766798737
    7      C      -0.3223684872     0.6966953591     1.0398651140
    8      C       0.4586297008     2.0112400241     0.6878487606
    9      O       1.8723040972     1.7624991811     1.0681776155
   10      C       2.5330852973     1.0727811128    -0.0062304360
   11      C       4.0181213051     0.8400012397     0.4085679626
   12      C       4.4125445656    -0.6927753121     0.5447229733
   13      C       3.3013007059    -1.7941690246     0.3513190239
   14      O       3.5213611846    -2.9406936171    -0.0968525301
   15      O      -3.1438854619     2.4505706375    -0.9482753093
   16      O       2.0220393904    -1.3969790662     0.8729378795
   17      O       1.9913409522     0.7917037827    -1.0968730446
   18      C       1.0776805545    -2.5438231808     0.7690217434
   19      C       5.0005277988     1.2860098788    -0.7612505923
   20      C       6.4664634289     1.3727736481    -0.1783809323
   21      C       6.8463370312    -0.1514737457    -0.0818655635
   22      C       5.5146204722    -0.8280151903    -0.5898543675
   23      O       5.0376847735     0.0983192557    -1.6426188761
   24      H       4.2101414892     1.3852229036     1.3488193075
   25      H       4.8563913436    -0.8752522829     1.5422818397
   26      H       4.6611877593     2.1761926666    -1.3254071205
   27      H       7.1275197689     1.9127938561    -0.8746161892
   28      H       6.4917634146     1.8810060431     0.7987528598
   29      H       7.6824751168    -0.4013578101    -0.7542537428
   30      H       7.1108481696    -0.4624067678     0.9414061085
   31      H       5.6125986546    -1.8576579606    -0.9865926626
   32      O      -1.8594231425    -1.4238219491     1.3580762801
   33      C      -2.6979266406     3.7052950539    -0.3026616543
   34      C      -5.6677468379    -0.2835566815    -0.1224910226
   35      C      -6.3146528972    -1.2168355040    -1.2192174917
   36      C      -5.3053945969    -2.4254989914    -1.2160560742
   37      C      -4.3093403998    -1.9932356479    -0.0689717913
   38      O      -5.1628915643    -1.2447949790     0.8840970339
   39      H      -4.4949710788     0.6025136947    -1.8110888837
   40      H      -2.8921164303    -1.1167697368    -1.5916672288
   41      H      -2.1545304159     3.5073187957     0.6427767651
   42      H      -6.3512621789     0.4478243316     0.3504310081
   43      H      -7.3225594400    -1.5337148893    -0.9066909362
   44      H      -6.3869710130    -0.7228363490    -2.2011943986
   45      H      -5.8058416617    -3.3718925006    -0.9572855601
   46      H      -4.7915057476    -2.5504704351    -2.1826895929
   47      H      -3.7820042702    -2.8162769723     0.4514706172
   48      H      -3.5537919609     4.3757978981    -0.0805932800
   49      H      -2.0212815544     4.1984451387    -1.0244673549
   50      H       0.1016690118    -2.1918455310     1.1648831202
   51      H       1.4369380534    -3.4090690051     1.3607991853
   52      H       0.9562292720    -2.8643237105    -0.2850854488
   53      H       0.3694922199     2.2178184912    -0.4000783819
   54      H       0.1139282822     2.8810937575     1.2791078026
   55      H       0.4053193073    -0.1393978892     0.9635607135
   56      H      -0.7095520557     0.7264086273     2.0803378430
 ----------------------------------------------------------------

    9   -1510.2833281153      3.61E-09 Convergence criterion met
 Total energy in the final basis set = -1510.28332812
 Final energy is   -1510.28332811535
 **  OPTIMIZATION CONVERGED  **

                    Orbital Energies (a.u.)
 --------------------------------------------------------------

 Alpha MOs
 -- Occupied --
-18.940 -18.940 -18.932 -18.932 -18.889 -18.885 -18.880 -18.878
-18.873 -18.871 -10.104 -10.103 -10.099 -10.097 -10.073 -10.065
-10.064 -10.062 -10.059 -10.058 -10.057 -10.057 -10.042 -10.040
-10.039 -10.036 -10.022 -10.021 -10.020 -10.019  -1.020  -1.015
 -1.009  -1.007  -0.972  -0.969  -0.941  -0.938  -0.935  -0.933
 -0.765  -0.763  -0.728  -0.723  -0.711  -0.705  -0.697  -0.663
 -0.660  -0.618  -0.598  -0.584  -0.547  -0.546  -0.539  -0.537
 -0.514  -0.509  -0.486  -0.474  -0.464  -0.456  -0.454  -0.447
 -0.444  -0.431  -0.429  -0.417  -0.412  -0.409  -0.407  -0.400
 -0.395  -0.383  -0.373  -0.370  -0.364  -0.360  -0.351  -0.348
 -0.345  -0.338  -0.335  -0.333  -0.331  -0.329  -0.329  -0.313
 -0.310  -0.307  -0.306  -0.298  -0.294  -0.287  -0.282  -0.276
 -0.272  -0.257  -0.254  -0.252  -0.249  -0.235  -0.233  -0.184
 -0.180  -0.176  -0.173  -0.160  -0.159  -0.152  -0.149  -0.145
 -0.143

          Ground-State Mulliken Net Atomic Charges

     Atom                 Charge (a.u.)
  ----------------------------------------
      1 O                    -0.215099
      2 C                     0.209529
      3 C                    -0.079945
      4 C                    -0.077042
      5 C                     0.212937
      6 O                    -0.168691
      7 C                    -0.057587
      8 C                    -0.051767
      9 O                    -0.172099
     10 C                     0.210508
     11 C                    -0.080543
     12 C                    -0.077782
     13 C                     0.211406
     14 O                    -0.210759
     15 O                    -0.166622
     16 O                    -0.173312
     17 O                    -0.212738
     18 C                    -0.137052
     19 C                     0.026597
     20 C                    -0.144248
     21 C                    -0.143760
     22 C                     0.024343
     23 O                    -0.186546
     24 H                     0.086819
     25 H                     0.085323
     26 H                     0.083703
     27 H                     0.078454
     28 H                     0.073623
     29 H                     0.078961
     30 H                     0.073585
     31 H                     0.092132
     32 O                    -0.215897
     33 C                    -0.127512
     34 C                     0.024684
     35 C                    -0.143196
     36 C                    -0.144854
     37 C                     0.023966
     38 O                    -0.188225
     39 H                     0.085912
     40 H                     0.087946
     41 H                     0.086688
     42 H                     0.086728
     43 H                     0.078105
     44 H                     0.073226
     45 H                     0.078419
     46 H                     0.073256
     47 H                     0.089692
     48 H                     0.086622
     49 H                     0.089249
     50 H                     0.103786
     51 H                     0.088311
     52 H                     0.089500
     53 H                     0.101603
     54 H                     0.086977
     55 H                     0.104764
     56 H                     0.087920
  ----------------------------------------
  Sum of atomic charges =     0.000000

                    Cartesian Multipole Moments
 -----------------------------------------------------------------
    Charge (ESU x 10^10)
                 0.0000
    Dipole Moment (Debye)
         X       0.8679      Y       1.5875      Z      -0.3064
       Tot       1.8350
    Quadrupole Moments (Debye-Ang)
        XX    -148.5915     XY       6.1470     YY    -154.4618
        XZ      20.1370     YZ       0.8222     ZZ    -167.0315

 Total job time:  52.76s(wall), 2507.04s(cpu)
        *  Thank you very much for using Q-Chem.  Have a nice day.  *
