 Q-Chem 5.0, Q-Chem, Inc., Pleasanton, CA (2017)
 Q-Chem 5.0.1 for Intel X86 EM64T Linux

User input:
--------------------------------------------------------------
$molecule
0  1
O -4.1239487617 1.8531144979 1.1124239403
C -3.9092783719 1.5681661684 -0.0854771391
C -4.3146764065 0.2622329562 -0.8515161842
C -3.3866544984 -0.983920679 -0.512176774
C -2.3665929427 -0.69806247 0.647891291
O -1.5187705197 0.3800108948 0.2364783205
C -0.462941399 0.6150291255 1.2517000682
C 0.3979845413 1.8337096394 0.7534982186
O 1.8206654054 1.6363305614 1.1165613866
C 2.4807352861 0.8553812408 0.1058323572
C 4.0078814034 0.8226578052 0.4431116849
C 4.621329997 -0.6384399945 0.4813683961
C 3.5965279879 -1.8201987882 0.3429457992
O 3.7857409663 -2.8953158776 -0.2648175035
O -3.2655988017 2.4484572501 -1.0165880247
O 2.4262633069 -1.5400434064 1.1242285533
O 1.9096738815 0.3932247065 -0.9051250564
C 1.4559016071 -2.6536636776 0.990959376
C 4.8407499476 1.4442148119 -0.7633946916
C 6.3280331496 1.6828357665 -0.2825407899
C 6.9012787103 0.2166995588 -0.3168833364
C 5.6197191228 -0.5953119288 -0.7483241733
O 4.9491705415 0.3118051937 -1.7091889455
H 4.1720882481 1.3632100037 1.3912566276
H 5.1713469243 -0.7923198559 1.4289172988
H 4.3593078357 2.312904644 -1.2535117718
H 6.8591864905 2.3434650823 -0.9859275722
H 6.3688201202 2.1315016031 0.7229364408
H 7.6954881541 0.1122224461 -1.0731857288
H 7.2955903418 -0.11038285 0.6586212754
H 5.8016684324 -1.5864477974 -1.2081252427
O -2.2401861869 -1.3173233383 1.7252366923
C -2.838744792 3.6851856432 -0.3242851147
C -5.7334882472 -0.2979463228 -0.4044294032
C -6.2397668556 -1.286124433 -1.5275383807
C -5.2997858808 -2.5257836527 -1.2834566841
C -4.4655305511 -2.037728512 -0.0343716961
O -5.4215616824 -1.1989360139 0.7271024298
H -4.2873714049 0.4826599445 -1.9330660322
H -2.8247648627 -1.3171668013 -1.4037762574
H -2.1263793764 3.4654032492 0.4962509551
H -6.4571774666 0.4792494616 -0.0911140243
H -7.2978999838 -1.544024693 -1.3612019089
H -6.1340805353 -0.8615257657 -2.5386845699
H -5.8774320555 -3.4300153633 -1.0345025181
H -4.6555351991 -2.7453787829 -2.1499176201
H -4.0546884261 -2.835807879 0.6140529335
H -3.7025767272 4.2362646186 0.1007712072
H -2.3410501652 4.309147145 -1.0891208503
H 0.662258066 -2.4689369537 1.738598872
H 1.9341349132 -3.6344012002 1.1858728069
H 1.0096639358 -2.6727443991 -0.0245512777
H 0.2827963759 1.9161759436 -0.3491214652
H 0.080199272 2.7765213362 1.2400044884
H 0.1928991388 -0.2767955092 1.3429138901
H -0.9117028715 0.8142058538 2.2482063363
$end

$rem
JOBTYPE                   OPT
METHOD                    B3LYP
DFT_D                     d3_op
BASIS                     STO-3G
GEOM_OPT_MAX_CYCLES       100
GEOM_OPT_TOL_GRADIENT     300
GEOM_OPT_TOL_DISPLACEMENT 1200
GEOM_OPT_TOL_ENERGY       100
SYMMETRY                  False
THRESH                    12
SCF_CONVERGENCE           8
MAX_SUB_FILE_NUM          128
MEM_STATIC                400
MEM_TOTAL                 4000
$end
--------------------------------------------------------------

   15   -1510.2833373098      8.17E-09 Convergence criterion met
 Total energy in the final basis set = -1510.28333731
   14   -1510.2841796617      9.23E-09 Convergence criterion met
 Total energy in the final basis set = -1510.28417966
   14   -1510.2866146688      5.27E-09 Convergence criterion met
 Total energy in the final basis set = -1510.28661467
   14   -1510.2854095826      9.07E-09 Convergence criterion met
 Total energy in the final basis set = -1510.28540958
   14   -1510.2855665546      7.79E-09 Convergence criterion met
 Total energy in the final basis set = -1510.28556655
   15   -1510.2861044195      3.06E-09 Convergence criterion met
 Total energy in the final basis set = -1510.28610442
   14   -1510.2879109582      6.80E-09 Convergence criterion met
 Total energy in the final basis set = -1510.28791096
   13   -1510.2881706923      5.67E-09 Convergence criterion met
   11   -1510.2904063271      6.33E-09 Convergence criterion met
 Total energy in the final basis set = -1510.29040633
   12   -1510.2904265230      3.10E-09 Convergence criterion met
 Total energy in the final basis set = -1510.29042652
   12   -1510.2904622436      8.20E-09 Convergence criterion met
 Total energy in the final basis set = -1510.29046224
   11   -1510.2904573847      8.60E-09 Convergence criterion met
 Total energy in the final basis set = -1510.29045738
   11   -1510.2904639564      3.97E-09 Convergence criterion met
 Total energy in the final basis set = -1510.29046396
   11   -1510.2904659619      2.43E-09 Convergence criterion met
 Total energy in the final basis set = -1510.29046596

             Standard Nuclear Orientation (Angstroms)
    I     Atom           X                Y                Z
 ----------------------------------------------------------------
    1      O      -3.6477088783     1.5955532387     1.6048940641
    2      C      -3.9115647372     1.5796456093     0.3833536949
    3      C      -4.5459811864     0.4128304834    -0.4545532874
    4      C      -3.5605736798    -0.8007319845    -0.7367048545
    5      C      -2.1516990304    -0.6570669729    -0.0621234966
    6      O      -1.6822384946     0.6752568250    -0.2718604385
    7      C      -0.4309155485     0.9369266749     0.4828643545
    8      C       0.5773978699     1.6833824819    -0.4556573953
    9      O       1.9078953773     1.6774274118     0.1977456204
   10      C       2.8217996626     0.8651019155    -0.5598031922
   11      C       4.1502863886     0.7484730638     0.2531578604
   12      C       4.5453424318    -0.7538655188     0.5816567099
   13      C       3.5464327267    -1.8275786898     0.0157231977
   14      O       3.8330089417    -2.8108824354    -0.6994797935
   15      O      -3.7469584825     2.7049948340    -0.4924878795
   16      O       2.2233900671    -1.5208378531     0.4699315994
   17      O       2.5594879366     0.3775713464    -1.6813868399
   18      C       1.2585692398    -2.4927604061    -0.1018693085
   19      C       5.4119422207     1.1996126435    -0.6041021561
   20      C       6.6270359880     1.4096710017     0.3847419392
   21      C       7.0223597454    -0.0811167418     0.7022250877
   22      C       5.9479722570    -0.8668913935    -0.1460770611
   23      O       5.7738241403    -0.0235954802    -1.3519610285
   24      H       4.0416520982     1.3476162792     1.1738559796
   25      H       4.6337928147    -0.9004782398     1.6740117536
   26      H       5.2183609504     2.0378264421    -1.3012641094
   27      H       7.4455658459     1.9475246919    -0.1195658114
   28      H       6.3337426828     1.9736608515     1.2844966660
   29      H       8.0388876007    -0.3131072867     0.3469071043
   30      H       6.9597203029    -0.3188336231     1.7761647783
   31      H       6.2158541743    -1.9018622882    -0.4351858770
   32      O      -1.5226267427    -1.5489199025     0.5515835044
   33      C      -3.1232889973     3.8279353514     0.2421032690
   34      C      -5.6985965043    -0.3330319007     0.3474587867
   35      C      -6.5639806931    -1.1601116247    -0.6831875617
   36      C      -5.5914001954    -2.3559463362    -1.0048330190
   37      C      -4.3595806201    -2.0035509558    -0.0839689528
   38      O      -4.9771916856    -1.3783076117     1.1084633834
   39      H      -4.9164044153     0.8416039096    -1.4020483369
   40      H      -3.4112301230    -0.9423640633    -1.8236456682
   41      H      -2.0839885701     3.5853672351     0.5443660942
   42      H      -6.2722891454     0.3176702886     1.0353944663
   43      H      -7.4926380005    -1.5133577821    -0.2074680199
   44      H      -6.8258465343    -0.5707462660    -1.5764726325
   45      H      -6.0276538510    -3.3230076386    -0.7085049948
   46      H      -5.3137693430    -2.4054301356    -2.0698825487
   47      H      -3.7159667655    -2.8546720389     0.2128967365
   48      H      -3.6995007304     4.0941940291     1.1514993194
   49      H      -3.1119550962     4.6846442403    -0.4565362032
   50      H       0.2480729216    -2.1698159010     0.2320203830
   51      H       1.4656753357    -3.5207945304     0.2572027825
   52      H       1.3070052928    -2.4916493077    -1.2094064321
   53      H       0.6642108610     1.1568228253    -1.4320395900
   54      H       0.2652822689     2.7351247062    -0.6197986668
   55      H       0.0073910969    -0.0223238048     0.8292316858
   56      H      -0.6840966571     1.5559912399     1.3701532413
 ----------------------------------------------------------------

    9   -1510.2904659674      3.79E-09 Convergence criterion met
 Total energy in the final basis set = -1510.29046597
 Final energy is   -1510.29046596736
 **  OPTIMIZATION CONVERGED  **

                    Orbital Energies (a.u.)
 --------------------------------------------------------------

 Alpha MOs
 -- Occupied --
-18.950 -18.933 -18.931 -18.927 -18.896 -18.890 -18.886 -18.876
-18.872 -18.868 -10.117 -10.101 -10.098 -10.094 -10.075 -10.070
-10.064 -10.062 -10.061 -10.060 -10.056 -10.046 -10.044 -10.039
-10.038 -10.036 -10.023 -10.022 -10.020 -10.019  -1.028  -1.014
 -1.006  -1.004  -0.973  -0.969  -0.953  -0.938  -0.932  -0.930
 -0.767  -0.763  -0.731  -0.723  -0.712  -0.707  -0.698  -0.664
 -0.652  -0.619  -0.599  -0.582  -0.549  -0.544  -0.540  -0.536
 -0.516  -0.508  -0.486  -0.477  -0.462  -0.460  -0.457  -0.451
 -0.440  -0.433  -0.430  -0.417  -0.413  -0.409  -0.404  -0.401
 -0.401  -0.387  -0.373  -0.368  -0.363  -0.361  -0.355  -0.351
 -0.346  -0.337  -0.334  -0.333  -0.330  -0.328  -0.326  -0.314
 -0.309  -0.309  -0.304  -0.303  -0.294  -0.289  -0.282  -0.276
 -0.271  -0.258  -0.253  -0.250  -0.246  -0.237  -0.233  -0.192
 -0.175  -0.174  -0.173  -0.169  -0.160  -0.149  -0.148  -0.146
 -0.143

          Ground-State Mulliken Net Atomic Charges

     Atom                 Charge (a.u.)
  ----------------------------------------
      1 O                    -0.220461
      2 C                     0.212629
      3 C                    -0.079947
      4 C                    -0.077275
      5 C                     0.223331
      6 O                    -0.169322
      7 C                    -0.054363
      8 C                    -0.055759
      9 O                    -0.172884
     10 C                     0.214085
     11 C                    -0.079051
     12 C                    -0.078621
     13 C                     0.211734
     14 O                    -0.209228
     15 O                    -0.170211
     16 O                    -0.177618
     17 O                    -0.213809
     18 C                    -0.143842
     19 C                     0.025922
     20 C                    -0.143761
     21 C                    -0.144153
     22 C                     0.024519
     23 O                    -0.186533
     24 H                     0.086925
     25 H                     0.084760
     26 H                     0.082921
     27 H                     0.078021
     28 H                     0.073388
     29 H                     0.078416
     30 H                     0.073237
     31 H                     0.091670
     32 O                    -0.209312
     33 C                    -0.128295
     34 C                     0.025501
     35 C                    -0.143691
     36 C                    -0.144241
     37 C                     0.024335
     38 O                    -0.187027
     39 H                     0.086569
     40 H                     0.087898
     41 H                     0.083231
     42 H                     0.085041
     43 H                     0.078732
     44 H                     0.073933
     45 H                     0.079255
     46 H                     0.073639
     47 H                     0.090741
     48 H                     0.089680
     49 H                     0.089067
     50 H                     0.106202
     51 H                     0.083498
     52 H                     0.085774
     53 H                     0.103951
     54 H                     0.084131
     55 H                     0.106242
     56 H                     0.090422
  ----------------------------------------
  Sum of atomic charges =     0.000000

                    Cartesian Multipole Moments
 -----------------------------------------------------------------
    Charge (ESU x 10^10)
                -0.0000
    Dipole Moment (Debye)
         X      -1.2223      Y       2.2182      Z       0.0704
       Tot       2.5337
    Quadrupole Moments (Debye-Ang)
        XX    -147.7163     XY       6.7646     YY    -155.3758
        XZ      21.7703     YZ       0.4263     ZZ    -167.8115

 Total job time:  105.08s(wall), 5004.52s(cpu)
        *  Thank you very much for using Q-Chem.  Have a nice day.  *
