 Q-Chem 5.0, Q-Chem, Inc., Pleasanton, CA (2017)
 Q-Chem 5.0.1 for Intel X86 EM64T Linux

User input:
--------------------------------------------------------------
$molecule
0  1
O -3.94934 -3.66094 2.70899
C -3.26408 -4.56952 2.26188
C -3.36658 -6.02376 2.66595
C -2.75335 -6.42212 4.0184
C -2.26373 -5.29161 4.89607
O -1.28114 -4.59576 4.2513
C -0.691 -3.57341 5.06111
C 0.36552 -2.81569 4.26378
O 1.45658 -2.44826 5.12253
C 2.4178 -3.39183 5.28027
C 3.61179 -2.89118 6.05769
C 4.02545 -3.77099 7.24643
C 3.43692 -5.16731 7.2714
O 4.01685 -6.17424 7.65131
O -2.42463 -4.30016 1.22739
O 2.07668 -5.22724 7.24333
O 2.40765 -4.48037 4.71412
C 1.33711 -6.38409 7.38455
C 4.91843 -2.88717 5.23922
C 5.88672 -1.86424 5.8297
C 6.24773 -2.54101 7.13699
C 5.53498 -3.88775 6.95482
O 5.54932 -4.10157 5.56402
H 3.39979 -1.84558 6.38211
H 3.7853 -3.29822 8.22391
H 4.75926 -2.69083 4.15626
H 6.78482 -1.85966 5.17079
H 5.50121 -0.82637 5.92474
H 7.35242 -2.66847 7.1713
H 5.89217 -2.02318 8.05419
H 6.03154 -4.66764 7.57265
O -2.70314 -5.01948 6.00831
C -2.21656 -3.04179 0.70293
C -4.82253 -6.47936 2.86428
C -4.92358 -7.99519 2.7009
C -4.25223 -8.46219 3.97575
C -3.97392 -7.11704 4.65541
O -5.04758 -6.3049 4.24274
H -2.89403 -6.6151 1.84822
H -1.89437 -7.11973 3.89838
H -1.80937 -2.36537 1.48491
H -5.53572 -5.96903 2.1802
H -6.00306 -8.26415 2.7507
H -4.48802 -8.39485 1.75989
H -4.99284 -9.04386 4.56878
H -3.32627 -9.06063 3.83469
H -3.86111 -7.26389 5.75193
H -3.16886 -2.62902 0.30663
H -1.48381 -3.1102 -0.12701
H 0.25764 -6.13822 7.31699
H 1.53493 -6.84889 8.3739
H 1.59168 -7.09984 6.57395
H 0.73686 -3.43796 3.41703
H -0.08891 -1.92465 3.78151
H -0.18377 -4.09787 5.90135
H -1.42696 -2.85705 5.49124
$end

$opt
CONSTRAINT
tors           1           2           3           4     -76.443
tors           3           4           5           6     -60.715
tors           4           5           6           7    -175.294
tors           5           6           7           8    -178.375
tors           6           7           8           9    -144.295
tors           7           8           9          10     +85.812
tors           8           9          10          11    +173.217
tors           9          10          11          12    +128.103
tors          11          12          13          14    +143.238
ENDCONSTRAINT
$end

$rem
JOBTYPE                   OPT
METHOD                    B3LYP
DFT_D                     d3_op
BASIS                     STO-3G
GEOM_OPT_MAX_CYCLES       100
GEOM_OPT_TOL_GRADIENT     300
GEOM_OPT_TOL_DISPLACEMENT 1200
GEOM_OPT_TOL_ENERGY       100
SYMMETRY                  False
THRESH                    12
SCF_CONVERGENCE           8
MAX_SUB_FILE_NUM          128
MEM_STATIC                400
MEM_TOTAL                 4000
$end
--------------------------------------------------------------

   15   -1510.1532310254      8.41E-09 Convergence criterion met
 Total energy in the final basis set = -1510.15323103
   13   -1510.2220670703      9.87E-09 Convergence criterion met
 Total energy in the final basis set = -1510.22206707
   13   -1510.2588270354      9.86E-09 Convergence criterion met
 Total energy in the final basis set = -1510.25882704
   13   -1510.2745231721      9.31E-09 Convergence criterion met
 Total energy in the final basis set = -1510.27452317
   13   -1510.2792636426      7.53E-09 Convergence criterion met
 Total energy in the final basis set = -1510.27926364
    2   -1510.2792636425      6.91E-09 Convergence criterion met
 Total energy in the final basis set = -1510.27926364
   12   -1510.2806911602      9.31E-09 Convergence criterion met
 Total energy in the final basis set = -1510.28069116
   13   -1510.2813993330      2.89E-09 Convergence criterion met
   12   -1510.2832262259      3.14E-09 Convergence criterion met
 Total energy in the final basis set = -1510.28322623
   11   -1510.2832827405      5.54E-09 Convergence criterion met
 Total energy in the final basis set = -1510.28328274
   11   -1510.2833367754      6.88E-09 Convergence criterion met
 Total energy in the final basis set = -1510.28333678
   11   -1510.2833669510      5.08E-09 Convergence criterion met
 Total energy in the final basis set = -1510.28336695
   11   -1510.2833788023      3.26E-09 Convergence criterion met
 Total energy in the final basis set = -1510.28337880
    9   -1510.2833821695      8.52E-09 Convergence criterion met
 Total energy in the final basis set = -1510.28338217

             Standard Nuclear Orientation (Angstroms)
    I     Atom           X                Y                Z
 ----------------------------------------------------------------
    1      O      -4.1239487617     1.8531144979     1.1124239403
    2      C      -3.9092783719     1.5681661684    -0.0854771391
    3      C      -4.3146764065     0.2622329562    -0.8515161842
    4      C      -3.3866544984    -0.9839206790    -0.5121767740
    5      C      -2.3665929427    -0.6980624700     0.6478912910
    6      O      -1.5187705197     0.3800108948     0.2364783205
    7      C      -0.4629413990     0.6150291255     1.2517000682
    8      C       0.3979845413     1.8337096394     0.7534982186
    9      O       1.8206654054     1.6363305614     1.1165613866
   10      C       2.4807352861     0.8553812408     0.1058323572
   11      C       4.0078814034     0.8226578052     0.4431116849
   12      C       4.6213299970    -0.6384399945     0.4813683961
   13      C       3.5965279879    -1.8201987882     0.3429457992
   14      O       3.7857409663    -2.8953158776    -0.2648175035
   15      O      -3.2655988017     2.4484572501    -1.0165880247
   16      O       2.4262633069    -1.5400434064     1.1242285533
   17      O       1.9096738815     0.3932247065    -0.9051250564
   18      C       1.4559016071    -2.6536636776     0.9909593760
   19      C       4.8407499476     1.4442148119    -0.7633946916
   20      C       6.3280331496     1.6828357665    -0.2825407899
   21      C       6.9012787103     0.2166995588    -0.3168833364
   22      C       5.6197191228    -0.5953119288    -0.7483241733
   23      O       4.9491705415     0.3118051937    -1.7091889455
   24      H       4.1720882481     1.3632100037     1.3912566276
   25      H       5.1713469243    -0.7923198559     1.4289172988
   26      H       4.3593078357     2.3129046440    -1.2535117718
   27      H       6.8591864905     2.3434650823    -0.9859275722
   28      H       6.3688201202     2.1315016031     0.7229364408
   29      H       7.6954881541     0.1122224461    -1.0731857288
   30      H       7.2955903418    -0.1103828500     0.6586212754
   31      H       5.8016684324    -1.5864477974    -1.2081252427
   32      O      -2.2401861869    -1.3173233383     1.7252366923
   33      C      -2.8387447920     3.6851856432    -0.3242851147
   34      C      -5.7334882472    -0.2979463228    -0.4044294032
   35      C      -6.2397668556    -1.2861244330    -1.5275383807
   36      C      -5.2997858808    -2.5257836527    -1.2834566841
   37      C      -4.4655305511    -2.0377285120    -0.0343716961
   38      O      -5.4215616824    -1.1989360139     0.7271024298
   39      H      -4.2873714049     0.4826599445    -1.9330660322
   40      H      -2.8247648627    -1.3171668013    -1.4037762574
   41      H      -2.1263793764     3.4654032492     0.4962509551
   42      H      -6.4571774666     0.4792494616    -0.0911140243
   43      H      -7.2978999838    -1.5440246930    -1.3612019089
   44      H      -6.1340805353    -0.8615257657    -2.5386845699
   45      H      -5.8774320555    -3.4300153633    -1.0345025181
   46      H      -4.6555351991    -2.7453787829    -2.1499176201
   47      H      -4.0546884261    -2.8358078790     0.6140529335
   48      H      -3.7025767272     4.2362646186     0.1007712072
   49      H      -2.3410501652     4.3091471450    -1.0891208503
   50      H       0.6622580660    -2.4689369537     1.7385988720
   51      H       1.9341349132    -3.6344012002     1.1858728069
   52      H       1.0096639358    -2.6727443991    -0.0245512777
   53      H       0.2827963759     1.9161759436    -0.3491214652
   54      H       0.0801992720     2.7765213362     1.2400044884
   55      H       0.1928991388    -0.2767955092     1.3429138901
   56      H      -0.9117028715     0.8142058538     2.2482063363
 ----------------------------------------------------------------

    9   -1510.2833829504      8.12E-09 Convergence criterion met
 Total energy in the final basis set = -1510.28338295
 Final energy is   -1510.28338295043
 **  OPTIMIZATION CONVERGED  **

                    Orbital Energies (a.u.)
 --------------------------------------------------------------

 Alpha MOs
 -- Occupied --
-18.939 -18.935 -18.933 -18.931 -18.889 -18.885 -18.879 -18.879
-18.872 -18.869 -10.103 -10.101 -10.099 -10.096 -10.074 -10.071
-10.065 -10.063 -10.063 -10.059 -10.058 -10.057 -10.041 -10.039
-10.038 -10.035 -10.022 -10.021 -10.019 -10.018  -1.017  -1.015
 -1.009  -1.006  -0.972  -0.968  -0.941  -0.939  -0.934  -0.932
 -0.765  -0.762  -0.728  -0.723  -0.712  -0.705  -0.697  -0.664
 -0.662  -0.618  -0.597  -0.584  -0.547  -0.545  -0.539  -0.537
 -0.514  -0.509  -0.486  -0.472  -0.463  -0.455  -0.453  -0.447
 -0.444  -0.432  -0.429  -0.415  -0.413  -0.411  -0.409  -0.400
 -0.395  -0.383  -0.376  -0.367  -0.364  -0.357  -0.354  -0.349
 -0.347  -0.340  -0.337  -0.332  -0.330  -0.328  -0.327  -0.313
 -0.308  -0.307  -0.305  -0.297  -0.293  -0.287  -0.284  -0.275
 -0.273  -0.256  -0.255  -0.253  -0.250  -0.235  -0.232  -0.183
 -0.180  -0.175  -0.174  -0.160  -0.158  -0.152  -0.147  -0.145
 -0.142

          Ground-State Mulliken Net Atomic Charges

     Atom                 Charge (a.u.)
  ----------------------------------------
      1 O                    -0.216188
      2 C                     0.209134
      3 C                    -0.079756
      4 C                    -0.077580
      5 C                     0.211636
      6 O                    -0.173269
      7 C                    -0.050324
      8 C                    -0.050941
      9 O                    -0.172775
     10 C                     0.212531
     11 C                    -0.079247
     12 C                    -0.078722
     13 C                     0.213824
     14 O                    -0.209701
     15 O                    -0.168051
     16 O                    -0.172430
     17 O                    -0.214868
     18 C                    -0.130988
     19 C                     0.026204
     20 C                    -0.144280
     21 C                    -0.143433
     22 C                     0.024252
     23 O                    -0.186570
     24 H                     0.087075
     25 H                     0.085271
     26 H                     0.082656
     27 H                     0.078406
     28 H                     0.073749
     29 H                     0.078862
     30 H                     0.073428
     31 H                     0.091744
     32 O                    -0.209889
     33 C                    -0.127935
     34 C                     0.025437
     35 C                    -0.143303
     36 C                    -0.144618
     37 C                     0.024270
     38 O                    -0.186764
     39 H                     0.086105
     40 H                     0.087023
     41 H                     0.084937
     42 H                     0.084564
     43 H                     0.077929
     44 H                     0.073463
     45 H                     0.078245
     46 H                     0.073269
     47 H                     0.089035
     48 H                     0.088217
     49 H                     0.089276
     50 H                     0.094183
     51 H                     0.093567
     52 H                     0.091270
     53 H                     0.101350
     54 H                     0.086771
     55 H                     0.092976
     56 H                     0.090970
  ----------------------------------------
  Sum of atomic charges =     0.000000

                    Cartesian Multipole Moments
 -----------------------------------------------------------------
    Charge (ESU x 10^10)
                 0.0000
    Dipole Moment (Debye)
         X       1.2524      Y       1.5441      Z      -0.4022
       Tot       2.0284
    Quadrupole Moments (Debye-Ang)
        XX    -150.6699     XY       5.7756     YY    -152.3711
        XZ      20.7575     YZ       0.1188     ZZ    -167.6322

 Total job time:  50.52s(wall), 2399.73s(cpu)
        *  Thank you very much for using Q-Chem.  Have a nice day.  *
