 Q-Chem 5.0, Q-Chem, Inc., Pleasanton, CA (2017)
 Q-Chem 5.0.1 for Intel X86 EM64T Linux

User input:
--------------------------------------------------------------
$molecule
0  1
O -3.94934 -3.66094 2.70899
C -3.26408 -4.56952 2.26188
C -3.36658 -6.02376 2.66595
C -2.38427 -6.52644 3.73657
C -1.52803 -5.47805 4.41171
O -0.6299 -4.96697 3.51863
C 0.2393 -3.98538 4.09327
C 1.20819 -3.45971 3.03921
O 2.44221 -3.06774 3.66085
C 3.32054 -4.07331 3.89858
C 4.6141 -3.59202 4.51153
C 4.99168 -4.26598 5.83874
C 4.23906 -5.53869 6.17114
O 4.6037 -6.38987 6.96931
O -2.25542 -4.26452 1.40419
O 2.88726 -5.52948 5.99453
O 3.17064 -5.22127 3.49014
C 2.04225 -6.55416 6.39302
C 5.85071 -3.91445 3.65333
C 6.98308 -2.95021 4.00161
C 7.35059 -3.43728 5.38861
C 6.44178 -4.66808 5.49754
O 6.3287 -5.12979 4.1727
H 4.5449 -2.48642 4.63792
H 4.91903 -3.5911 6.7195
H 5.64435 -3.89356 2.56075
H 7.8252 -3.17854 3.30934
H 6.73443 -1.86956 3.92931
H 8.42296 -3.73393 5.38218
H 7.15728 -2.71707 6.21298
H 6.86676 -5.39154 6.2278
O -1.59924 -5.15968 5.59445
C -1.97577 -2.99081 0.95557
C -4.70462 -6.31562 3.38825
C -5.04917 -7.80012 3.27645
C -4.02529 -8.39591 4.21611
C -3.37461 -7.11887 4.75818
O -4.41419 -6.17465 4.75588
H -3.36211 -6.62148 1.72695
H -1.69197 -7.30587 3.34736
H -1.73182 -2.32809 1.81319
H -5.55374 -5.70787 3.00474
H -6.0602 -7.93576 3.72373
H -5.04746 -8.2143 2.24532
H -4.56415 -8.93484 5.027
H -3.27937 -9.06985 3.7418
H -2.90162 -7.32577 5.74349
H -2.84656 -2.58096 0.40069
H -1.10161 -3.02922 0.27379
H 0.99402 -6.31253 6.13514
H 2.10012 -6.69662 7.49326
H 2.32137 -7.49803 5.87758
H 1.40312 -4.23153 2.25964
H 0.74341 -2.60772 2.50064
H 0.83013 -4.49584 4.87305
H -0.30164 -3.13729 4.57051
$end

$opt
CONSTRAINT
tors           1           2           3           4     -96.486
tors           3           4           5           6     -68.466
tors           4           5           6           7    -178.711
tors           5           6           7           8    -179.856
tors           6           7           8           9    -150.105
tors           7           8           9          10     +82.432
tors           8           9          10          11    +178.147
tors           9          10          11          12    +124.408
tors          11          12          13          14    +160.311
ENDCONSTRAINT
$end

$rem
JOBTYPE                   OPT
METHOD                    B3LYP
DFT_D                     d3_op
BASIS                     STO-3G
GEOM_OPT_MAX_CYCLES       100
GEOM_OPT_TOL_GRADIENT     300
GEOM_OPT_TOL_DISPLACEMENT 1200
GEOM_OPT_TOL_ENERGY       100
SYMMETRY                  False
THRESH                    12
SCF_CONVERGENCE           8
MAX_SUB_FILE_NUM          128
MEM_STATIC                400
MEM_TOTAL                 4000
$end
--------------------------------------------------------------

   15   -1510.1438778557      6.99E-09 Convergence criterion met
 Total energy in the final basis set = -1510.14387786
   14   -1510.2145101429      8.11E-09 Convergence criterion met
 Total energy in the final basis set = -1510.21451014
   14   -1510.2525300975      7.18E-09 Convergence criterion met
 Total energy in the final basis set = -1510.25253010
   14   -1510.2695116436      7.67E-09 Convergence criterion met
 Total energy in the final basis set = -1510.26951164
   14   -1510.2755806868      5.13E-09 Convergence criterion met
 Total energy in the final basis set = -1510.27558069
   13   -1510.2777969969      4.92E-09 Convergence criterion met
 Total energy in the final basis set = -1510.27779700
   14   -1510.2785430606      3.65E-09 Convergence criterion met
 Total energy in the final basis set = -1510.27854306
   13   -1510.2797177024      5.71E-09 Convergence criterion met
   11   -1510.2815777155      4.80E-09 Convergence criterion met
 Total energy in the final basis set = -1510.28157772
   11   -1510.2816443373      5.78E-09 Convergence criterion met
 Total energy in the final basis set = -1510.28164434
   11   -1510.2816752534      6.57E-09 Convergence criterion met
 Total energy in the final basis set = -1510.28167525
   11   -1510.2816891156      2.38E-09 Convergence criterion met
 Total energy in the final basis set = -1510.28168912
   11   -1510.2816905240      2.74E-09 Convergence criterion met
 Total energy in the final basis set = -1510.28169052
    9   -1510.2816921617      9.43E-09 Convergence criterion met
 Total energy in the final basis set = -1510.28169216

             Standard Nuclear Orientation (Angstroms)
    I     Atom           X                Y                Z
 ----------------------------------------------------------------
    1      O      -4.5286444386     1.8514532521     1.2771387830
    2      C      -4.1520837920     1.5820543665     0.1162579922
    3      C      -4.4677911930     0.2988794534    -0.7266143584
    4      C      -3.3298247927    -0.8133576612    -0.6697837885
    5      C      -2.1778592892    -0.5065149286     0.3523302764
    6      O      -1.4271352303     0.6124237128    -0.1193379529
    7      C      -0.3165088287     0.8921001196     0.8230359514
    8      C       0.5025003896     2.1251174320     0.3010086367
    9      O       1.8976467705     1.9258607701     0.7675096936
   10      C       2.5740711336     1.0402108567    -0.1416688378
   11      C       4.0500362118     0.8817524970     0.3392896104
   12      C       4.4779961670    -0.6266320154     0.5792384714
   13      C       3.3731031682    -1.7494085015     0.5970036538
   14      O       3.6070845084    -2.9657375996     0.4239388100
   15      O      -3.3789677596     2.4689221716    -0.7015009112
   16      O       2.0832362350    -1.2537061243     0.9908487227
   17      O       2.0600597321     0.5802312273    -1.1836085352
   18      C       1.1300988579    -2.3924769229     1.0924309753
   19      C       5.0309413097     1.2648138454    -0.8538099061
   20      C       6.5075947302     1.3568102768    -0.2981751975
   21      C       6.8837462076    -0.1661247811    -0.1726174433
   22      C       5.5250011333    -0.8456120140    -0.5970954218
   23      O       5.0319422947     0.0361799533    -1.6799384391
   24      H       4.2044595128     1.5010380983     1.2395740674
   25      H       4.9935777722    -0.7072254064     1.5555001466
   26      H       4.6982724495     2.1336658783    -1.4541681909
   27      H       7.1591648691     1.8793266357    -1.0162016844
   28      H       6.5500135838     1.8862548741     0.6670962391
   29      H       7.6841151819    -0.4414930409    -0.8780224655
   30      H       7.1971174746    -0.4484719182     0.8451564596
   31      H       5.5964559495    -1.8954835765    -0.9427759064
   32      O      -1.8780295944    -1.1669447205     1.3737163184
   33      C      -3.0117837306     3.6776390552     0.0701459481
   34      C      -5.7083102868    -0.5156315713    -0.1634472458
   35      C      -6.2333006322    -1.4591095407    -1.3149614260
   36      C      -5.1029985549    -2.5555447264    -1.3438725896
   37      C      -4.1663266477    -2.0627920321    -0.1722520707
   38      O      -5.1039780238    -1.4595196047     0.8037315456
   39      H      -4.6311157795     0.6164955467    -1.7719388930
   40      H      -2.8798372679    -0.9667127477    -1.6675036224
   41      H      -2.4536931045     3.4189492299     0.9928125879
   42      H      -6.4754694923     0.1081938461     0.3346848128
   43      H      -7.2079820066    -1.8928499981    -1.0402125745
   44      H      -6.3392535712    -0.9289227169    -2.2749248575
   45      H      -5.5047442650    -3.5566787883    -1.1212343895
   46      H      -4.5731507800    -2.5940282149    -2.3091188019
   47      H      -3.5531790720    -2.8439612586     0.3174344866
   48      H      -3.9060971470     4.2688925075     0.3558563488
   49      H      -2.3676843659     4.2806971605    -0.5959141184
   50      H       0.1445861542    -1.9624915855     1.3686948842
   51      H       1.4549173533    -3.1164137561     1.8664850741
   52      H       1.0426085918    -2.9264420705     0.1250739921
   53      H       0.4525877370     2.1603413889    -0.8083655399
   54      H       0.1502864300     3.0807171861     0.7343406597
   55      H       0.3838133601     0.0321467788     0.8732031660
   56      H      -0.7093562969     1.0773951836     1.8453837837
 ----------------------------------------------------------------

    9   -1510.2816918697      2.60E-09 Convergence criterion met
 Total energy in the final basis set = -1510.28169187
 Final energy is   -1510.28169186974
 **  OPTIMIZATION CONVERGED  **

                    Orbital Energies (a.u.)
 --------------------------------------------------------------

 Alpha MOs
 -- Occupied --
-18.939 -18.938 -18.934 -18.931 -18.890 -18.885 -18.879 -18.876
-18.875 -18.871 -10.103 -10.102 -10.098 -10.098 -10.072 -10.066
-10.065 -10.062 -10.060 -10.058 -10.057 -10.057 -10.041 -10.040
-10.039 -10.037 -10.022 -10.021 -10.020 -10.019  -1.018  -1.014
 -1.009  -1.008  -0.972  -0.969  -0.940  -0.937  -0.935  -0.933
 -0.765  -0.763  -0.728  -0.723  -0.711  -0.705  -0.697  -0.664
 -0.660  -0.618  -0.598  -0.583  -0.547  -0.546  -0.539  -0.537
 -0.514  -0.510  -0.485  -0.473  -0.464  -0.456  -0.454  -0.449
 -0.443  -0.432  -0.429  -0.416  -0.413  -0.409  -0.407  -0.400
 -0.394  -0.382  -0.373  -0.370  -0.363  -0.360  -0.353  -0.349
 -0.345  -0.338  -0.337  -0.332  -0.332  -0.329  -0.328  -0.314
 -0.310  -0.307  -0.306  -0.298  -0.293  -0.287  -0.281  -0.276
 -0.273  -0.259  -0.253  -0.252  -0.248  -0.235  -0.233  -0.184
 -0.182  -0.174  -0.172  -0.160  -0.157  -0.151  -0.150  -0.144
 -0.143

          Ground-State Mulliken Net Atomic Charges

     Atom                 Charge (a.u.)
  ----------------------------------------
      1 O                    -0.211794
      2 C                     0.206877
      3 C                    -0.078997
      4 C                    -0.077245
      5 C                     0.209936
      6 O                    -0.168508
      7 C                    -0.055667
      8 C                    -0.051016
      9 O                    -0.173062
     10 C                     0.212175
     11 C                    -0.080189
     12 C                    -0.078147
     13 C                     0.210891
     14 O                    -0.212477
     15 O                    -0.165888
     16 O                    -0.172943
     17 O                    -0.213154
     18 C                    -0.135726
     19 C                     0.026508
     20 C                    -0.144721
     21 C                    -0.142976
     22 C                     0.024991
     23 O                    -0.185894
     24 H                     0.086889
     25 H                     0.085132
     26 H                     0.083078
     27 H                     0.078525
     28 H                     0.073781
     29 H                     0.078867
     30 H                     0.073863
     31 H                     0.090850
     32 O                    -0.214908
     33 C                    -0.127639
     34 C                     0.024754
     35 C                    -0.143440
     36 C                    -0.144636
     37 C                     0.024514
     38 O                    -0.187207
     39 H                     0.086097
     40 H                     0.088196
     41 H                     0.086162
     42 H                     0.086993
     43 H                     0.078206
     44 H                     0.073134
     45 H                     0.078418
     46 H                     0.073401
     47 H                     0.088679
     48 H                     0.088259
     49 H                     0.089454
     50 H                     0.102855
     51 H                     0.088676
     52 H                     0.089856
     53 H                     0.101207
     54 H                     0.086768
     55 H                     0.102375
     56 H                     0.085869
  ----------------------------------------
  Sum of atomic charges =     0.000000

                    Cartesian Multipole Moments
 -----------------------------------------------------------------
    Charge (ESU x 10^10)
                 0.0000
    Dipole Moment (Debye)
         X       0.8585      Y       1.9906      Z      -0.5974
       Tot       2.2486
    Quadrupole Moments (Debye-Ang)
        XX    -149.0329     XY       6.1650     YY    -154.5494
        XZ      19.3165     YZ       1.8906     ZZ    -166.6497

 Total job time:  56.21s(wall), 2674.87s(cpu)
        *  Thank you very much for using Q-Chem.  Have a nice day.  *
