 Q-Chem 5.0, Q-Chem, Inc., Pleasanton, CA (2017)
 Q-Chem 5.0.1 for Intel X86 EM64T Linux

User input:
--------------------------------------------------------------
$molecule
0  1
O -4.5286444386 1.8514532521 1.277138783
C -4.152083792 1.5820543665 0.1162579922
C -4.467791193 0.2988794534 -0.7266143584
C -3.3298247927 -0.8133576612 -0.6697837885
C -2.1778592892 -0.5065149286 0.3523302764
O -1.4271352303 0.6124237128 -0.1193379529
C -0.3165088287 0.8921001196 0.8230359514
C 0.5025003896 2.125117432 0.3010086367
O 1.8976467705 1.9258607701 0.7675096936
C 2.5740711336 1.0402108567 -0.1416688378
C 4.0500362118 0.881752497 0.3392896104
C 4.477996167 -0.6266320154 0.5792384714
C 3.3731031682 -1.7494085015 0.5970036538
O 3.6070845084 -2.9657375996 0.42393881
O -3.3789677596 2.4689221716 -0.7015009112
O 2.083236235 -1.2537061243 0.9908487227
O 2.0600597321 0.5802312273 -1.1836085352
C 1.1300988579 -2.3924769229 1.0924309753
C 5.0309413097 1.2648138454 -0.8538099061
C 6.5075947302 1.3568102768 -0.2981751975
C 6.8837462076 -0.1661247811 -0.1726174433
C 5.5250011333 -0.845612014 -0.5970954218
O 5.0319422947 0.0361799533 -1.6799384391
H 4.2044595128 1.5010380983 1.2395740674
H 4.9935777722 -0.7072254064 1.5555001466
H 4.6982724495 2.1336658783 -1.4541681909
H 7.1591648691 1.8793266357 -1.0162016844
H 6.5500135838 1.8862548741 0.6670962391
H 7.6841151819 -0.4414930409 -0.8780224655
H 7.1971174746 -0.4484719182 0.8451564596
H 5.5964559495 -1.8954835765 -0.9427759064
O -1.8780295944 -1.1669447205 1.3737163184
C -3.0117837306 3.6776390552 0.0701459481
C -5.7083102868 -0.5156315713 -0.1634472458
C -6.2333006322 -1.4591095407 -1.314961426
C -5.1029985549 -2.5555447264 -1.3438725896
C -4.1663266477 -2.0627920321 -0.1722520707
O -5.1039780238 -1.4595196047 0.8037315456
H -4.6311157795 0.6164955467 -1.771938893
H -2.8798372679 -0.9667127477 -1.6675036224
H -2.4536931045 3.4189492299 0.9928125879
H -6.4754694923 0.1081938461 0.3346848128
H -7.2079820066 -1.8928499981 -1.0402125745
H -6.3392535712 -0.9289227169 -2.2749248575
H -5.504744265 -3.5566787883 -1.1212343895
H -4.57315078 -2.5940282149 -2.3091188019
H -3.553179072 -2.8439612586 0.3174344866
H -3.906097147 4.2688925075 0.3558563488
H -2.3676843659 4.2806971605 -0.5959141184
H 0.1445861542 -1.9624915855 1.3686948842
H 1.4549173533 -3.1164137561 1.8664850741
H 1.0426085918 -2.9264420705 0.1250739921
H 0.452587737 2.1603413889 -0.8083655399
H 0.15028643 3.0807171861 0.7343406597
H 0.3838133601 0.0321467788 0.873203166
H -0.7093562969 1.0773951836 1.8453837837
$end

$rem
JOBTYPE                   OPT
METHOD                    B3LYP
DFT_D                     d3_op
BASIS                     STO-3G
GEOM_OPT_MAX_CYCLES       100
GEOM_OPT_TOL_GRADIENT     300
GEOM_OPT_TOL_DISPLACEMENT 1200
GEOM_OPT_TOL_ENERGY       100
SYMMETRY                  False
THRESH                    12
SCF_CONVERGENCE           8
MAX_SUB_FILE_NUM          128
MEM_STATIC                400
MEM_TOTAL                 4000
$end
--------------------------------------------------------------

   16   -1510.2817063594      5.79E-09 Convergence criterion met
 Total energy in the final basis set = -1510.28170636
   15   -1510.2578109944      3.87E-09 Convergence criterion met
 Total energy in the final basis set = -1510.25781099
   15   -1510.2833808727      3.51E-09 Convergence criterion met
 Total energy in the final basis set = -1510.28338087
   14   -1510.2838940164      3.77E-09 Convergence criterion met
 Total energy in the final basis set = -1510.28389402
   14   -1510.2850120615      3.18E-09 Convergence criterion met
 Total energy in the final basis set = -1510.28501206
   13   -1510.2859798237      7.69E-09 Convergence criterion met
 Total energy in the final basis set = -1510.28597982
   13   -1510.2868073065      8.28E-09 Convergence criterion met
 Total energy in the final basis set = -1510.28680731
   13   -1510.2875421243      9.50E-09 Convergence criterion met
   12   -1510.2903461417      9.55E-09 Convergence criterion met
 Total energy in the final basis set = -1510.29034614
   12   -1510.2903443525      7.56E-09 Convergence criterion met
 Total energy in the final basis set = -1510.29034435
   11   -1510.2903738174      5.19E-09 Convergence criterion met
 Total energy in the final basis set = -1510.29037382
   12   -1510.2903907140      4.13E-09 Convergence criterion met
 Total energy in the final basis set = -1510.29039071
   11   -1510.2903785563      9.19E-09 Convergence criterion met
 Total energy in the final basis set = -1510.29037856
   11   -1510.2903909758      4.65E-09 Convergence criterion met
 Total energy in the final basis set = -1510.29039098

             Standard Nuclear Orientation (Angstroms)
    I     Atom           X                Y                Z
 ----------------------------------------------------------------
    1      O      -3.6602470191     1.6253038452     1.5594574088
    2      C      -3.9448572191     1.5878822025     0.3429878996
    3      C      -4.5623504178     0.3939193291    -0.4681873380
    4      C      -3.5571575832    -0.8108321551    -0.7180913310
    5      C      -2.1514831572    -0.6221568278    -0.0481766190
    6      O      -1.6887441466     0.7006387907    -0.3245805797
    7      C      -0.4350888353     1.0005755298     0.4127429497
    8      C       0.5974317019     1.6407256681    -0.5767036315
    9      O       1.9207340646     1.6680038586     0.0909026020
   10      C       2.8375666554     0.8025898908    -0.6008980643
   11      C       4.1577629338     0.7319189771     0.2314183346
   12      C       4.5420110823    -0.7496289293     0.6541502396
   13      C       3.5402280450    -1.8473011956     0.1426080317
   14      O       3.8219723486    -2.8694210580    -0.5179954648
   15      O      -3.8171653776     2.7042758180    -0.5496429523
   16      O       2.2183895806    -1.5060083270     0.5743544394
   17      O       2.5838320404     0.2414288589    -1.6896266971
   18      C       1.2461157777    -2.4960478800     0.0489681578
   19      C       5.4307063557     1.1238619987    -0.6382014158
   20      C       6.6364671260     1.3858525606     0.3498195391
   21      C       7.0214754978    -0.0850396588     0.7587125898
   22      C       5.9506126751    -0.9144486188    -0.0513790660
   23      O       5.7927911387    -0.1440394274    -1.3076337799
   24      H       4.0438628089     1.3872999856     1.1122715365
   25      H       4.6183456919    -0.8314515178     1.7541680751
   26      H       5.2495667579     1.9203137288    -1.3857392850
   27      H       7.4628312912     1.8895955289    -0.1764066843
   28      H       6.3364391578     2.0030221413     1.2116330467
   29      H       8.0399866334    -0.3427601590     0.4273700298
   30      H       6.9481249909    -0.2583932803     1.8443063099
   31      H       6.2147069930    -1.9662750836    -0.2756746723
   32      O      -1.5204149390    -1.4759410216     0.6156372503
   33      C      -3.2121311735     3.8516262781     0.1629001030
   34      C      -5.7029153054    -0.3497601501     0.3531873551
   35      C      -6.5517138997    -1.2214526916    -0.6545295764
   36      C      -5.5594332971    -2.4101332702    -0.9382457962
   37      C      -4.3337388355    -2.0076922113    -0.0295055773
   38      O      -4.9627390411    -1.3589183002     1.1444243899
   39      H      -4.9391956760     0.7935453839    -1.4258050232
   40      H      -3.4062189450    -0.9801886571    -1.8007742401
   41      H      -2.1660994173     3.6357589023     0.4620524930
   42      H      -6.2898055022     0.3095149828     1.0216031978
   43      H      -7.4761569166    -1.5749486526    -0.1709022512
   44      H      -6.8201979156    -0.6627853304    -1.5653875131
   45      H      -5.9794793539    -3.3744734149    -0.6110330774
   46      H      -5.2810938246    -2.4891772223    -2.0013606184
   47      H      -3.6745466400    -2.8375452837     0.2922205921
   48      H      -3.7881886058     4.1203376412     1.0716823250
   49      H      -3.2234396804     4.6970320541    -0.5493790555
   50      H       0.2365477820    -2.1338043802     0.3428078154
   51      H       1.4268811459    -3.5014412156     0.4795091231
   52      H       1.3145941745    -2.5698133389    -1.0550165251
   53      H       0.6844797387     1.0290510894    -1.5023114919
   54      H       0.3066990519     2.6790925103    -0.8378715421
   55      H      -0.0232636034     0.0643728198     0.8446623800
   56      H      -0.6809259100     1.6999264732     1.2402005086
 ----------------------------------------------------------------

   11   -1510.2903916804      1.64E-09 Convergence criterion met
 Total energy in the final basis set = -1510.29039168
 Final energy is   -1510.29039168036
 **  OPTIMIZATION CONVERGED  **

                    Orbital Energies (a.u.)
 --------------------------------------------------------------

 Alpha MOs
 -- Occupied --
-18.950 -18.933 -18.932 -18.926 -18.896 -18.890 -18.886 -18.876
-18.871 -18.868 -10.117 -10.101 -10.098 -10.094 -10.074 -10.070
-10.064 -10.062 -10.062 -10.060 -10.056 -10.046 -10.043 -10.039
-10.038 -10.036 -10.023 -10.022 -10.020 -10.019  -1.028  -1.014
 -1.007  -1.003  -0.973  -0.969  -0.953  -0.937  -0.933  -0.930
 -0.768  -0.762  -0.731  -0.723  -0.712  -0.707  -0.698  -0.664
 -0.651  -0.619  -0.599  -0.582  -0.549  -0.544  -0.540  -0.536
 -0.516  -0.508  -0.486  -0.477  -0.463  -0.460  -0.457  -0.450
 -0.439  -0.433  -0.429  -0.417  -0.413  -0.410  -0.404  -0.401
 -0.400  -0.386  -0.373  -0.368  -0.363  -0.360  -0.355  -0.351
 -0.346  -0.337  -0.335  -0.333  -0.330  -0.328  -0.325  -0.314
 -0.309  -0.309  -0.304  -0.303  -0.294  -0.289  -0.282  -0.276
 -0.271  -0.258  -0.253  -0.250  -0.245  -0.237  -0.233  -0.192
 -0.175  -0.175  -0.173  -0.169  -0.160  -0.150  -0.148  -0.146
 -0.143

          Ground-State Mulliken Net Atomic Charges

     Atom                 Charge (a.u.)
  ----------------------------------------
      1 O                    -0.219858
      2 C                     0.212117
      3 C                    -0.079790
      4 C                    -0.077272
      5 C                     0.223379
      6 O                    -0.169523
      7 C                    -0.054500
      8 C                    -0.055859
      9 O                    -0.172898
     10 C                     0.214170
     11 C                    -0.078939
     12 C                    -0.078627
     13 C                     0.211790
     14 O                    -0.209277
     15 O                    -0.169895
     16 O                    -0.177664
     17 O                    -0.214008
     18 C                    -0.144012
     19 C                     0.025819
     20 C                    -0.143753
     21 C                    -0.144119
     22 C                     0.024476
     23 O                    -0.186476
     24 H                     0.086820
     25 H                     0.084719
     26 H                     0.082869
     27 H                     0.077964
     28 H                     0.073355
     29 H                     0.078371
     30 H                     0.073227
     31 H                     0.091616
     32 O                    -0.209195
     33 C                    -0.128269
     34 C                     0.025530
     35 C                    -0.143716
     36 C                    -0.144229
     37 C                     0.024385
     38 O                    -0.186775
     39 H                     0.086653
     40 H                     0.087924
     41 H                     0.083754
     42 H                     0.084907
     43 H                     0.078763
     44 H                     0.073944
     45 H                     0.079303
     46 H                     0.073650
     47 H                     0.090845
     48 H                     0.089673
     49 H                     0.089226
     50 H                     0.106408
     51 H                     0.082982
     52 H                     0.085862
     53 H                     0.103631
     54 H                     0.084222
     55 H                     0.106462
     56 H                     0.089838
  ----------------------------------------
  Sum of atomic charges =    -0.000000

                    Cartesian Multipole Moments
 -----------------------------------------------------------------
    Charge (ESU x 10^10)
                -0.0000
    Dipole Moment (Debye)
         X      -1.3093      Y       2.3202      Z      -0.0510
       Tot       2.6646
    Quadrupole Moments (Debye-Ang)
        XX    -147.6713     XY       7.6897     YY    -155.4395
        XZ      21.3168     YZ       0.0080     ZZ    -167.4730

 Total job time:  112.66s(wall), 5369.13s(cpu)
        *  Thank you very much for using Q-Chem.  Have a nice day.  *
