 Q-Chem 5.0, Q-Chem, Inc., Pleasanton, CA (2017)
 Q-Chem 5.0.1 for Intel X86 EM64T Linux

User input:
--------------------------------------------------------------
$molecule
0  1
O -3.94934 -3.66094 2.70899
C -3.26408 -4.56952 2.26188
C -3.36658 -6.02376 2.66595
C -2.51634 -6.48226 3.86208
C -1.79464 -5.39818 4.6315
O -0.93239 -4.73728 3.80376
C -0.18803 -3.71137 4.46911
C 0.74731 -3.01777 3.48412
O 1.86365 -2.44935 4.18666
C 2.8882 -3.30102 4.43982
C 4.07575 -2.61981 5.07727
C 4.54418 -3.24051 6.4015
C 4.01038 -4.62549 6.70743
O 4.61188 -5.49841 7.31634
O -2.29449 -4.2728 1.35732
O 2.6532 -4.74295 6.70103
O 2.91558 -4.47042 4.0692
C 1.96282 -5.86624 7.11491
C 5.36357 -2.72163 4.2378
C 6.3043 -1.57558 4.60419
C 6.72063 -1.9894 6.00145
C 6.05008 -3.3666 6.09142
O 6.04324 -3.83447 4.76409
H 3.82473 -1.54141 5.20934
H 4.31839 -2.59842 7.28094
H 5.17474 -2.73422 3.14196
H 7.18694 -1.65919 3.92991
H 5.87864 -0.55252 4.52049
H 7.82939 -2.0789 6.02368
H 6.37318 -1.32078 6.81876
H 6.58725 -4.00294 6.82839
O -1.98429 -5.12209 5.81164
C -2.07734 -3.01314 0.83948
C -4.77495 -6.36477 3.2094
C -5.04617 -7.86116 3.06062
C -4.1249 -8.42009 4.12276
C -3.60288 -7.12079 4.74608
O -4.66989 -6.21756 4.60426
H -3.21532 -6.63026 1.74447
H -1.739 -7.21617 3.55393
H -1.84547 -2.29643 1.65475
H -5.58759 -5.78598 2.71736
H -6.09923 -8.0333 3.38014
H -4.90279 -8.27605 2.0398
H -4.73849 -8.99017 4.85537
H -3.29455 -9.05544 3.74528
H -3.254 -7.31128 5.7848
H -2.97745 -2.66796 0.28735
H -1.21904 -3.05066 0.13787
H 0.87317 -5.69022 7.01404
H 2.18433 -6.08252 8.18181
H 2.24453 -6.73877 6.48755
H 1.10557 -3.73401 2.70919
H 0.19007 -2.23326 2.93286
H 0.43658 -4.21817 5.23268
H -0.82996 -2.95762 4.97839
$end

$opt
CONSTRAINT
tors           1           2           3           4     -88.625
tors           3           4           5           6     -60.219
tors           4           5           6           7    -178.711
tors           5           6           7           8    -179.856
tors           6           7           8           9    -154.667
tors           7           8           9          10     +83.957
tors           8           9          10          11    +175.264
tors           9          10          11          12    +125.167
tors          11          12          13          14    +147.062
ENDCONSTRAINT
$end

$rem
JOBTYPE                   OPT
METHOD                    B3LYP
DFT_D                     d3_op
BASIS                     STO-3G
GEOM_OPT_MAX_CYCLES       100
GEOM_OPT_TOL_GRADIENT     300
GEOM_OPT_TOL_DISPLACEMENT 1200
GEOM_OPT_TOL_ENERGY       100
SYMMETRY                  False
THRESH                    12
SCF_CONVERGENCE           8
MAX_SUB_FILE_NUM          128
MEM_STATIC                400
MEM_TOTAL                 4000
$end
--------------------------------------------------------------

   15   -1510.1528275904      6.90E-09 Convergence criterion met
 Total energy in the final basis set = -1510.15282759
   13   -1510.2216897287      8.40E-09 Convergence criterion met
 Total energy in the final basis set = -1510.22168973
   13   -1510.2583301926      7.56E-09 Convergence criterion met
 Total energy in the final basis set = -1510.25833019
   13   -1510.2738594833      8.74E-09 Convergence criterion met
 Total energy in the final basis set = -1510.27385948
   14   -1510.2787167064      4.58E-09 Convergence criterion met
 Total energy in the final basis set = -1510.27871671
    2   -1510.2787167063      1.86E-09 Convergence criterion met
 Total energy in the final basis set = -1510.27871671
   13   -1510.2797429324      9.62E-09 Convergence criterion met
 Total energy in the final basis set = -1510.27974293
   13   -1510.2811627403      4.33E-09 Convergence criterion met
   12   -1510.2830768008      5.15E-09 Convergence criterion met
 Total energy in the final basis set = -1510.28307680
   11   -1510.2831558456      9.62E-09 Convergence criterion met
 Total energy in the final basis set = -1510.28315585
   11   -1510.2832593084      8.17E-09 Convergence criterion met
 Total energy in the final basis set = -1510.28325931
   12   -1510.2833294907      3.36E-09 Convergence criterion met
 Total energy in the final basis set = -1510.28332949
   11   -1510.2833685897      4.97E-09 Convergence criterion met
 Total energy in the final basis set = -1510.28336859
   11   -1510.2833820622      2.91E-09 Convergence criterion met
 Total energy in the final basis set = -1510.28338206

             Standard Nuclear Orientation (Angstroms)
    I     Atom           X                Y                Z
 ----------------------------------------------------------------
    1      O      -4.2332134807     1.8876046978     1.2904040247
    2      C      -4.0182004565     1.6240355027     0.0876883129
    3      C      -4.5087920083     0.3769533084    -0.7252413856
    4      C      -3.5253961206    -0.8716111741    -0.6636772021
    5      C      -2.3356795339    -0.7114191220     0.3496000910
    6      O      -1.5532307680     0.4234544147    -0.0332773986
    7      C      -0.4053718699     0.5716667213     0.8961601384
    8      C       0.4224535361     1.8260502287     0.4446161568
    9      O       1.8253036572     1.6724148187     0.8993147443
   10      C       2.5587326320     0.8776860937    -0.0492069855
   11      C       4.0550277175     0.8418881400     0.4025925777
   12      C       4.6437814056    -0.6195979405     0.5763807653
   13      C       3.6332463369    -1.8168499709     0.4542276788
   14      O       3.8960531806    -2.9484872594    -0.0066293533
   15      O      -3.3240368593     2.4989169374    -0.8113903224
   16      O       2.3775775053    -1.4807392562     1.0611949628
   17      O       2.0633582222     0.3999377500    -1.0921503828
   18      C       1.4615669269    -2.6466707183     0.9830963606
   19      C       4.9827103784     1.3793059098    -0.7744681697
   20      C       6.4356928842     1.6271779071    -0.2025118685
   21      C       6.9881836756     0.1552641876    -0.1179447678
   22      C       5.7244317362    -0.6648201869    -0.5844895119
   23      O       5.1359229005     0.1902378569    -1.6413337432
   24      H       4.1580825487     1.4368516061     1.3264470267
   25      H       5.1313782333    -0.7112942180     1.5653645333
   26      H       4.5506287529     2.2228021599    -1.3470882322
   27      H       7.0256459191     2.2436466583    -0.8991604803
   28      H       6.4106453182     2.1283472252     0.7783433878
   29      H       7.8249822112    -0.0008966890    -0.8171611714
   30      H       7.3176394765    -0.1211322769     0.8964583197
   31      H       5.9204203622    -1.6851100284    -0.9686562209
   32      O      -2.0545409373    -1.4592345416     1.3110635609
   33      C      -2.8445963883     3.6913277842    -0.0773771127
   34      C      -5.8360509924    -0.2619346059    -0.1303591724
   35      C      -6.5008658464    -1.1390430879    -1.2625458625
   36      C      -5.5200132650    -2.3694671892    -1.3041552059
   37      C      -4.5099426168    -1.9978621169    -0.1474288367
   38      O      -5.3456022643    -1.2698116445     0.8366152926
   39      H      -4.6480581294     0.6959219875    -1.7734129304
   40      H      -3.1065700181    -1.0939832550    -1.6623903109
   41      H      -2.1915157750     3.4107048048     0.7732922270
   42      H      -6.5074463862     0.4605793773     0.3725362657
   43      H      -7.5166585265    -1.4434629853    -0.9635360929
   44      H      -6.5596612208    -0.6069200924    -2.2253290809
   45      H      -6.0409873436    -3.3128744196    -1.0767161318
   46      H      -5.0122534644    -2.4718552084    -2.2766226302
   47      H      -3.9965854408    -2.8495470792     0.3397371164
   48      H      -3.6876132689     4.2964360873     0.3151811940
   49      H      -2.2681891648     4.2897523435    -0.8065182160
   50      H       0.5480158790    -2.3665960781     1.5408172750
   51      H       1.9164950416    -3.5493013861     1.4382808710
   52      H       1.1950340026    -2.8776850098    -0.0684050931
   53      H       0.3720548564     1.9091382461    -0.6625067587
   54      H       0.0409678965     2.7547549894     0.9113918535
   55      H       0.2525021276    -0.3202541853     0.8422795321
   56      H      -0.7570675283     0.6776157250     1.9445813256
 ----------------------------------------------------------------

   10   -1510.2833823119      9.67E-09 Convergence criterion met
 Total energy in the final basis set = -1510.28338231
 Final energy is   -1510.28338231191
 **  OPTIMIZATION CONVERGED  **

                    Orbital Energies (a.u.)
 --------------------------------------------------------------

 Alpha MOs
 -- Occupied --
-18.939 -18.937 -18.933 -18.932 -18.889 -18.885 -18.878 -18.878
-18.872 -18.871 -10.103 -10.101 -10.099 -10.097 -10.074 -10.070
-10.064 -10.064 -10.062 -10.059 -10.058 -10.057 -10.041 -10.039
-10.039 -10.036 -10.022 -10.021 -10.019 -10.018  -1.018  -1.015
 -1.009  -1.007  -0.972  -0.968  -0.940  -0.939  -0.934  -0.933
 -0.765  -0.762  -0.728  -0.723  -0.712  -0.705  -0.698  -0.663
 -0.663  -0.618  -0.598  -0.584  -0.547  -0.545  -0.539  -0.537
 -0.514  -0.509  -0.485  -0.472  -0.464  -0.455  -0.453  -0.450
 -0.443  -0.432  -0.429  -0.414  -0.413  -0.411  -0.409  -0.400
 -0.394  -0.383  -0.375  -0.369  -0.364  -0.358  -0.353  -0.348
 -0.347  -0.340  -0.337  -0.332  -0.332  -0.329  -0.327  -0.313
 -0.309  -0.306  -0.305  -0.297  -0.293  -0.287  -0.282  -0.274
 -0.274  -0.257  -0.255  -0.253  -0.250  -0.235  -0.232  -0.183
 -0.180  -0.175  -0.174  -0.159  -0.159  -0.151  -0.148  -0.145
 -0.143

          Ground-State Mulliken Net Atomic Charges

     Atom                 Charge (a.u.)
  ----------------------------------------
      1 O                    -0.214609
      2 C                     0.208708
      3 C                    -0.079637
      4 C                    -0.077427
      5 C                     0.210289
      6 O                    -0.171614
      7 C                    -0.051622
      8 C                    -0.050023
      9 O                    -0.172333
     10 C                     0.212315
     11 C                    -0.079545
     12 C                    -0.078590
     13 C                     0.212653
     14 O                    -0.210587
     15 O                    -0.167025
     16 O                    -0.172239
     17 O                    -0.214537
     18 C                    -0.131731
     19 C                     0.026320
     20 C                    -0.144408
     21 C                    -0.143427
     22 C                     0.024418
     23 O                    -0.186513
     24 H                     0.086875
     25 H                     0.085314
     26 H                     0.082840
     27 H                     0.078366
     28 H                     0.073682
     29 H                     0.078914
     30 H                     0.073550
     31 H                     0.091766
     32 O                    -0.212557
     33 C                    -0.127568
     34 C                     0.025083
     35 C                    -0.143378
     36 C                    -0.144684
     37 C                     0.024210
     38 O                    -0.187332
     39 H                     0.085892
     40 H                     0.086958
     41 H                     0.085463
     42 H                     0.085958
     43 H                     0.078052
     44 H                     0.073191
     45 H                     0.078247
     46 H                     0.073105
     47 H                     0.089406
     48 H                     0.087695
     49 H                     0.089226
     50 H                     0.098068
     51 H                     0.091862
     52 H                     0.091539
     53 H                     0.100164
     54 H                     0.086448
     55 H                     0.095667
     56 H                     0.089143
  ----------------------------------------
  Sum of atomic charges =     0.000000

                    Cartesian Multipole Moments
 -----------------------------------------------------------------
    Charge (ESU x 10^10)
                 0.0000
    Dipole Moment (Debye)
         X       0.7930      Y       1.8479      Z      -0.3866
       Tot       2.0477
    Quadrupole Moments (Debye-Ang)
        XX    -148.9543     XY       6.1585     YY    -154.0476
        XZ      20.8673     YZ       0.4448     ZZ    -167.0378

 Total job time:  51.28s(wall), 2438.39s(cpu)
        *  Thank you very much for using Q-Chem.  Have a nice day.  *
