 Q-Chem 5.0, Q-Chem, Inc., Pleasanton, CA (2017)
 Q-Chem 5.0.1 for Intel X86 EM64T Linux

User input:
--------------------------------------------------------------
$molecule
0  1
O -4.2332134807 1.8876046978 1.2904040247
C -4.0182004565 1.6240355027 0.0876883129
C -4.5087920083 0.3769533084 -0.7252413856
C -3.5253961206 -0.8716111741 -0.6636772021
C -2.3356795339 -0.711419122 0.349600091
O -1.553230768 0.4234544147 -0.0332773986
C -0.4053718699 0.5716667213 0.8961601384
C 0.4224535361 1.8260502287 0.4446161568
O 1.8253036572 1.6724148187 0.8993147443
C 2.558732632 0.8776860937 -0.0492069855
C 4.0550277175 0.84188814 0.4025925777
C 4.6437814056 -0.6195979405 0.5763807653
C 3.6332463369 -1.8168499709 0.4542276788
O 3.8960531806 -2.9484872594 -0.0066293533
O -3.3240368593 2.4989169374 -0.8113903224
O 2.3775775053 -1.4807392562 1.0611949628
O 2.0633582222 0.39993775 -1.0921503828
C 1.4615669269 -2.6466707183 0.9830963606
C 4.9827103784 1.3793059098 -0.7744681697
C 6.4356928842 1.6271779071 -0.2025118685
C 6.9881836756 0.1552641876 -0.1179447678
C 5.7244317362 -0.6648201869 -0.5844895119
O 5.1359229005 0.1902378569 -1.6413337432
H 4.1580825487 1.4368516061 1.3264470267
H 5.1313782333 -0.711294218 1.5653645333
H 4.5506287529 2.2228021599 -1.3470882322
H 7.0256459191 2.2436466583 -0.8991604803
H 6.4106453182 2.1283472252 0.7783433878
H 7.8249822112 -0.000896689 -0.8171611714
H 7.3176394765 -0.1211322769 0.8964583197
H 5.9204203622 -1.6851100284 -0.9686562209
O -2.0545409373 -1.4592345416 1.3110635609
C -2.8445963883 3.6913277842 -0.0773771127
C -5.8360509924 -0.2619346059 -0.1303591724
C -6.5008658464 -1.1390430879 -1.2625458625
C -5.520013265 -2.3694671892 -1.3041552059
C -4.5099426168 -1.9978621169 -0.1474288367
O -5.3456022643 -1.2698116445 0.8366152926
H -4.6480581294 0.6959219875 -1.7734129304
H -3.1065700181 -1.093983255 -1.6623903109
H -2.191515775 3.4107048048 0.773292227
H -6.5074463862 0.4605793773 0.3725362657
H -7.5166585265 -1.4434629853 -0.9635360929
H -6.5596612208 -0.6069200924 -2.2253290809
H -6.0409873436 -3.3128744196 -1.0767161318
H -5.0122534644 -2.4718552084 -2.2766226302
H -3.9965854408 -2.8495470792 0.3397371164
H -3.6876132689 4.2964360873 0.315181194
H -2.2681891648 4.2897523435 -0.806518216
H 0.548015879 -2.3665960781 1.540817275
H 1.9164950416 -3.5493013861 1.438280871
H 1.1950340026 -2.8776850098 -0.0684050931
H 0.3720548564 1.9091382461 -0.6625067587
H 0.0409678965 2.7547549894 0.9113918535
H 0.2525021276 -0.3202541853 0.8422795321
H -0.7570675283 0.677615725 1.9445813256
$end

$rem
JOBTYPE                   OPT
METHOD                    B3LYP
DFT_D                     d3_op
BASIS                     STO-3G
GEOM_OPT_MAX_CYCLES       100
GEOM_OPT_TOL_GRADIENT     300
GEOM_OPT_TOL_DISPLACEMENT 1200
GEOM_OPT_TOL_ENERGY       100
SYMMETRY                  False
THRESH                    12
SCF_CONVERGENCE           8
MAX_SUB_FILE_NUM          128
MEM_STATIC                400
MEM_TOTAL                 4000
$end
--------------------------------------------------------------

   16   -1510.2832312168      7.24E-09 Convergence criterion met
 Total energy in the final basis set = -1510.28323122
   15   -1510.2840120194      1.87E-09 Convergence criterion met
 Total energy in the final basis set = -1510.28401202
   13   -1510.2858999686      9.68E-09 Convergence criterion met
 Total energy in the final basis set = -1510.28589997
   15   -1510.2780241354      2.79E-09 Convergence criterion met
 Total energy in the final basis set = -1510.27802414
   14   -1510.2829103299      2.87E-09 Convergence criterion met
 Total energy in the final basis set = -1510.28291033
   14   -1510.2846352809      5.68E-09 Convergence criterion met
 Total energy in the final basis set = -1510.28463528
   14   -1510.2873242511      5.95E-09 Convergence criterion met
 Total energy in the final basis set = -1510.28732425
   14   -1510.2875954195      9.38E-09 Convergence criterion met
   12   -1510.2904486490      3.00E-09 Convergence criterion met
 Total energy in the final basis set = -1510.29044865
   12   -1510.2904654627      4.15E-09 Convergence criterion met
 Total energy in the final basis set = -1510.29046546
   11   -1510.2904631129      5.19E-09 Convergence criterion met
 Total energy in the final basis set = -1510.29046311
   10   -1510.2904703000      8.82E-09 Convergence criterion met
 Total energy in the final basis set = -1510.29047030
   11   -1510.2904655187      2.60E-09 Convergence criterion met
 Total energy in the final basis set = -1510.29046552
   11   -1510.2904681408      1.66E-09 Convergence criterion met
 Total energy in the final basis set = -1510.29046814

             Standard Nuclear Orientation (Angstroms)
    I     Atom           X                Y                Z
 ----------------------------------------------------------------
    1      O      -3.6563523260     1.6085095749     1.6313896622
    2      C      -3.9250708256     1.5934076633     0.4108982884
    3      C      -4.5637029997     0.4274629194    -0.4250345768
    4      C      -3.5810631417    -0.7878224841    -0.7094744872
    5      C      -2.1693698283    -0.6457993376    -0.0404330376
    6      O      -1.6983455323     0.6855183988    -0.2531769507
    7      C      -0.4429377054     0.9451460522     0.4954287280
    8      C       0.5624699148     1.6897949164    -0.4476179398
    9      O       1.8948566947     1.6838100587     0.2019986707
   10      C       2.8057008337     0.8691335816    -0.5566693219
   11      C       4.1360479065     0.7512320384     0.2530851186
   12      C       4.5286740795    -0.7513483706     0.5835036772
   13      C       3.5266307688    -1.8241781772     0.0214336116
   14      O       3.8101096275    -2.8094304109    -0.6923302174
   15      O      -3.7626707547     2.7190110248    -0.4650344988
   16      O       2.2048692558    -1.5142166885     0.4772789884
   17      O       2.5399940093     0.3804741038    -1.6769788335
   18      C       1.2374965950    -2.4857648579    -0.0909049180
   19      C       5.3965979502     1.1979656693    -0.6081314833
   20      C       6.6142958704     1.4076886823     0.3776295150
   21      C       7.0073559973    -0.0831863855     0.6973608720
   22      C       5.9295402410    -0.8685857945    -0.1469783338
   23      O       5.7543620101    -0.0274815223    -1.3542328602
   24      H       4.0312712012     1.3524184762     1.1728767900
   25      H       4.6190784582    -0.8962559533     1.6759321625
   26      H       5.2030861409     2.0351041952    -1.3065976832
   27      H       7.4327961879     1.9428547839    -0.1295725246
   28      H       6.3240351894     1.9740869068     1.2768592936
   29      H       8.0226352401    -0.3179851179     0.3403019360
   30      H       6.9466136808    -0.3185215242     1.7719385726
   31      H       6.1947836085    -1.9046586524    -0.4345438747
   32      O      -1.5394874517    -1.5382057698     0.5716254045
   33      C      -3.1353125639     3.8410643886     0.2678295742
   34      C      -5.7151031220    -0.3162454732     0.3807440015
   35      C      -6.5844300385    -1.1432829449    -0.6465969947
   36      C      -5.6144817360    -2.3409667295    -0.9693620971
   37      C      -4.3794265876    -1.9888651492    -0.0527127953
   38      O      -4.9927469729    -1.3615258209     1.1408150368
   39      H      -4.9361712293     0.8566193699    -1.3715522882
   40      H      -3.4359825250    -0.9307940282    -1.7968150956
   41      H      -2.0959911837     3.5965823952     0.5684569677
   42      H      -6.2860894470     0.3358473980     1.0696074785
   43      H      -7.5123370074    -1.4945371009    -0.1679606385
   44      H      -6.8477914901    -0.5546451364    -1.5399195714
   45      H      -6.0512128178    -3.3069493601    -0.6702216073
   46      H      -5.3402037713    -2.3924728121    -2.0351837700
   47      H      -3.7358877847    -2.8403555316     0.2432493787
   48      H      -3.7094041947     4.1090795555     1.1780557535
   49      H      -3.1235024309     4.6973482045    -0.4313203133
   50      H       0.2283070524    -2.1616463658     0.2457441195
   51      H       1.4447505970    -3.5137078075     0.2683216581
   52      H       1.2826588291    -2.4855367881    -1.1985865365
   53      H       0.6458991847     1.1619765608    -1.4235921312
   54      H       0.2504391084     2.7415289326    -0.6120693820
   55      H      -0.0045817462    -0.0147642780     0.8398659472
   56      H      -0.6907285615     1.5647566239     1.3838689151
 ----------------------------------------------------------------

    9   -1510.2904681579      4.63E-09 Convergence criterion met
 Total energy in the final basis set = -1510.29046816
 Final energy is   -1510.29046815791
 **  OPTIMIZATION CONVERGED  **

                    Orbital Energies (a.u.)
 --------------------------------------------------------------

 Alpha MOs
 -- Occupied --
-18.950 -18.933 -18.931 -18.927 -18.896 -18.890 -18.886 -18.876
-18.872 -18.868 -10.117 -10.101 -10.098 -10.094 -10.075 -10.070
-10.064 -10.062 -10.061 -10.060 -10.056 -10.046 -10.044 -10.039
-10.038 -10.036 -10.023 -10.022 -10.020 -10.019  -1.028  -1.014
 -1.006  -1.004  -0.973  -0.969  -0.953  -0.938  -0.932  -0.930
 -0.767  -0.763  -0.731  -0.723  -0.712  -0.707  -0.698  -0.664
 -0.652  -0.619  -0.599  -0.582  -0.549  -0.544  -0.540  -0.536
 -0.516  -0.508  -0.486  -0.477  -0.462  -0.460  -0.457  -0.450
 -0.440  -0.433  -0.430  -0.417  -0.413  -0.409  -0.404  -0.401
 -0.401  -0.387  -0.373  -0.368  -0.363  -0.361  -0.355  -0.351
 -0.346  -0.337  -0.334  -0.333  -0.330  -0.328  -0.326  -0.314
 -0.309  -0.309  -0.304  -0.303  -0.294  -0.289  -0.282  -0.276
 -0.271  -0.258  -0.253  -0.250  -0.246  -0.237  -0.233  -0.192
 -0.175  -0.174  -0.173  -0.169  -0.160  -0.149  -0.148  -0.146
 -0.143

          Ground-State Mulliken Net Atomic Charges

     Atom                 Charge (a.u.)
  ----------------------------------------
      1 O                    -0.220406
      2 C                     0.212606
      3 C                    -0.079933
      4 C                    -0.077281
      5 C                     0.223329
      6 O                    -0.169332
      7 C                    -0.054364
      8 C                    -0.055739
      9 O                    -0.172876
     10 C                     0.214073
     11 C                    -0.079060
     12 C                    -0.078619
     13 C                     0.211725
     14 O                    -0.209230
     15 O                    -0.170197
     16 O                    -0.177629
     17 O                    -0.213817
     18 C                    -0.143884
     19 C                     0.025927
     20 C                    -0.143758
     21 C                    -0.144157
     22 C                     0.024523
     23 O                    -0.186532
     24 H                     0.086910
     25 H                     0.084763
     26 H                     0.082924
     27 H                     0.078018
     28 H                     0.073382
     29 H                     0.078415
     30 H                     0.073237
     31 H                     0.091672
     32 O                    -0.209332
     33 C                    -0.128291
     34 C                     0.025509
     35 C                    -0.143702
     36 C                    -0.144235
     37 C                     0.024335
     38 O                    -0.187016
     39 H                     0.086575
     40 H                     0.087894
     41 H                     0.083285
     42 H                     0.085028
     43 H                     0.078736
     44 H                     0.073936
     45 H                     0.079255
     46 H                     0.073636
     47 H                     0.090751
     48 H                     0.089647
     49 H                     0.089069
     50 H                     0.106226
     51 H                     0.083514
     52 H                     0.085738
     53 H                     0.103945
     54 H                     0.084157
     55 H                     0.106255
     56 H                     0.090391
  ----------------------------------------
  Sum of atomic charges =     0.000000

                    Cartesian Multipole Moments
 -----------------------------------------------------------------
    Charge (ESU x 10^10)
                -0.0000
    Dipole Moment (Debye)
         X      -1.2222      Y       2.2225      Z       0.0713
       Tot       2.5374
    Quadrupole Moments (Debye-Ang)
        XX    -147.5266     XY       6.7336     YY    -155.3665
        XZ      21.6819     YZ       0.4011     ZZ    -167.9382

 Total job time:  108.55s(wall), 5161.13s(cpu)
        *  Thank you very much for using Q-Chem.  Have a nice day.  *
