 Q-Chem 5.0, Q-Chem, Inc., Pleasanton, CA (2017)
 Q-Chem 5.0.1 for Intel X86 EM64T Linux

User input:
--------------------------------------------------------------
$molecule
0  1
O -3.94934 -3.66094 2.70899
C -3.26408 -4.56952 2.26188
C -3.36658 -6.02376 2.66595
C -2.42296 -6.51246 3.77708
C -1.60663 -5.45266 4.48314
O -0.65027 -4.96464 3.63897
C 0.20763 -3.99992 4.25751
C 1.24212 -3.49759 3.2557
O 2.4493 -3.1299 3.94156
C 3.39841 -4.09615 4.01015
C 4.77426 -3.54935 4.30798
C 5.49683 -4.22078 5.48499
C 4.91577 -5.54062 5.95094
O 5.54841 -6.57265 6.12192
O -2.23592 -4.26217 1.42853
O 3.63932 -5.4909 6.41965
O 3.2058 -5.26931 3.70797
C 2.95773 -6.56634 6.94962
C 5.79792 -3.79138 3.17934
C 6.90231 -2.73947 3.26101
C 7.60722 -3.16942 4.53279
C 6.86597 -4.48063 4.82788
O 6.48799 -4.95788 3.55888
H 4.68206 -2.44877 4.4627
H 5.53465 -3.55567 6.37551
H 5.34241 -3.79845 2.16493
H 7.58051 -2.92556 2.39714
H 6.57106 -1.67899 3.23923
H 8.67856 -3.35125 4.29447
H 7.51791 -2.46341 5.38686
H 7.50901 -5.15618 5.43345
O -1.73585 -5.1259 5.6587
C -1.93575 -2.98561 1.00202
C -4.7304 -6.32575 3.33286
C -5.05553 -7.81404 3.21423
C -4.06625 -8.39495 4.19904
C -3.45033 -7.10884 4.76011
O -4.49806 -6.17508 4.71029
H -3.31828 -6.62426 1.72994
H -1.70978 -7.29022 3.42374
H -1.69896 -2.33737 1.87272
H -5.56819 -5.72751 2.91122
H -6.08314 -7.95796 3.61909
H -5.00597 -8.23263 2.18607
H -4.63355 -8.93385 4.99034
H -3.29555 -9.06509 3.76032
H -3.01699 -7.30661 5.76534
H -2.79255 -2.55934 0.43772
H -1.05035 -3.02406 0.33491
H 1.93894 -6.24087 7.24428
H 3.4856 -6.95024 7.84856
H 2.86952 -7.37313 6.19096
H 1.44299 -4.30643 2.51548
H 0.84385 -2.65693 2.64997
H 0.75608 -4.53866 5.0647
H -0.33732 -3.1402 4.70828
$end

$opt
CONSTRAINT
tors           1           2           3           4     -94.067
tors           3           4           5           6     -70.432
tors           4           5           6           7    -177.144
tors           5           6           7           8    -179.754
tors           6           7           8           9    -150.105
tors           7           8           9          10     +94.073
tors           8           9          10          11    +160.765
tors           9          10          11          12    +128.103
tors          11          12          13          14    +129.560
ENDCONSTRAINT
$end

$rem
JOBTYPE                   OPT
METHOD                    B3LYP
DFT_D                     d3_op
BASIS                     STO-3G
GEOM_OPT_MAX_CYCLES       100
GEOM_OPT_TOL_GRADIENT     300
GEOM_OPT_TOL_DISPLACEMENT 1200
GEOM_OPT_TOL_ENERGY       100
SYMMETRY                  False
THRESH                    12
SCF_CONVERGENCE           8
MAX_SUB_FILE_NUM          128
MEM_STATIC                400
MEM_TOTAL                 4000
$end
--------------------------------------------------------------

   15   -1510.1528782653      8.22E-09 Convergence criterion met
 Total energy in the final basis set = -1510.15287827
   14   -1510.2211235940      7.11E-09 Convergence criterion met
 Total energy in the final basis set = -1510.22112359
   13   -1510.2572507620      9.89E-09 Convergence criterion met
 Total energy in the final basis set = -1510.25725076
   13   -1510.2722907992      8.86E-09 Convergence criterion met
 Total energy in the final basis set = -1510.27229080
   14   -1510.2767297170      4.60E-09 Convergence criterion met
 Total energy in the final basis set = -1510.27672972
   12   -1510.2781578610      9.68E-09 Convergence criterion met
 Total energy in the final basis set = -1510.27815786
   13   -1510.2788051228      2.27E-09 Convergence criterion met
 Total energy in the final basis set = -1510.27880512
   12   -1510.2791715013      5.35E-09 Convergence criterion met
   12   -1510.2802960153      2.80E-09 Convergence criterion met
 Total energy in the final basis set = -1510.28029602
   11   -1510.2803220093      3.54E-09 Convergence criterion met
 Total energy in the final basis set = -1510.28032201
   11   -1510.2803513777      5.18E-09 Convergence criterion met
 Total energy in the final basis set = -1510.28035138
   11   -1510.2803622818      3.45E-09 Convergence criterion met
 Total energy in the final basis set = -1510.28036228
   11   -1510.2803669236      3.61E-09 Convergence criterion met
 Total energy in the final basis set = -1510.28036692
   10   -1510.2803681537      4.32E-09 Convergence criterion met
 Total energy in the final basis set = -1510.28036815

             Standard Nuclear Orientation (Angstroms)
    I     Atom           X                Y                Z
 ----------------------------------------------------------------
    1      O      -4.6326131352     1.9101289859     1.2048152451
    2      C      -4.2019240086     1.5999152555     0.0733404688
    3      C      -4.5746478455     0.3458504214    -0.7896901120
    4      C      -3.5798839051    -0.8836846954    -0.6011208253
    5      C      -2.5142207373    -0.6602561951     0.5318853896
    6      O      -1.5835593094     0.3317007151     0.0860842207
    7      C      -0.5178886772     0.5236360929     1.1012104758
    8      C       0.4533258769     1.6270892976     0.5403252181
    9      O       1.8303286057     1.4045392599     1.0409977236
   10      C       2.5851407596     0.6319618385     0.0914952069
   11      C       4.1104094721     0.8281172321     0.3872487044
   12      C       4.8887804643    -0.5473140408     0.5321717061
   13      C       3.9505439597    -1.8018065614     0.4297912092
   14      O       4.0991725348    -2.8077484797    -0.2939839938
   15      O      -3.2836637934     2.4010961178    -0.6809451970
   16      O       2.8628696368    -1.6183800498     1.3485764395
   17      O       2.0730661874     0.0263549861    -0.8753037030
   18      C       1.8788823651    -2.7148917299     1.1975879894
   19      C       4.8476414422     1.4398566133    -0.8836791307
   20      C       6.2903564915     1.9119269380    -0.4448209072
   21      C       7.0439801832     0.5339799890    -0.3352169346
   22      C       5.8841687640    -0.4741170148    -0.6955219068
   23      O       5.1043675555     0.2515338763    -1.7266891653
   24      H       4.2205336911     1.4625285639     1.2835730837
   25      H       5.4283946907    -0.5929137867     1.4961451599
   26      H       4.2553445377     2.1904132393    -1.4423494523
   27      H       6.7352414439     2.5570818522    -1.2189210446
   28      H       6.2732972372     2.4647080040     0.5081123638
   29      H       7.8607347985     0.4619480194    -1.0709888431
   30      H       7.4557064745     0.3524445118     0.6703576360
   31      H       6.1997250871    -1.4652252348    -1.0758061524
   32      O      -2.4337699975    -1.2499125186     1.6305156059
   33      C      -2.8608318887     3.5717319106     0.1207030814
   34      C      -5.9486595167    -0.3142575484    -0.3458274355
   35      C      -6.4576422975    -1.2212003491    -1.5332205967
   36      C      -5.4574881839    -2.4338583644    -1.4349114447
   37      C      -4.5958266456    -2.0203679694    -0.1763289556
   38      O      -5.5550275048    -1.2958986926     0.6899387876
   39      H      -4.5954427240     0.6588956058    -1.8488690397
   40      H      -3.0509656526    -1.1103643167    -1.5446321680
   41      H      -2.4008420034     3.2629242050     1.0813260451
   42      H      -6.6877980894     0.4016682775     0.0629265214
   43      H      -7.4962938860    -1.5409188114    -1.3524596982
   44      H      -6.4102458422    -0.7057846745    -2.5057315594
   45      H      -5.9860862563    -3.3820858596    -1.2486894466
   46      H      -4.8375992728    -2.5459914984    -2.3390171598
   47      H      -4.1287619912    -2.8546365170     0.3820603544
   48      H      -3.7132567123     4.2464037143     0.3422923086
   49      H      -2.1144370657     4.1089821702    -0.4927227639
   50      H       1.1334830152    -2.5748304274     2.0022460138
   51      H       2.3560322668    -3.7104508092     1.2990055089
   52      H       1.3747631726    -2.6619357717     0.2103835260
   53      H       0.4272343073     1.5788985363    -0.5695098314
   54      H       0.1499147207     2.6359866641     0.8834767935
   55      H       0.0485584674    -0.4212469808     1.2514316326
   56      H      -0.9499992543     0.8210516731     2.0806605795
 ----------------------------------------------------------------

    9   -1510.2803686416      5.22E-09 Convergence criterion met
 Total energy in the final basis set = -1510.28036864
 Final energy is   -1510.28036864161
 **  OPTIMIZATION CONVERGED  **

                    Orbital Energies (a.u.)
 --------------------------------------------------------------

 Alpha MOs
 -- Occupied --
-18.936 -18.934 -18.934 -18.932 -18.889 -18.885 -18.881 -18.877
-18.875 -18.873 -10.101 -10.100 -10.099 -10.098 -10.075 -10.072
-10.066 -10.064 -10.063 -10.059 -10.058 -10.057 -10.040 -10.039
-10.038 -10.037 -10.023 -10.021 -10.019 -10.018  -1.017  -1.014
 -1.009  -1.007  -0.972  -0.968  -0.940  -0.938  -0.935  -0.934
 -0.765  -0.762  -0.728  -0.723  -0.712  -0.705  -0.698  -0.664
 -0.663  -0.617  -0.597  -0.583  -0.548  -0.546  -0.539  -0.537
 -0.514  -0.509  -0.486  -0.471  -0.464  -0.455  -0.454  -0.449
 -0.444  -0.432  -0.428  -0.414  -0.414  -0.412  -0.410  -0.400
 -0.395  -0.381  -0.374  -0.368  -0.365  -0.357  -0.354  -0.349
 -0.348  -0.342  -0.340  -0.333  -0.332  -0.329  -0.328  -0.312
 -0.309  -0.307  -0.305  -0.295  -0.292  -0.285  -0.281  -0.276
 -0.273  -0.257  -0.255  -0.253  -0.249  -0.236  -0.232  -0.182
 -0.180  -0.176  -0.173  -0.160  -0.158  -0.152  -0.149  -0.145
 -0.142

          Ground-State Mulliken Net Atomic Charges

     Atom                 Charge (a.u.)
  ----------------------------------------
      1 O                    -0.211361
      2 C                     0.206629
      3 C                    -0.078995
      4 C                    -0.077270
      5 C                     0.206913
      6 O                    -0.171728
      7 C                    -0.048775
      8 C                    -0.050189
      9 O                    -0.174428
     10 C                     0.212196
     11 C                    -0.078488
     12 C                    -0.078872
     13 C                     0.214652
     14 O                    -0.206168
     15 O                    -0.166422
     16 O                    -0.172929
     17 O                    -0.216003
     18 C                    -0.130466
     19 C                     0.025949
     20 C                    -0.143962
     21 C                    -0.143712
     22 C                     0.024244
     23 O                    -0.185980
     24 H                     0.087071
     25 H                     0.085211
     26 H                     0.082521
     27 H                     0.078507
     28 H                     0.073895
     29 H                     0.078778
     30 H                     0.073462
     31 H                     0.091362
     32 O                    -0.209371
     33 C                    -0.127942
     34 C                     0.024957
     35 C                    -0.143512
     36 C                    -0.144538
     37 C                     0.024740
     38 O                    -0.186479
     39 H                     0.085938
     40 H                     0.087142
     41 H                     0.086045
     42 H                     0.086571
     43 H                     0.078070
     44 H                     0.073054
     45 H                     0.078237
     46 H                     0.073165
     47 H                     0.088366
     48 H                     0.088503
     49 H                     0.088987
     50 H                     0.091851
     51 H                     0.092299
     52 H                     0.092263
     53 H                     0.100970
     54 H                     0.086405
     55 H                     0.090410
     56 H                     0.088228
  ----------------------------------------
  Sum of atomic charges =     0.000000

                    Cartesian Multipole Moments
 -----------------------------------------------------------------
    Charge (ESU x 10^10)
                 0.0000
    Dipole Moment (Debye)
         X       1.3293      Y       2.0315      Z      -0.4976
       Tot       2.4782
    Quadrupole Moments (Debye-Ang)
        XX    -152.3594     XY       6.6781     YY    -152.4989
        XZ      22.2433     YZ      -0.5874     ZZ    -167.4755

 Total job time:  52.96s(wall), 2515.12s(cpu)
        *  Thank you very much for using Q-Chem.  Have a nice day.  *
