 Q-Chem 5.0, Q-Chem, Inc., Pleasanton, CA (2017)
 Q-Chem 5.0.1 for Intel X86 EM64T Linux

User input:
--------------------------------------------------------------
$molecule
0  1
O -4.6326131352 1.9101289859 1.2048152451
C -4.2019240086 1.5999152555 0.0733404688
C -4.5746478455 0.3458504214 -0.789690112
C -3.5798839051 -0.8836846954 -0.6011208253
C -2.5142207373 -0.6602561951 0.5318853896
O -1.5835593094 0.3317007151 0.0860842207
C -0.5178886772 0.5236360929 1.1012104758
C 0.4533258769 1.6270892976 0.5403252181
O 1.8303286057 1.4045392599 1.0409977236
C 2.5851407596 0.6319618385 0.0914952069
C 4.1104094721 0.8281172321 0.3872487044
C 4.8887804643 -0.5473140408 0.5321717061
C 3.9505439597 -1.8018065614 0.4297912092
O 4.0991725348 -2.8077484797 -0.2939839938
O -3.2836637934 2.4010961178 -0.680945197
O 2.8628696368 -1.6183800498 1.3485764395
O 2.0730661874 0.0263549861 -0.875303703
C 1.8788823651 -2.7148917299 1.1975879894
C 4.8476414422 1.4398566133 -0.8836791307
C 6.2903564915 1.911926938 -0.4448209072
C 7.0439801832 0.533979989 -0.3352169346
C 5.884168764 -0.4741170148 -0.6955219068
O 5.1043675555 0.2515338763 -1.7266891653
H 4.2205336911 1.4625285639 1.2835730837
H 5.4283946907 -0.5929137867 1.4961451599
H 4.2553445377 2.1904132393 -1.4423494523
H 6.7352414439 2.5570818522 -1.2189210446
H 6.2732972372 2.464708004 0.5081123638
H 7.8607347985 0.4619480194 -1.0709888431
H 7.4557064745 0.3524445118 0.670357636
H 6.1997250871 -1.4652252348 -1.0758061524
O -2.4337699975 -1.2499125186 1.6305156059
C -2.8608318887 3.5717319106 0.1207030814
C -5.9486595167 -0.3142575484 -0.3458274355
C -6.4576422975 -1.2212003491 -1.5332205967
C -5.4574881839 -2.4338583644 -1.4349114447
C -4.5958266456 -2.0203679694 -0.1763289556
O -5.5550275048 -1.2958986926 0.6899387876
H -4.595442724 0.6588956058 -1.8488690397
H -3.0509656526 -1.1103643167 -1.544632168
H -2.4008420034 3.262924205 1.0813260451
H -6.6877980894 0.4016682775 0.0629265214
H -7.496293886 -1.5409188114 -1.3524596982
H -6.4102458422 -0.7057846745 -2.5057315594
H -5.9860862563 -3.3820858596 -1.2486894466
H -4.8375992728 -2.5459914984 -2.3390171598
H -4.1287619912 -2.854636517 0.3820603544
H -3.7132567123 4.2464037143 0.3422923086
H -2.1144370657 4.1089821702 -0.4927227639
H 1.1334830152 -2.5748304274 2.0022460138
H 2.3560322668 -3.7104508092 1.2990055089
H 1.3747631726 -2.6619357717 0.210383526
H 0.4272343073 1.5788985363 -0.5695098314
H 0.1499147207 2.6359866641 0.8834767935
H 0.0485584674 -0.4212469808 1.2514316326
H -0.9499992543 0.8210516731 2.0806605795
$end

$rem
JOBTYPE                   OPT
METHOD                    B3LYP
DFT_D                     d3_op
BASIS                     STO-3G
GEOM_OPT_MAX_CYCLES       100
GEOM_OPT_TOL_GRADIENT     300
GEOM_OPT_TOL_DISPLACEMENT 1200
GEOM_OPT_TOL_ENERGY       100
SYMMETRY                  False
THRESH                    12
SCF_CONVERGENCE           8
MAX_SUB_FILE_NUM          128
MEM_STATIC                400
MEM_TOTAL                 4000
$end
--------------------------------------------------------------

   16   -1510.2804037296      5.78E-09 Convergence criterion met
 Total energy in the final basis set = -1510.28040373
   14   -1510.2822392103      4.15E-09 Convergence criterion met
 Total energy in the final basis set = -1510.28223921
   14   -1510.2843475317      2.30E-09 Convergence criterion met
 Total energy in the final basis set = -1510.28434753
   14   -1510.2857065412      1.99E-09 Convergence criterion met
 Total energy in the final basis set = -1510.28570654
   14   -1510.2839803273      3.54E-09 Convergence criterion met
 Total energy in the final basis set = -1510.28398033
   15   -1510.2849522935      2.65E-09 Convergence criterion met
 Total energy in the final basis set = -1510.28495229
   15   -1510.2861548968      2.31E-09 Convergence criterion met
 Total energy in the final basis set = -1510.28615490
   13   -1510.2872292632      8.45E-09 Convergence criterion met
   12   -1510.2903590524      4.44E-09 Convergence criterion met
 Total energy in the final basis set = -1510.29035905
   12   -1510.2903867065      4.76E-09 Convergence criterion met
 Total energy in the final basis set = -1510.29038671
   12   -1510.2904095973      3.54E-09 Convergence criterion met
 Total energy in the final basis set = -1510.29040960
   11   -1510.2904059600      6.31E-09 Convergence criterion met
 Total energy in the final basis set = -1510.29040596
   11   -1510.2904119596      4.74E-09 Convergence criterion met
 Total energy in the final basis set = -1510.29041196
    9   -1510.2904076790      8.22E-09 Convergence criterion met
 Total energy in the final basis set = -1510.29040768

             Standard Nuclear Orientation (Angstroms)
    I     Atom           X                Y                Z
 ----------------------------------------------------------------
    1      O      -3.6438154762     1.5515000539     1.6169731530
    2      C      -3.9203836135     1.5272721372     0.3983546718
    3      C      -4.5476105038     0.3481568467    -0.4279117346
    4      C      -3.5490333195    -0.8530426851    -0.7171142983
    5      C      -2.1325598039    -0.6864786053    -0.0635294863
    6      O      -1.6872354042     0.6536443805    -0.2761449339
    7      C      -0.4357813197     0.9352829107     0.4710963796
    8      C       0.5438657522     1.7252192579    -0.4622992740
    9      O       1.8772014185     1.7462764817     0.1851307654
   10      C       2.8043185426     0.9529610312    -0.5762014721
   11      C       4.1328006445     0.8495594543     0.2384271311
   12      C       4.5561213118    -0.6511284133     0.5394664152
   13      C       3.5796301671    -1.7322874187    -0.0510602993
   14      O       3.8849163648    -2.6861605187    -0.7976084082
   15      O      -3.7823904402     2.6522540911    -0.4825960756
   16      O       2.2534357896    -1.4721626057     0.4226311323
   17      O       2.5500167085     0.4661411800    -1.6999470769
   18      C       1.3079608419    -2.4519823799    -0.1676011121
   19      C       5.3883500258     1.3419148025    -0.6050566777
   20      C       6.5961937902     1.5559634490     0.3917080771
   21      C       7.0183397192     0.0671160628     0.6824796820
   22      C       5.9627170856    -0.7222835755    -0.1855752059
   23      O       5.7763355038     0.1409623752    -1.3754054834
   24      H       4.0084897173     1.4284683011     1.1701164911
   25      H       4.6437529101    -0.8169415809     1.6290945228
   26      H       5.1809830884     2.1898489647    -1.2863509681
   27      H       7.4060442018     2.1181367514    -0.0999113372
   28      H       6.2903370425     2.0979234487     1.3007740003
   29      H       8.0406988781    -0.1384361781     0.3277025123
   30      H       6.9553081076    -0.1923910575     1.7512985881
   31      H       6.2518326188    -1.7458720641    -0.4941058949
   32      O      -1.4803845736    -1.5696421459     0.5385655010
   33      C      -3.1714592604     3.7878432539     0.2432353877
   34      C      -5.6787387815    -0.4099594264     0.3931512052
   35      C      -6.5447289131    -1.2570091244    -0.6206024809
   36      C      -5.5595186113    -2.4415062330    -0.9452300118
   37      C      -4.3203060174    -2.0629808659    -0.0447406571
   38      O      -4.9310365946    -1.4385586955     1.1516429816
   39      H      -4.9363435099     0.7674892590    -1.3722917474
   40      H      -3.4137194478    -0.9998030889    -1.8052088721
   41      H      -2.1295325093     3.5600564849     0.5477499361
   42      H      -6.2533847639     0.2365176100     1.0842690419
   43      H      -7.4626286245    -1.6193589238    -0.1310639754
   44      H      -6.8253460328    -0.6781985245    -1.5150129530
   45      H      -5.9775729185    -3.4120422783    -0.6342276351
   46      H      -5.2962323019    -2.4967609080    -2.0136631089
   47      H      -3.6592947843    -2.9017410514     0.2490619702
   48      H      -3.7508881156     4.0548074875     1.1504266515
   49      H      -3.1701714138     4.6391366620    -0.4620902379
   50      H       0.2928163696    -2.1598740834     0.1803171585
   51      H       1.5404548933    -3.4833945437     0.1653583967
   52      H       1.3495917409    -2.4228645462    -1.2750401952
   53      H       0.6388366458     1.2163353600    -1.4471511944
   54      H       0.2019050325     2.7704093212    -0.6071064206
   55      H       0.0325250193    -0.0174419029     0.7955629385
   56      H      -0.6956610977     1.5315077896     1.3720529464
 ----------------------------------------------------------------

    9   -1510.2904082053      3.94E-09 Convergence criterion met
 Total energy in the final basis set = -1510.29040821
 Final energy is   -1510.29040820535
 **  OPTIMIZATION CONVERGED  **

                    Orbital Energies (a.u.)
 --------------------------------------------------------------

 Alpha MOs
 -- Occupied --
-18.950 -18.934 -18.931 -18.927 -18.896 -18.890 -18.887 -18.877
-18.871 -18.868 -10.117 -10.101 -10.098 -10.094 -10.075 -10.071
-10.064 -10.062 -10.061 -10.060 -10.056 -10.046 -10.043 -10.039
-10.038 -10.036 -10.023 -10.022 -10.020 -10.019  -1.028  -1.014
 -1.006  -1.003  -0.973  -0.969  -0.953  -0.938  -0.932  -0.930
 -0.767  -0.763  -0.731  -0.723  -0.712  -0.707  -0.698  -0.664
 -0.652  -0.619  -0.599  -0.582  -0.549  -0.544  -0.540  -0.536
 -0.516  -0.508  -0.486  -0.477  -0.462  -0.460  -0.457  -0.451
 -0.440  -0.433  -0.430  -0.417  -0.413  -0.409  -0.404  -0.401
 -0.401  -0.387  -0.373  -0.368  -0.363  -0.360  -0.355  -0.351
 -0.346  -0.337  -0.334  -0.333  -0.330  -0.328  -0.326  -0.314
 -0.309  -0.309  -0.304  -0.303  -0.294  -0.289  -0.282  -0.276
 -0.271  -0.258  -0.253  -0.251  -0.246  -0.237  -0.233  -0.192
 -0.176  -0.174  -0.173  -0.169  -0.160  -0.149  -0.148  -0.146
 -0.143

          Ground-State Mulliken Net Atomic Charges

     Atom                 Charge (a.u.)
  ----------------------------------------
      1 O                    -0.220603
      2 C                     0.212673
      3 C                    -0.079945
      4 C                    -0.077314
      5 C                     0.223319
      6 O                    -0.169214
      7 C                    -0.054423
      8 C                    -0.055586
      9 O                    -0.172894
     10 C                     0.213892
     11 C                    -0.079050
     12 C                    -0.078655
     13 C                     0.211751
     14 O                    -0.209170
     15 O                    -0.170232
     16 O                    -0.177884
     17 O                    -0.213507
     18 C                    -0.143899
     19 C                     0.025941
     20 C                    -0.143758
     21 C                    -0.144178
     22 C                     0.024552
     23 O                    -0.186472
     24 H                     0.086954
     25 H                     0.084717
     26 H                     0.082887
     27 H                     0.078037
     28 H                     0.073422
     29 H                     0.078403
     30 H                     0.073248
     31 H                     0.091627
     32 O                    -0.209334
     33 C                    -0.128251
     34 C                     0.025500
     35 C                    -0.143740
     36 C                    -0.144217
     37 C                     0.024322
     38 O                    -0.187040
     39 H                     0.086538
     40 H                     0.087891
     41 H                     0.083303
     42 H                     0.085020
     43 H                     0.078731
     44 H                     0.073940
     45 H                     0.079256
     46 H                     0.073626
     47 H                     0.090781
     48 H                     0.089489
     49 H                     0.089056
     50 H                     0.106102
     51 H                     0.083328
     52 H                     0.085816
     53 H                     0.104004
     54 H                     0.084328
     55 H                     0.106304
     56 H                     0.090608
  ----------------------------------------
  Sum of atomic charges =     0.000000

                    Cartesian Multipole Moments
 -----------------------------------------------------------------
    Charge (ESU x 10^10)
                -0.0000
    Dipole Moment (Debye)
         X      -1.2987      Y       2.1442      Z       0.1186
       Tot       2.5096
    Quadrupole Moments (Debye-Ang)
        XX    -147.7917     XY       6.7401     YY    -154.8673
        XZ      21.8001     YZ       0.7760     ZZ    -168.1976

 Total job time:  102.59s(wall), 4883.19s(cpu)
        *  Thank you very much for using Q-Chem.  Have a nice day.  *
