 Q-Chem 5.0, Q-Chem, Inc., Pleasanton, CA (2017)
 Q-Chem 5.0.1 for Intel X86 EM64T Linux

User input:
--------------------------------------------------------------
$molecule
0  1
O -3.94934 -3.66094 2.70899
C -3.26408 -4.56952 2.26188
C -3.36658 -6.02376 2.66595
C -2.42296 -6.51246 3.77708
C -1.60663 -5.45266 4.48314
O -0.7465 -4.86461 3.60008
C 0.0844 -3.86686 4.20287
C 1.01217 -3.25449 3.15866
O 2.29044 -2.96798 3.74759
C 3.15215 -4.01342 3.80793
C 4.49716 -3.63494 4.38095
C 4.83522 -4.29176 5.72727
C 3.97229 -5.4737 6.12104
O 4.38197 -6.5244 6.593
O -2.26402 -4.26583 1.39354
O 2.64798 -5.21158 6.28436
O 2.8748 -5.15704 3.46224
C 1.74364 -6.11231 6.81664
C 5.69625 -4.08391 3.52643
C 6.89697 -3.18733 3.82145
C 7.2381 -3.62704 5.23196
C 6.25669 -4.79447 5.40267
O 6.09972 -5.30451 4.0993
H 4.52146 -2.52433 4.47999
H 4.7909 -3.56592 6.56892
H 5.4787 -4.09953 2.4361
H 7.71429 -3.51413 3.13891
H 6.73093 -2.09609 3.69309
H 8.29238 -3.98227 5.24184
H 7.08539 -2.85755 6.01957
H 6.64245 -5.5078 6.16341
O -1.70652 -5.15556 5.66915
C -2.00352 -2.99576 0.92344
C -4.72765 -6.3288 3.33939
C -5.05386 -7.8163 3.21336
C -4.05557 -8.40486 4.18515
C -3.4414 -7.12285 4.75768
O -4.49027 -6.18961 4.71801
H -3.32449 -6.62546 1.73031
H -1.70048 -7.27266 3.40544
H -1.76874 -2.31479 1.76886
H -5.56771 -5.72793 2.92622
H -6.07759 -7.96073 3.62786
H -5.01623 -8.23017 2.1828
H -4.61514 -8.95869 4.97153
H -3.28268 -9.06318 3.73251
H -3.003 -7.32741 5.75925
H -2.88161 -2.60802 0.36415
H -1.13056 -3.03266 0.24006
H 0.74103 -5.64499 6.876
H 2.04867 -6.40001 7.84551
H 1.68334 -7.01722 6.17488
H 1.14627 -3.94651 2.29481
H 0.55024 -2.33947 2.73312
H 0.7082 -4.39316 4.94475
H -0.4826 -3.0673 4.73084
$end

$opt
CONSTRAINT
tors           1           2           3           4     -94.067
tors           3           4           5           6     -63.999
tors           4           5           6           7    -178.711
tors           5           6           7           8    -179.856
tors           6           7           8           9    -143.652
tors           7           8           9          10     +83.236
tors           8           9          10          11    +177.492
tors           9          10          11          12    +114.352
tors          11          12          13          14    +135.952
ENDCONSTRAINT
$end

$rem
JOBTYPE                   OPT
METHOD                    B3LYP
DFT_D                     d3_op
BASIS                     STO-3G
GEOM_OPT_MAX_CYCLES       100
GEOM_OPT_TOL_GRADIENT     300
GEOM_OPT_TOL_DISPLACEMENT 1200
GEOM_OPT_TOL_ENERGY       100
SYMMETRY                  False
THRESH                    12
SCF_CONVERGENCE           8
MAX_SUB_FILE_NUM          128
MEM_STATIC                400
MEM_TOTAL                 4000
$end
--------------------------------------------------------------

   15   -1510.1559091352      7.79E-09 Convergence criterion met
 Total energy in the final basis set = -1510.15590914
   14   -1510.2245125037      5.76E-09 Convergence criterion met
 Total energy in the final basis set = -1510.22451250
   14   -1510.2610062951      5.37E-09 Convergence criterion met
 Total energy in the final basis set = -1510.26100630
   14   -1510.2759865326      7.39E-09 Convergence criterion met
 Total energy in the final basis set = -1510.27598653
   14   -1510.2786097566      5.68E-09 Convergence criterion met
 Total energy in the final basis set = -1510.27860976
    2   -1510.2786097565      2.40E-09 Convergence criterion met
 Total energy in the final basis set = -1510.27860976
   14   -1510.2823275060      2.21E-09 Convergence criterion met
 Total energy in the final basis set = -1510.28232751
   13   -1510.2827456012      4.93E-09 Convergence criterion met
   12   -1510.2840976199      2.34E-09 Convergence criterion met
 Total energy in the final basis set = -1510.28409762
   11   -1510.2841580782      7.23E-09 Convergence criterion met
 Total energy in the final basis set = -1510.28415808
   11   -1510.2841812905      4.43E-09 Convergence criterion met
 Total energy in the final basis set = -1510.28418129
   10   -1510.2842041649      8.94E-09 Convergence criterion met
 Total energy in the final basis set = -1510.28420416
   11   -1510.2842129573      2.86E-09 Convergence criterion met
 Total energy in the final basis set = -1510.28421296
   10   -1510.2842272987      5.93E-09 Convergence criterion met
 Total energy in the final basis set = -1510.28422730

             Standard Nuclear Orientation (Angstroms)
    I     Atom           X                Y                Z
 ----------------------------------------------------------------
    1      O      -4.3443727607     1.9409083980     1.1994031555
    2      C      -3.9968845532     1.6147083155     0.0439514899
    3      C      -4.3514433736     0.3013618765    -0.7341883032
    4      C      -3.2606334936    -0.8490001811    -0.6028020506
    5      C      -2.1444415535    -0.5613841800     0.4648586471
    6      O      -1.3950837222     0.5833905878     0.0591092579
    7      C      -0.3169012939     0.8474442854     1.0439161494
    8      C       0.4929440131     2.1121330623     0.5814131357
    9      O       1.9109915541     1.8572605044     0.9364838638
   10      C       2.5229257671     1.0650708890    -0.0948074291
   11      C       4.0234737565     0.8718682564     0.2786513185
   12      C       4.4024419886    -0.6389732729     0.5969275692
   13      C       3.2720534121    -1.7233691491     0.4161461542
   14      O       3.4270899890    -2.8349946403    -0.1341233537
   15      O      -3.2383032727     2.4569958334    -0.8330098368
   16      O       2.0427352692    -1.3284740977     1.0488556479
   17      O       1.9323991946     0.6766029823    -1.1255641284
   18      C       1.0576966605    -2.4386126498     0.9340830239
   19      C       4.9880509004     1.1627684248    -0.9525264478
   20      C       6.4484867959     1.3684048331    -0.3873129278
   21      C       6.8436739740    -0.1130009623    -0.0295932653
   22      C       5.5446878671    -0.8926820216    -0.4717210287
   23      O       5.0656273216    -0.1373255430    -1.6537477559
   24      H       4.2513091957     1.5221776767     1.1406801975
   25      H       4.7842060860    -0.7278024249     1.6316375588
   26      H       4.6282947593     1.9519471999    -1.6409795456
   27      H       7.1070184057     1.7859554749    -1.1654110736
   28      H       6.4649061787     2.0373389823     0.4879302710
   29      H       7.7133735877    -0.4514299848    -0.6146705026
   30      H       7.0635887282    -0.2474635933     1.0415473712
   31      H       5.6797320175    -1.9625368690    -0.7244262000
   32      O      -1.8675795079    -1.2554215071     1.4702604139
   33      C      -2.8456572863     3.6964248450    -0.1259712311
   34      C      -5.6343211763    -0.4383413260    -0.1606248952
   35      C      -6.1855669022    -1.3908350170    -1.2919370339
   36      C      -5.0966999381    -2.5289532193    -1.2813037988
   37      C      -4.1615699415    -2.0505143087    -0.1020926868
   38      O      -5.0887467281    -1.3820468481     0.8413905507
   39      H      -4.4839234022     0.5712671978    -1.7971212469
   40      H      -2.7738154474    -1.0477046166    -1.5751366740
   41      H      -2.2781993255     3.4744235172     0.8002471910
   42      H      -6.3790110349     0.2337009166     0.3080469609
   43      H      -7.1776938423    -1.7811522494    -1.0141737530
   44      H      -6.2642046583    -0.8832924655    -2.2665245051
   45      H      -5.5386542715    -3.5107961426    -1.0494710562
   46      H      -4.5517041097    -2.6031929941    -2.2360317960
   47      H      -3.5931431629    -2.8460197511     0.4175562750
   48      H      -3.7289037087     4.3116952856     0.1431520289
   49      H      -2.2038403176     4.2593769775    -0.8282742243
   50      H       0.1014452628    -2.0644086920     1.3556636922
   51      H       1.3964119498    -3.3301741137     1.4987644529
   52      H       0.9067302889    -2.7288398220    -0.1248592281
   53      H       0.3729167413     2.2476800633    -0.5149007508
   54      H       0.1876861187     3.0291886188     1.1207982726
   55      H       0.3995545199    -0.0008933028     1.0891696312
   56      H      -0.7455957513     0.9924932035     2.0583261568
 ----------------------------------------------------------------

   10   -1510.2842280248      8.95E-09 Convergence criterion met
 Total energy in the final basis set = -1510.28422802
 Final energy is   -1510.28422802484
 **  OPTIMIZATION CONVERGED  **

                    Orbital Energies (a.u.)
 --------------------------------------------------------------

 Alpha MOs
 -- Occupied --
-18.939 -18.938 -18.933 -18.933 -18.888 -18.885 -18.879 -18.879
-18.874 -18.873 -10.103 -10.102 -10.100 -10.098 -10.074 -10.067
-10.065 -10.062 -10.058 -10.058 -10.057 -10.056 -10.041 -10.040
-10.039 -10.037 -10.022 -10.021 -10.020 -10.019  -1.019  -1.014
 -1.009  -1.008  -0.971  -0.969  -0.941  -0.937  -0.935  -0.934
 -0.765  -0.763  -0.728  -0.723  -0.712  -0.705  -0.697  -0.664
 -0.659  -0.618  -0.598  -0.584  -0.547  -0.546  -0.538  -0.537
 -0.514  -0.509  -0.485  -0.473  -0.464  -0.457  -0.454  -0.447
 -0.445  -0.431  -0.429  -0.417  -0.413  -0.410  -0.407  -0.400
 -0.395  -0.382  -0.372  -0.370  -0.364  -0.360  -0.353  -0.348
 -0.346  -0.339  -0.337  -0.333  -0.332  -0.329  -0.329  -0.312
 -0.310  -0.306  -0.306  -0.298  -0.293  -0.286  -0.282  -0.276
 -0.273  -0.258  -0.254  -0.253  -0.249  -0.235  -0.233  -0.183
 -0.181  -0.176  -0.173  -0.160  -0.159  -0.151  -0.150  -0.145
 -0.143

          Ground-State Mulliken Net Atomic Charges

     Atom                 Charge (a.u.)
  ----------------------------------------
      1 O                    -0.213527
      2 C                     0.208059
      3 C                    -0.079527
      4 C                    -0.077075
      5 C                     0.211686
      6 O                    -0.168829
      7 C                    -0.056326
      8 C                    -0.051279
      9 O                    -0.172062
     10 C                     0.209766
     11 C                    -0.080856
     12 C                    -0.077581
     13 C                     0.211537
     14 O                    -0.208667
     15 O                    -0.166274
     16 O                    -0.174312
     17 O                    -0.213116
     18 C                    -0.137187
     19 C                     0.026271
     20 C                    -0.143606
     21 C                    -0.144416
     22 C                     0.023930
     23 O                    -0.186596
     24 H                     0.086722
     25 H                     0.085079
     26 H                     0.083929
     27 H                     0.078432
     28 H                     0.073533
     29 H                     0.078880
     30 H                     0.073333
     31 H                     0.092447
     32 O                    -0.214768
     33 C                    -0.127418
     34 C                     0.024649
     35 C                    -0.143213
     36 C                    -0.144795
     37 C                     0.024319
     38 O                    -0.187554
     39 H                     0.086093
     40 H                     0.088375
     41 H                     0.085906
     42 H                     0.086721
     43 H                     0.078157
     44 H                     0.073242
     45 H                     0.078465
     46 H                     0.073440
     47 H                     0.089066
     48 H                     0.087731
     49 H                     0.089345
     50 H                     0.102824
     51 H                     0.087093
     52 H                     0.090540
     53 H                     0.101518
     54 H                     0.087265
     55 H                     0.103616
     56 H                     0.087016
  ----------------------------------------
  Sum of atomic charges =    -0.000000

                    Cartesian Multipole Moments
 -----------------------------------------------------------------
    Charge (ESU x 10^10)
                -0.0000
    Dipole Moment (Debye)
         X       0.9212      Y       1.9037      Z      -0.3450
       Tot       2.1429
    Quadrupole Moments (Debye-Ang)
        XX    -149.3195     XY       6.0968     YY    -153.6249
        XZ      20.1844     YZ       0.1962     ZZ    -167.2280

 Total job time:  50.81s(wall), 2416.51s(cpu)
        *  Thank you very much for using Q-Chem.  Have a nice day.  *
