 Q-Chem 5.0, Q-Chem, Inc., Pleasanton, CA (2017)
 Q-Chem 5.0.1 for Intel X86 EM64T Linux

User input:
--------------------------------------------------------------
$molecule
0  1
O -4.3443727607 1.940908398 1.1994031555
C -3.9968845532 1.6147083155 0.0439514899
C -4.3514433736 0.3013618765 -0.7341883032
C -3.2606334936 -0.8490001811 -0.6028020506
C -2.1444415535 -0.56138418 0.4648586471
O -1.3950837222 0.5833905878 0.0591092579
C -0.3169012939 0.8474442854 1.0439161494
C 0.4929440131 2.1121330623 0.5814131357
O 1.9109915541 1.8572605044 0.9364838638
C 2.5229257671 1.065070889 -0.0948074291
C 4.0234737565 0.8718682564 0.2786513185
C 4.4024419886 -0.6389732729 0.5969275692
C 3.2720534121 -1.7233691491 0.4161461542
O 3.427089989 -2.8349946403 -0.1341233537
O -3.2383032727 2.4569958334 -0.8330098368
O 2.0427352692 -1.3284740977 1.0488556479
O 1.9323991946 0.6766029823 -1.1255641284
C 1.0576966605 -2.4386126498 0.9340830239
C 4.9880509004 1.1627684248 -0.9525264478
C 6.4484867959 1.3684048331 -0.3873129278
C 6.843673974 -0.1130009623 -0.0295932653
C 5.5446878671 -0.8926820216 -0.4717210287
O 5.0656273216 -0.137325543 -1.6537477559
H 4.2513091957 1.5221776767 1.1406801975
H 4.784206086 -0.7278024249 1.6316375588
H 4.6282947593 1.9519471999 -1.6409795456
H 7.1070184057 1.7859554749 -1.1654110736
H 6.4649061787 2.0373389823 0.487930271
H 7.7133735877 -0.4514299848 -0.6146705026
H 7.0635887282 -0.2474635933 1.0415473712
H 5.6797320175 -1.962536869 -0.7244262
O -1.8675795079 -1.2554215071 1.4702604139
C -2.8456572863 3.696424845 -0.1259712311
C -5.6343211763 -0.438341326 -0.1606248952
C -6.1855669022 -1.390835017 -1.2919370339
C -5.0966999381 -2.5289532193 -1.2813037988
C -4.1615699415 -2.0505143087 -0.1020926868
O -5.0887467281 -1.3820468481 0.8413905507
H -4.4839234022 0.5712671978 -1.7971212469
H -2.7738154474 -1.0477046166 -1.575136674
H -2.2781993255 3.4744235172 0.800247191
H -6.3790110349 0.2337009166 0.3080469609
H -7.1776938423 -1.7811522494 -1.014173753
H -6.2642046583 -0.8832924655 -2.2665245051
H -5.5386542715 -3.5107961426 -1.0494710562
H -4.5517041097 -2.6031929941 -2.236031796
H -3.5931431629 -2.8460197511 0.417556275
H -3.7289037087 4.3116952856 0.1431520289
H -2.2038403176 4.2593769775 -0.8282742243
H 0.1014452628 -2.064408692 1.3556636922
H 1.3964119498 -3.3301741137 1.4987644529
H 0.9067302889 -2.728839822 -0.1248592281
H 0.3729167413 2.2476800633 -0.5149007508
H 0.1876861187 3.0291886188 1.1207982726
H 0.3995545199 -0.0008933028 1.0891696312
H -0.7455957513 0.9924932035 2.0583261568
$end

$rem
JOBTYPE                   OPT
METHOD                    B3LYP
DFT_D                     d3_op
BASIS                     STO-3G
GEOM_OPT_MAX_CYCLES       100
GEOM_OPT_TOL_GRADIENT     300
GEOM_OPT_TOL_DISPLACEMENT 1200
GEOM_OPT_TOL_ENERGY       100
SYMMETRY                  False
THRESH                    12
SCF_CONVERGENCE           8
MAX_SUB_FILE_NUM          128
MEM_STATIC                400
MEM_TOTAL                 4000
$end
--------------------------------------------------------------

   16   -1510.2842028339      7.02E-09 Convergence criterion met
 Total energy in the final basis set = -1510.28420283
   15   -1510.2495325094      4.35E-09 Convergence criterion met
 Total energy in the final basis set = -1510.24953251
   15   -1510.2854787613      3.38E-09 Convergence criterion met
 Total energy in the final basis set = -1510.28547876
   14   -1510.2852287547      6.98E-09 Convergence criterion met
 Total energy in the final basis set = -1510.28522875
   14   -1510.2861310775      6.90E-09 Convergence criterion met
 Total energy in the final basis set = -1510.28613108
   14   -1510.2871262583      3.74E-09 Convergence criterion met
 Total energy in the final basis set = -1510.28712626
   13   -1510.2877942854      5.10E-09 Convergence criterion met
 Total energy in the final basis set = -1510.28779429
   13   -1510.2886681971      7.06E-09 Convergence criterion met
   13   -1510.2900279829      5.81E-09 Convergence criterion met
 Total energy in the final basis set = -1510.29002798
   13   -1510.2901201496      2.30E-09 Convergence criterion met
 Total energy in the final basis set = -1510.29012015
   12   -1510.2901432617      3.22E-09 Convergence criterion met
 Total energy in the final basis set = -1510.29014326
   10   -1510.2901479014      7.93E-09 Convergence criterion met
 Total energy in the final basis set = -1510.29014790
   10   -1510.2901495057      3.52E-09 Convergence criterion met
 Total energy in the final basis set = -1510.29014951
   10   -1510.2901519347      3.83E-09 Convergence criterion met
 Total energy in the final basis set = -1510.29015193

             Standard Nuclear Orientation (Angstroms)
    I     Atom           X                Y                Z
 ----------------------------------------------------------------
    1      O      -3.4018179549     1.5438026645     1.5151658023
    2      C      -3.7863967562     1.5594982960     0.3256855521
    3      C      -4.4829616739     0.4057592828    -0.4775046727
    4      C      -3.5429037722    -0.8503360983    -0.7250565393
    5      C      -2.1246750109    -0.7050231474    -0.0694061748
    6      O      -1.5666488118     0.5402917054    -0.4925353838
    7      C      -0.3049607171     0.8414867149     0.2287823003
    8      C       0.5743633263     1.7589190274    -0.6905942245
    9      O       1.9283717047     1.8452261376    -0.0936626546
   10      C       2.7800673060     0.8361676820    -0.6641769242
   11      C       4.0927467174     0.7796115011     0.1781207669
   12      C       4.4290243664    -0.6835069626     0.6948987366
   13      C       3.4405309894    -1.8044194396     0.2025411581
   14      O       3.7432558772    -2.8186879448    -0.4613154021
   15      O      -3.6909444934     2.7033522453    -0.5344077862
   16      O       2.1156805993    -1.5225688053     0.6713327128
   17      O       2.4803118475     0.1461130186    -1.6626897083
   18      C       1.1946789006    -2.6009619243     0.2297747515
   19      C       5.3894650448     1.0868799029    -0.6933414593
   20      C       6.5783117326     1.4010784664     0.2988142995
   21      C       6.9150002246    -0.0397293128     0.8360234265
   22      C       5.8585509436    -0.9113473631     0.0519451159
   23      O       5.7468002145    -0.2306861377    -1.2606559304
   24      H       3.9920072231     1.4902246352     1.0166859198
   25      H       4.4596241637    -0.7066089016     1.7998897163
   26      H       5.2368632154     1.8304437426    -1.4994140484
   27      H       7.4288727607     1.8372135253    -0.2489232329
   28      H       6.2786888506     2.0963220393     1.0992208808
   29      H       7.9399842171    -0.3418723426     0.5682418879
   30      H       6.7947062233    -0.1255765483     1.9278899636
   31      H       6.1158354350    -1.9787870419    -0.0907114104
   32      O      -1.5615054794    -1.5268279479     0.6877275501
   33      C      -3.0222047365     3.8144252562     0.1796597867
   34      C      -5.6546672436    -0.2729399692     0.3574759179
   35      C      -6.5489239696    -1.1147150850    -0.6364384624
   36      C      -5.6172871962    -2.3548644354    -0.9079518084
   37      C      -4.3679896346    -1.9987548804    -0.0127551242
   38      O      -4.9587649760    -1.3064639247     1.1564702014
   39      H      -4.8459218649     0.8244179124    -1.4322785474
   40      H      -3.4118706648    -1.0383141857    -1.8069651686
   41      H      -1.9849496386     3.5467141654     0.4667763944
   42      H      -6.2069176127     0.4207559905     1.0205823548
   43      H      -7.4874906082    -1.4159789915    -0.1447289174
   44      H      -6.7940517206    -0.5553288078    -1.5535517237
   45      H      -6.0820792084    -3.2921458363    -0.5632370269
   46      H      -5.3505116669    -2.4632628210    -1.9713940748
   47      H      -3.7469991961    -2.8541062309     0.3176884778
   48      H      -3.5750429689     4.1039840867     1.0965380962
   49      H      -3.0021142123     4.6649970701    -0.5261943838
   50      H       0.1697534576    -2.2674960501     0.5047156770
   51      H       1.4327767531    -3.5587708673     0.7344364997
   52      H       1.2618640218    -2.7549989155    -0.8657151247
   53      H       0.6363347658     1.3149453549    -1.7075958893
   54      H       0.1662442952     2.7876583671    -0.7458510902
   55      H       0.2580192653    -0.0872462034     0.4609332411
   56      H      -0.5463857094     1.3537627139     1.1855573805
 ----------------------------------------------------------------

    9   -1510.2901527358      7.40E-09 Convergence criterion met
 Total energy in the final basis set = -1510.29015274
 Final energy is   -1510.29015273585
 **  OPTIMIZATION CONVERGED  **

                    Orbital Energies (a.u.)
 --------------------------------------------------------------

 Alpha MOs
 -- Occupied --
-18.946 -18.935 -18.934 -18.925 -18.893 -18.889 -18.887 -18.878
-18.870 -18.870 -10.114 -10.102 -10.099 -10.093 -10.074 -10.073
-10.066 -10.062 -10.061 -10.061 -10.056 -10.044 -10.041 -10.039
-10.038 -10.036 -10.023 -10.021 -10.020 -10.019  -1.025  -1.015
 -1.008  -1.003  -0.972  -0.969  -0.951  -0.939  -0.934  -0.928
 -0.767  -0.762  -0.730  -0.723  -0.712  -0.707  -0.698  -0.665
 -0.651  -0.619  -0.599  -0.583  -0.549  -0.544  -0.540  -0.536
 -0.515  -0.509  -0.484  -0.477  -0.462  -0.460  -0.457  -0.450
 -0.440  -0.432  -0.430  -0.417  -0.413  -0.410  -0.402  -0.401
 -0.397  -0.387  -0.372  -0.368  -0.362  -0.359  -0.357  -0.351
 -0.346  -0.337  -0.335  -0.333  -0.331  -0.327  -0.325  -0.313
 -0.309  -0.308  -0.303  -0.302  -0.295  -0.288  -0.281  -0.277
 -0.272  -0.259  -0.255  -0.253  -0.245  -0.236  -0.233  -0.189
 -0.178  -0.176  -0.170  -0.168  -0.159  -0.151  -0.147  -0.146
 -0.143

          Ground-State Mulliken Net Atomic Charges

     Atom                 Charge (a.u.)
  ----------------------------------------
      1 O                    -0.219100
      2 C                     0.210672
      3 C                    -0.079497
      4 C                    -0.077629
      5 C                     0.223003
      6 O                    -0.171713
      7 C                    -0.055247
      8 C                    -0.052283
      9 O                    -0.172751
     10 C                     0.211550
     11 C                    -0.079820
     12 C                    -0.078696
     13 C                     0.211516
     14 O                    -0.209260
     15 O                    -0.169212
     16 O                    -0.179286
     17 O                    -0.211155
     18 C                    -0.145088
     19 C                     0.025952
     20 C                    -0.143488
     21 C                    -0.144416
     22 C                     0.024699
     23 O                    -0.186139
     24 H                     0.086709
     25 H                     0.084539
     26 H                     0.082807
     27 H                     0.078038
     28 H                     0.073462
     29 H                     0.078412
     30 H                     0.073272
     31 H                     0.091681
     32 O                    -0.207729
     33 C                    -0.128275
     34 C                     0.025601
     35 C                    -0.143675
     36 C                    -0.144208
     37 C                     0.024478
     38 O                    -0.186406
     39 H                     0.086787
     40 H                     0.087435
     41 H                     0.084578
     42 H                     0.084235
     43 H                     0.078677
     44 H                     0.073910
     45 H                     0.079133
     46 H                     0.073635
     47 H                     0.090709
     48 H                     0.089315
     49 H                     0.089648
     50 H                     0.107552
     51 H                     0.081780
     52 H                     0.086716
     53 H                     0.102043
     54 H                     0.086857
     55 H                     0.105653
     56 H                     0.090021
  ----------------------------------------
  Sum of atomic charges =     0.000000

                    Cartesian Multipole Moments
 -----------------------------------------------------------------
    Charge (ESU x 10^10)
                 0.0000
    Dipole Moment (Debye)
         X      -1.2968      Y       2.5224      Z      -0.1258
       Tot       2.8390
    Quadrupole Moments (Debye-Ang)
        XX    -147.1943     XY       7.6550     YY    -155.2449
        XZ      20.4413     YZ      -0.2110     ZZ    -166.9713

 Total job time:  122.98s(wall), 5855.44s(cpu)
        *  Thank you very much for using Q-Chem.  Have a nice day.  *
