 Q-Chem 5.0, Q-Chem, Inc., Pleasanton, CA (2017)
 Q-Chem 5.0.1 for Intel X86 EM64T Linux

User input:
--------------------------------------------------------------
$molecule
0  1
O -4.149911028 1.9007278802 1.2533619386
C -3.9010154329 1.6202328578 0.0610826809
C -4.312313388 0.3320783445 -0.7312711614
C -3.2796463968 -0.8680784637 -0.5893073581
C -2.1626884921 -0.6245527146 0.4881064155
O -1.4036008584 0.5267935512 0.1189190209
C -0.3394850641 0.7643623581 1.1269645676
C 0.4830482451 2.0331609 0.7054331674
O 1.9004646908 1.7320571672 1.0260612914
C 2.5256708624 1.0999837387 -0.1022914681
C 4.025049354 0.8707113352 0.2595075617
C 4.3957105379 -0.6390330722 0.5943697865
C 3.2881011678 -1.7438826298 0.3951861449
O 3.5015644835 -2.8840596208 -0.0717667537
O -3.2278772971 2.5018483613 -0.8470196769
O 2.0076033806 -1.3429227869 0.9085855763
O 1.9462543386 0.8557990875 -1.1823518634
C 1.0527243984 -2.4765073594 0.7658555511
C 4.9930484501 1.1461592332 -0.972006077
C 6.4477807934 1.3737571844 -0.4015910387
C 6.8452643628 -0.0961350621 -0.0010340349
C 5.5605671717 -0.8956846039 -0.4500284241
O 5.0890593542 -0.1651249639 -1.6501152968
H 4.2675960169 1.5199190944 1.1185408615
H 4.7568874855 -0.7202714878 1.6371975698
H 4.6292091543 1.9187730928 -1.6769296287
H 7.1106004063 1.7713275369 -1.1865538577
H 6.4562201123 2.0666627082 0.4549486647
H 7.7293765482 -0.4425277371 -0.5590813044
H 7.042876861 -0.2035842614 1.0775288982
H 5.7101494845 -1.9682983822 -0.6824834749
O -1.8899373809 -1.3527079251 1.4697894286
C -2.7963137398 3.7239911277 -0.1327065592
C -5.63520371 -0.3494221736 -0.1745353659
C -6.2134049347 -1.2774330783 -1.3130169742
C -5.1796217692 -2.4653856831 -1.2854020621
C -4.2378195228 -2.0264756954 -0.0956691868
O -5.1458411693 -1.3151359117 0.8351295492
H -4.4203401458 0.6149043069 -1.793356737
H -2.7926729926 -1.0914476092 -1.5563042189
H -2.1085986216 3.4840861554 0.7029546225
H -6.3568556095 0.3546314954 0.2829860053
H -7.22667894 -1.6204405871 -1.0494243972
H -6.2540653624 -0.7687676441 -2.2892705942
H -5.6698317801 -3.4249049429 -1.057146546
H -4.6263896501 -2.5674617639 -2.2328433063
H -3.710986281 -2.8448565469 0.4324262439
H -3.660606798 4.2869405033 0.2756653652
H -2.2686929154 4.3454250089 -0.8793381706
H 0.0929755025 -2.1448346318 1.2133314409
H 1.4237838372 -3.378777257 1.2909873553
H 0.894604828 -2.7302475664 -0.3016732415
H 0.3558532672 2.2123585662 -0.3838427636
H 0.2023170727 2.9329426467 1.286124266
H 0.3777936373 -0.0835564683 1.158268433
H -0.7842566475 0.8844066017 2.1375458165
$end

$rem
JOBTYPE                   OPT
METHOD                    B3LYP
DFT_D                     d3_op
BASIS                     STO-3G
GEOM_OPT_MAX_CYCLES       100
GEOM_OPT_TOL_GRADIENT     300
GEOM_OPT_TOL_DISPLACEMENT 1200
GEOM_OPT_TOL_ENERGY       100
SYMMETRY                  False
THRESH                    12
SCF_CONVERGENCE           8
MAX_SUB_FILE_NUM          128
MEM_STATIC                400
MEM_TOTAL                 4000
$end
--------------------------------------------------------------

   16   -1510.2840323925      7.37E-09 Convergence criterion met
 Total energy in the final basis set = -1510.28403239
   15   -1510.2576656745      4.06E-09 Convergence criterion met
 Total energy in the final basis set = -1510.25766567
   15   -1510.2851867088      3.39E-09 Convergence criterion met
 Total energy in the final basis set = -1510.28518671
   14   -1510.2850434564      6.30E-09 Convergence criterion met
 Total energy in the final basis set = -1510.28504346
   13   -1510.2866051124      8.62E-09 Convergence criterion met
 Total energy in the final basis set = -1510.28660511
   14   -1510.2873444089      3.64E-09 Convergence criterion met
 Total energy in the final basis set = -1510.28734441
   13   -1510.2873589275      9.48E-09 Convergence criterion met
 Total energy in the final basis set = -1510.28735893
   14   -1510.2868903616      5.51E-09 Convergence criterion met
   13   -1510.2901195813      5.68E-09 Convergence criterion met
 Total energy in the final basis set = -1510.29011958
   14   -1510.2899925893      6.29E-09 Convergence criterion met
 Total energy in the final basis set = -1510.28999259
   12   -1510.2901133937      9.66E-09 Convergence criterion met
 Total energy in the final basis set = -1510.29011339
   14   -1510.2900721450      4.86E-09 Convergence criterion met
 Total energy in the final basis set = -1510.29007215
   13   -1510.2901570835      6.39E-09 Convergence criterion met
 Total energy in the final basis set = -1510.29015708
   10   -1510.2901605134      6.96E-09 Convergence criterion met
 Total energy in the final basis set = -1510.29016051

             Standard Nuclear Orientation (Angstroms)
    I     Atom           X                Y                Z
 ----------------------------------------------------------------
    1      O      -3.3763347661     1.5233096896     1.5230439439
    2      C      -3.7709788345     1.5650983576     0.3374219384
    3      C      -4.4709795114     0.4281597362    -0.4859041056
    4      C      -3.5369646991    -0.8308284315    -0.7412026944
    5      C      -2.1242924026    -0.6983873451    -0.0709016835
    6      O      -1.5445058025     0.5333966193    -0.5045600061
    7      C      -0.2879324729     0.8269017397     0.2286714392
    8      C       0.5703199430     1.7972267753    -0.6562608753
    9      O       1.9319242951     1.8714709764    -0.0754337267
   10      C       2.7633583912     0.8469249997    -0.6478391000
   11      C       4.0816035235     0.7725365944     0.1838934384
   12      C       4.4108134882    -0.6985565284     0.6813079061
   13      C       3.4093728758    -1.8089591302     0.1904341129
   14      O       3.6993837713    -2.8184851364    -0.4862233557
   15      O      -3.6789253523     2.7266526493    -0.4985793652
   16      O       2.0919089107    -1.5289935614     0.6821090965
   17      O       2.4442048151     0.1546043275    -1.6386520113
   18      C       1.1656122811    -2.6103555176     0.2585205466
   19      C       5.3735573422     1.0802384453    -0.6946209994
   20      C       6.5732424837     1.3723431173     0.2915060716
   21      C       6.9036052481    -0.0780101406     0.8064163107
   22      C       5.8321468230    -0.9307540806     0.0215505645
   23      O       5.7147858959    -0.2329256083    -1.2813398559
   24      H       3.9927984009     1.4747648002     1.0308022838
   25      H       4.4534829445    -0.7331401039     1.7856137928
   26      H       5.2202685736     1.8352062731    -1.4898882476
   27      H       7.4224262828     1.8099372151    -0.2571878831
   28      H       6.2846998502     2.0587423931     1.1034721626
   29      H       7.9232976437    -0.3848816853     0.5240861114
   30      H       6.7938408219    -0.1771647711     1.8982838421
   31      H       6.0787143343    -1.9985319261    -0.1367273254
   32      O      -1.5818087812    -1.5173895767     0.7040960487
   33      C      -3.0059564231     3.8219423261     0.2358000765
   34      C      -5.6539917647    -0.2526597192     0.3311969401
   35      C      -6.5456169452    -1.0757697943    -0.6805280185
   36      C      -5.6193415985    -2.3181621409    -0.9609235595
   37      C      -4.3756437699    -1.9823662921    -0.0502513745
   38      O      -4.9720457568    -1.3010512433     1.1225790093
   39      H      -4.8234306669     0.8622939454    -1.4376582830
   40      H      -3.3973859701    -1.0059448027    -1.8241642846
   41      H      -1.9749653312     3.5395460256     0.5312243541
   42      H      -6.2071636029     0.4364523813     0.9983030493
   43      H      -7.4897951288    -1.3775696126    -0.1999922422
   44      H      -6.7802702342    -0.5029524057    -1.5921436798
   45      H      -6.0930111646    -3.2570715659    -0.6331955447
   46      H      -5.3438645834    -2.4136041153    -2.0233605639
   47      H      -3.7637740474    -2.8462242054     0.2749411749
   48      H      -3.5658408786     4.1067953524     1.1499251966
   49      H      -2.9693604391     4.6805353917    -0.4595653918
   50      H       0.1431721633    -2.2712092158     0.5363080315
   51      H       1.4055892560    -3.5627061301     0.7725553272
   52      H       1.2253233680    -2.7769022979    -0.8355126247
   53      H       0.6161265913     1.4048943916    -1.6950466822
   54      H       0.1537366137     2.8239118456    -0.6545115996
   55      H       0.2965396471    -0.0980579327     0.4214844663
   56      H      -0.5348346233     1.2950221392     1.2065135327
 ----------------------------------------------------------------

   11   -1510.2901610599      2.94E-09 Convergence criterion met
 Total energy in the final basis set = -1510.29016106
 Final energy is   -1510.29016105994
 **  OPTIMIZATION CONVERGED  **

                    Orbital Energies (a.u.)
 --------------------------------------------------------------

 Alpha MOs
 -- Occupied --
-18.945 -18.935 -18.934 -18.925 -18.893 -18.889 -18.887 -18.878
-18.870 -18.870 -10.113 -10.102 -10.099 -10.093 -10.075 -10.072
-10.066 -10.062 -10.061 -10.061 -10.056 -10.043 -10.041 -10.039
-10.038 -10.036 -10.022 -10.021 -10.020 -10.019  -1.024  -1.015
 -1.009  -1.003  -0.972  -0.969  -0.950  -0.939  -0.935  -0.928
 -0.767  -0.762  -0.730  -0.723  -0.712  -0.707  -0.698  -0.665
 -0.651  -0.618  -0.599  -0.583  -0.549  -0.544  -0.540  -0.536
 -0.515  -0.509  -0.484  -0.477  -0.462  -0.459  -0.457  -0.450
 -0.441  -0.432  -0.430  -0.417  -0.413  -0.410  -0.402  -0.402
 -0.396  -0.387  -0.372  -0.368  -0.362  -0.359  -0.357  -0.351
 -0.346  -0.337  -0.335  -0.333  -0.331  -0.327  -0.325  -0.312
 -0.309  -0.308  -0.303  -0.301  -0.294  -0.288  -0.282  -0.277
 -0.272  -0.259  -0.255  -0.253  -0.244  -0.236  -0.233  -0.188
 -0.179  -0.177  -0.170  -0.167  -0.159  -0.151  -0.147  -0.146
 -0.143

          Ground-State Mulliken Net Atomic Charges

     Atom                 Charge (a.u.)
  ----------------------------------------
      1 O                    -0.218803
      2 C                     0.210361
      3 C                    -0.079469
      4 C                    -0.077662
      5 C                     0.222841
      6 O                    -0.172099
      7 C                    -0.055457
      8 C                    -0.051542
      9 O                    -0.172658
     10 C                     0.211207
     11 C                    -0.079914
     12 C                    -0.078743
     13 C                     0.211624
     14 O                    -0.209230
     15 O                    -0.169048
     16 O                    -0.179360
     17 O                    -0.210885
     18 C                    -0.145282
     19 C                     0.025981
     20 C                    -0.143509
     21 C                    -0.144396
     22 C                     0.024754
     23 O                    -0.186184
     24 H                     0.086690
     25 H                     0.084510
     26 H                     0.082762
     27 H                     0.078034
     28 H                     0.073469
     29 H                     0.078411
     30 H                     0.073268
     31 H                     0.091705
     32 O                    -0.207471
     33 C                    -0.128267
     34 C                     0.025626
     35 C                    -0.143632
     36 C                    -0.144208
     37 C                     0.024533
     38 O                    -0.186325
     39 H                     0.086872
     40 H                     0.087390
     41 H                     0.084879
     42 H                     0.084132
     43 H                     0.078669
     44 H                     0.073905
     45 H                     0.079097
     46 H                     0.073651
     47 H                     0.090641
     48 H                     0.089182
     49 H                     0.089771
     50 H                     0.107866
     51 H                     0.081464
     52 H                     0.086902
     53 H                     0.101459
     54 H                     0.087056
     55 H                     0.105450
     56 H                     0.089985
  ----------------------------------------
  Sum of atomic charges =     0.000000

                    Cartesian Multipole Moments
 -----------------------------------------------------------------
    Charge (ESU x 10^10)
                 0.0000
    Dipole Moment (Debye)
         X      -1.2462      Y       2.5518      Z      -0.1045
       Tot       2.8417
    Quadrupole Moments (Debye-Ang)
        XX    -146.8666     XY       7.1282     YY    -155.1668
        XZ      20.3778     YZ      -0.1057     ZZ    -166.9518

 Total job time:  119.97s(wall), 5715.66s(cpu)
        *  Thank you very much for using Q-Chem.  Have a nice day.  *
