 Q-Chem 5.0, Q-Chem, Inc., Pleasanton, CA (2017)
 Q-Chem 5.0.1 for Intel X86 EM64T Linux

User input:
--------------------------------------------------------------
$molecule
0  1
O -3.94934 -3.66094 2.70899
C -3.26408 -4.56952 2.26188
C -3.36658 -6.02376 2.66595
C -2.54209 -6.47469 3.8828
C -1.8461 -5.38461 4.66729
O -0.95613 -4.73066 3.86372
C -0.25086 -3.68409 4.5394
C 0.72029 -3.00137 3.58186
O 1.94209 -2.6847 4.26729
C 2.89158 -3.65272 4.24388
C 4.17437 -3.23517 4.92267
C 4.41089 -3.86482 6.3032
C 3.54357 -5.06069 6.6414
O 3.9185 -6.06436 7.23015
O -2.28636 -4.27206 1.36635
O 2.20674 -4.81962 6.6964
O 2.69723 -4.79701 3.84786
C 1.29456 -5.69834 7.25968
C 5.45041 -3.66099 4.17663
C 6.60227 -2.73658 4.56542
C 6.83551 -3.16445 6.00103
C 5.86268 -4.34707 6.09898
O 5.82603 -4.86944 4.79149
H 4.15734 -2.12365 5.01075
H 4.29486 -3.13237 7.13224
H 5.32602 -3.68764 3.07199
H 7.48111 -3.04493 3.95458
H 6.42006 -1.65021 4.41888
H 7.89033 -3.50513 6.09694
H 6.61073 -2.39339 6.76957
H 6.19712 -5.04794 6.8948
O -2.07821 -5.0974 5.837
C -2.03909 -3.00571 0.87959
C -4.78564 -6.37476 3.17146
C -5.04037 -7.87375 3.01995
C -4.14483 -8.42195 4.10943
C -3.64794 -7.11671 4.74077
O -4.71789 -6.22211 4.568
H -3.18187 -6.63012 1.75045
H -1.75452 -7.20731 3.59832
H -1.78299 -2.31781 1.71275
H -5.58887 -5.80319 2.65607
H -6.10055 -8.05439 3.30976
H -4.864 -8.2895 2.00465
H -4.77483 -8.99149 4.82843
H -3.30136 -9.05491 3.75794
H -3.32506 -7.30111 5.78898
H -2.93177 -2.62293 0.34027
H -1.18454 -3.04753 0.17366
H 0.27869 -5.25839 7.24476
H 1.55468 -5.89205 8.3225
H 1.28585 -6.65497 6.69475
H 0.93149 -3.6709 2.71541
H 0.26044 -2.09688 3.13231
H 0.34502 -4.17219 5.31792
H -0.91277 -2.93052 5.02242
$end

$opt
CONSTRAINT
tors           1           2           3           4     -87.204
tors           3           4           5           6     -61.002
tors           4           5           6           7    -179.741
tors           5           6           7           8    -179.959
tors           6           7           8           9    -141.231
tors           7           8           9          10     +89.366
tors           8           9          10          11    +177.225
tors           9          10          11          12    +105.327
tors          11          12          13          14    +140.280
ENDCONSTRAINT
$end

$rem
JOBTYPE                   OPT
METHOD                    B3LYP
DFT_D                     d3_op
BASIS                     STO-3G
GEOM_OPT_MAX_CYCLES       100
GEOM_OPT_TOL_GRADIENT     300
GEOM_OPT_TOL_DISPLACEMENT 1200
GEOM_OPT_TOL_ENERGY       100
SYMMETRY                  False
THRESH                    12
SCF_CONVERGENCE           8
MAX_SUB_FILE_NUM          128
MEM_STATIC                400
MEM_TOTAL                 4000
$end
--------------------------------------------------------------

   15   -1510.1531114971      7.60E-09 Convergence criterion met
 Total energy in the final basis set = -1510.15311150
   14   -1510.2221669310      6.06E-09 Convergence criterion met
 Total energy in the final basis set = -1510.22216693
   14   -1510.2590428870      2.68E-09 Convergence criterion met
 Total energy in the final basis set = -1510.25904289
   14   -1510.2736241416      6.77E-09 Convergence criterion met
 Total energy in the final basis set = -1510.27362414
   14   -1510.2777997337      5.75E-09 Convergence criterion met
 Total energy in the final basis set = -1510.27779973
   13   -1510.2816001302      8.34E-09 Convergence criterion met
 Total energy in the final basis set = -1510.28160013
    2   -1510.2816001302      6.16E-09 Convergence criterion met
 Total energy in the final basis set = -1510.28160013
   13   -1510.2826325065      3.79E-09 Convergence criterion met
   12   -1510.2839333220      3.21E-09 Convergence criterion met
 Total energy in the final basis set = -1510.28393332
   11   -1510.2839952762      4.50E-09 Convergence criterion met
 Total energy in the final basis set = -1510.28399528
   11   -1510.2840159407      6.98E-09 Convergence criterion met
 Total energy in the final basis set = -1510.28401594
   10   -1510.2840321897      9.12E-09 Convergence criterion met
 Total energy in the final basis set = -1510.28403219
   11   -1510.2840414849      3.58E-09 Convergence criterion met
 Total energy in the final basis set = -1510.28404148
   10   -1510.2840463631      7.45E-09 Convergence criterion met
 Total energy in the final basis set = -1510.28404636

             Standard Nuclear Orientation (Angstroms)
    I     Atom           X                Y                Z
 ----------------------------------------------------------------
    1      O      -4.1499110280     1.9007278802     1.2533619386
    2      C      -3.9010154329     1.6202328578     0.0610826809
    3      C      -4.3123133880     0.3320783445    -0.7312711614
    4      C      -3.2796463968    -0.8680784637    -0.5893073581
    5      C      -2.1626884921    -0.6245527146     0.4881064155
    6      O      -1.4036008584     0.5267935512     0.1189190209
    7      C      -0.3394850641     0.7643623581     1.1269645676
    8      C       0.4830482451     2.0331609000     0.7054331674
    9      O       1.9004646908     1.7320571672     1.0260612914
   10      C       2.5256708624     1.0999837387    -0.1022914681
   11      C       4.0250493540     0.8707113352     0.2595075617
   12      C       4.3957105379    -0.6390330722     0.5943697865
   13      C       3.2881011678    -1.7438826298     0.3951861449
   14      O       3.5015644835    -2.8840596208    -0.0717667537
   15      O      -3.2278772971     2.5018483613    -0.8470196769
   16      O       2.0076033806    -1.3429227869     0.9085855763
   17      O       1.9462543386     0.8557990875    -1.1823518634
   18      C       1.0527243984    -2.4765073594     0.7658555511
   19      C       4.9930484501     1.1461592332    -0.9720060770
   20      C       6.4477807934     1.3737571844    -0.4015910387
   21      C       6.8452643628    -0.0961350621    -0.0010340349
   22      C       5.5605671717    -0.8956846039    -0.4500284241
   23      O       5.0890593542    -0.1651249639    -1.6501152968
   24      H       4.2675960169     1.5199190944     1.1185408615
   25      H       4.7568874855    -0.7202714878     1.6371975698
   26      H       4.6292091543     1.9187730928    -1.6769296287
   27      H       7.1106004063     1.7713275369    -1.1865538577
   28      H       6.4562201123     2.0666627082     0.4549486647
   29      H       7.7293765482    -0.4425277371    -0.5590813044
   30      H       7.0428768610    -0.2035842614     1.0775288982
   31      H       5.7101494845    -1.9682983822    -0.6824834749
   32      O      -1.8899373809    -1.3527079251     1.4697894286
   33      C      -2.7963137398     3.7239911277    -0.1327065592
   34      C      -5.6352037100    -0.3494221736    -0.1745353659
   35      C      -6.2134049347    -1.2774330783    -1.3130169742
   36      C      -5.1796217692    -2.4653856831    -1.2854020621
   37      C      -4.2378195228    -2.0264756954    -0.0956691868
   38      O      -5.1458411693    -1.3151359117     0.8351295492
   39      H      -4.4203401458     0.6149043069    -1.7933567370
   40      H      -2.7926729926    -1.0914476092    -1.5563042189
   41      H      -2.1085986216     3.4840861554     0.7029546225
   42      H      -6.3568556095     0.3546314954     0.2829860053
   43      H      -7.2266789400    -1.6204405871    -1.0494243972
   44      H      -6.2540653624    -0.7687676441    -2.2892705942
   45      H      -5.6698317801    -3.4249049429    -1.0571465460
   46      H      -4.6263896501    -2.5674617639    -2.2328433063
   47      H      -3.7109862810    -2.8448565469     0.4324262439
   48      H      -3.6606067980     4.2869405033     0.2756653652
   49      H      -2.2686929154     4.3454250089    -0.8793381706
   50      H       0.0929755025    -2.1448346318     1.2133314409
   51      H       1.4237838372    -3.3787772570     1.2909873553
   52      H       0.8946048280    -2.7302475664    -0.3016732415
   53      H       0.3558532672     2.2123585662    -0.3838427636
   54      H       0.2023170727     2.9329426467     1.2861242660
   55      H       0.3777936373    -0.0835564683     1.1582684330
   56      H      -0.7842566475     0.8844066017     2.1375458165
 ----------------------------------------------------------------

   10   -1510.2840464246      9.35E-09 Convergence criterion met
 Total energy in the final basis set = -1510.28404642
 Final energy is   -1510.28404642464
 **  OPTIMIZATION CONVERGED  **

                    Orbital Energies (a.u.)
 --------------------------------------------------------------

 Alpha MOs
 -- Occupied --
-18.940 -18.939 -18.932 -18.932 -18.888 -18.886 -18.880 -18.879
-18.875 -18.871 -10.104 -10.103 -10.100 -10.097 -10.072 -10.066
-10.064 -10.061 -10.058 -10.058 -10.058 -10.057 -10.042 -10.040
-10.039 -10.036 -10.022 -10.021 -10.020 -10.019  -1.019  -1.015
 -1.010  -1.007  -0.971  -0.969  -0.942  -0.938  -0.936  -0.933
 -0.765  -0.763  -0.728  -0.723  -0.712  -0.705  -0.697  -0.663
 -0.661  -0.618  -0.598  -0.584  -0.547  -0.546  -0.538  -0.538
 -0.514  -0.509  -0.486  -0.475  -0.463  -0.457  -0.454  -0.446
 -0.445  -0.431  -0.429  -0.418  -0.412  -0.410  -0.408  -0.401
 -0.396  -0.382  -0.374  -0.370  -0.364  -0.359  -0.352  -0.348
 -0.346  -0.338  -0.336  -0.334  -0.331  -0.330  -0.329  -0.312
 -0.310  -0.306  -0.306  -0.299  -0.294  -0.286  -0.282  -0.276
 -0.273  -0.258  -0.254  -0.253  -0.249  -0.235  -0.233  -0.184
 -0.181  -0.176  -0.174  -0.160  -0.160  -0.152  -0.149  -0.145
 -0.143

          Ground-State Mulliken Net Atomic Charges

     Atom                 Charge (a.u.)
  ----------------------------------------
      1 O                    -0.215247
      2 C                     0.208753
      3 C                    -0.079799
      4 C                    -0.077306
      5 C                     0.212695
      6 O                    -0.169941
      7 C                    -0.057373
      8 C                    -0.052657
      9 O                    -0.172443
     10 C                     0.210575
     11 C                    -0.081002
     12 C                    -0.077232
     13 C                     0.211257
     14 O                    -0.209598
     15 O                    -0.167096
     16 O                    -0.173276
     17 O                    -0.212741
     18 C                    -0.136391
     19 C                     0.026029
     20 C                    -0.143518
     21 C                    -0.144605
     22 C                     0.023813
     23 O                    -0.187346
     24 H                     0.086549
     25 H                     0.085539
     26 H                     0.084823
     27 H                     0.078418
     28 H                     0.073363
     29 H                     0.078941
     30 H                     0.073295
     31 H                     0.092475
     32 O                    -0.214454
     33 C                    -0.127675
     34 C                     0.024997
     35 C                    -0.143258
     36 C                    -0.144702
     37 C                     0.024201
     38 O                    -0.187367
     39 H                     0.086176
     40 H                     0.088033
     41 H                     0.085122
     42 H                     0.085906
     43 H                     0.078132
     44 H                     0.073431
     45 H                     0.078463
     46 H                     0.073345
     47 H                     0.089316
     48 H                     0.088091
     49 H                     0.089448
     50 H                     0.102066
     51 H                     0.089716
     52 H                     0.089191
     53 H                     0.103276
     54 H                     0.086613
     55 H                     0.104922
     56 H                     0.088060
  ----------------------------------------
  Sum of atomic charges =     0.000000

                    Cartesian Multipole Moments
 -----------------------------------------------------------------
    Charge (ESU x 10^10)
                -0.0000
    Dipole Moment (Debye)
         X       0.8492      Y       1.8393      Z      -0.3375
       Tot       2.0538
    Quadrupole Moments (Debye-Ang)
        XX    -149.2972     XY       6.1494     YY    -153.7884
        XZ      20.0546     YZ       1.0019     ZZ    -167.4324

 Total job time:  51.78s(wall), 2460.91s(cpu)
        *  Thank you very much for using Q-Chem.  Have a nice day.  *
