 Q-Chem 5.0, Q-Chem, Inc., Pleasanton, CA (2017)
 Q-Chem 5.0.1 for Intel X86 EM64T Linux

User input:
--------------------------------------------------------------
$molecule
0  1
O -3.94934 -3.66094 2.70899
C -3.26408 -4.56952 2.26188
C -3.36658 -6.02376 2.66595
C -2.53665 -6.47626 3.87852
C -1.83525 -5.38743 4.65991
O -0.93442 -4.7472 3.85739
C -0.20684 -3.71831 4.53656
C 0.77357 -3.04845 3.57936
O 1.98836 -2.72171 4.27247
C 2.8728 -3.74041 4.41089
C 4.15267 -3.31976 5.09328
C 4.50233 -4.11448 6.35994
C 3.74366 -5.41157 6.55666
O 4.22855 -6.46439 6.94525
O -2.27339 -4.26933 1.38166
O 2.38978 -5.29681 6.6347
O 2.70202 -4.86574 3.95339
C 1.53688 -6.33692 6.94891
C 5.41746 -3.5615 4.24648
C 6.52279 -2.60935 4.6985
C 6.84947 -3.18432 6.06278
C 5.97504 -4.44542 6.04663
O 5.91082 -4.8036 4.68676
H 4.08068 -2.22938 5.31603
H 4.3543 -3.51121 7.28245
H 5.24128 -3.46217 3.15303
H 7.38948 -2.78455 4.02107
H 6.26822 -1.52771 4.6895
H 7.93162 -3.4417 6.08364
H 6.59297 -2.53315 6.9265
H 6.39738 -5.21084 6.73379
O -2.05994 -5.10013 5.83119
C -2.01601 -3.00077 0.90602
C -4.7837 -6.37088 3.18048
C -5.04366 -7.86914 3.03063
C -4.14288 -8.41969 4.11444
C -3.63911 -7.11566 4.74282
O -4.70756 -6.21828 4.57648
H -3.19131 -6.6302 1.7487
H -1.75238 -7.21129 3.59106
H -1.76901 -2.3188 1.74688
H -5.58868 -5.79746 2.66987
H -6.1025 -8.04659 3.32723
H -4.87503 -8.28564 2.01433
H -4.7698 -8.98803 4.83707
H -3.30293 -9.05438 3.75767
H -3.31061 -7.30099 5.78913
H -2.90021 -2.61206 0.35708
H -1.15203 -3.0408 0.21154
H 0.49137 -5.96883 6.9549
H 1.77347 -6.73599 7.95835
H 1.62763 -7.14599 6.19305
H 1.00311 -3.71108 2.7129
H 0.30576 -2.14248 3.1408
H 0.37608 -4.22238 5.33396
H -0.85613 -2.95286 5.01844
$end

$opt
CONSTRAINT
tors           1           2           3           4     -87.502
tors           3           4           5           6     -61.879
tors           4           5           6           7    -178.711
tors           5           6           7           8    -179.856
tors           6           7           8           9    -143.007
tors           7           8           9          10     +81.787
tors           8           9          10          11    +177.492
tors           9          10          11          12    +123.191
tors          11          12          13          14    +138.053
ENDCONSTRAINT
$end

$rem
JOBTYPE                   OPT
METHOD                    B3LYP
DFT_D                     d3_op
BASIS                     STO-3G
GEOM_OPT_MAX_CYCLES       100
GEOM_OPT_TOL_GRADIENT     300
GEOM_OPT_TOL_DISPLACEMENT 1200
GEOM_OPT_TOL_ENERGY       100
SYMMETRY                  False
THRESH                    12
SCF_CONVERGENCE           8
MAX_SUB_FILE_NUM          128
MEM_STATIC                400
MEM_TOTAL                 4000
$end
--------------------------------------------------------------

   15   -1510.1560017740      9.12E-09 Convergence criterion met
 Total energy in the final basis set = -1510.15600177
   14   -1510.2245244644      6.06E-09 Convergence criterion met
 Total energy in the final basis set = -1510.22452446
   14   -1510.2609332055      6.28E-09 Convergence criterion met
 Total energy in the final basis set = -1510.26093321
   13   -1510.2761926098      9.95E-09 Convergence criterion met
 Total energy in the final basis set = -1510.27619261
   13   -1510.2806700725      8.69E-09 Convergence criterion met
 Total energy in the final basis set = -1510.28067007
    2   -1510.2806700724      8.65E-09 Convergence criterion met
 Total energy in the final basis set = -1510.28067007
   14   -1510.2807515279      4.58E-09 Convergence criterion met
 Total energy in the final basis set = -1510.28075153
   13   -1510.2828424739      3.83E-09 Convergence criterion met
   12   -1510.2843151768      3.62E-09 Convergence criterion met
 Total energy in the final basis set = -1510.28431518
   12   -1510.2843650903      2.14E-09 Convergence criterion met
 Total energy in the final basis set = -1510.28436509
   11   -1510.2844144207      6.42E-09 Convergence criterion met
 Total energy in the final basis set = -1510.28441442
   11   -1510.2844579664      5.81E-09 Convergence criterion met
 Total energy in the final basis set = -1510.28445797
   11   -1510.2844729429      2.94E-09 Convergence criterion met
 Total energy in the final basis set = -1510.28447294
   11   -1510.2844769105      3.75E-09 Convergence criterion met
 Total energy in the final basis set = -1510.28447691

             Standard Nuclear Orientation (Angstroms)
    I     Atom           X                Y                Z
 ----------------------------------------------------------------
    1      O      -4.1817666626     1.9393980117     1.1253224169
    2      C      -3.9129697557     1.6024413421    -0.0478295535
    3      C      -4.2997862120     0.2722097206    -0.7807498491
    4      C      -3.2538955665    -0.9064345242    -0.5712894989
    5      C      -2.1682956092    -0.6013300851     0.5224784060
    6      O      -1.4088145041     0.5372852818     0.1117598782
    7      C      -0.3565261148     0.8231555702     1.1179752750
    8      C       0.4592201992     2.0804702030     0.6425721447
    9      O       1.8771712037     1.8504076020     1.0132756549
   10      C       2.4955361874     1.0165589437     0.0191735975
   11      C       3.9985930300     0.8419352137     0.3957228226
   12      C       4.4229907814    -0.6796090685     0.5569170657
   13      C       3.2924019496    -1.7591394703     0.3617481018
   14      O       3.4212147453    -2.8359839264    -0.2594271184
   15      O      -3.2340302984     2.4436472626    -0.9895085018
   16      O       2.0985080067    -1.4004725746     1.0771168058
   17      O       1.9101028920     0.5882501932    -0.9987098096
   18      C       1.0905666718    -2.4826694619     0.9210831934
   19      C       4.9392145444     1.2775849013    -0.8121292361
   20      C       6.4152953810     1.4180932280    -0.2661700366
   21      C       6.8314097187    -0.0930097968    -0.1224786132
   22      C       5.5100191340    -0.8180296888    -0.5884819013
   23      O       4.9894045641     0.0655135650    -1.6584699000
   24      H       4.2035933228     1.4192040109     1.3137725250
   25      H       4.8684379739    -0.8478693668     1.5557338342
   26      H       4.5644997863     2.1417503800    -1.3941171998
   27      H       7.0480192796     1.9450897640    -0.9978365846
   28      H       6.4517694169     1.9637083565     0.6902904942
   29      H       7.6652088332    -0.3467924231    -0.7962705616
   30      H       7.1157713693    -0.3616569389     0.9075008151
   31      H       5.6266139564    -1.8541031019    -0.9623836647
   32      O      -1.9202243336    -1.2710938355     1.5501844615
   33      C      -2.8265554157     3.7060780771    -0.3334852509
   34      C      -5.6211567016    -0.3991268337    -0.2083672248
   35      C      -6.1788893567    -1.3762766309    -1.3156547214
   36      C      -5.1298542613    -2.5486690183    -1.2351146337
   37      C      -4.2078081457    -2.0570325406    -0.0510443346
   38      O      -5.1337561152    -1.3210833237     0.8423365525
   39      H      -4.3988121648     0.5025056382    -1.8563605143
   40      H      -2.7419663740    -1.1596009508    -1.5177298972
   41      H      -2.1636488892     3.5176624359     0.5347653690
   42      H      -6.3534642445     0.3154872003     0.2146884099
   43      H      -7.1898778844    -1.7224576938    -1.0474031670
   44      H      -6.2175412656    -0.9050220221    -2.3106350382
   45      H      -5.6100611036    -3.5061920152    -0.9790109176
   46      H      -4.5643776098    -2.6763635796    -2.1722315869
   47      H      -3.6805670181    -2.8507788144     0.5129335800
   48      H      -3.7042203943     4.2879047959     0.0157971416
   49      H      -2.2789501574     4.2863925165    -1.0986253589
   50      H       0.1661122881    -2.1336500587     1.4236214635
   51      H       1.4397075764    -3.4251958598     1.3886815875
   52      H       0.8768236724    -2.6779181680    -0.1489632373
   53      H       0.3459495163     2.1968162700    -0.4567640131
   54      H       0.1422007595     3.0046349640     1.1628634305
   55      H       0.3529490388    -0.0275797184     1.2003078298
   56      H      -0.8110243380     0.9916745283     2.1174873455
 ----------------------------------------------------------------

    9   -1510.2844772467      8.79E-09 Convergence criterion met
 Total energy in the final basis set = -1510.28447725
 Final energy is   -1510.28447724666
 **  OPTIMIZATION CONVERGED  **

                    Orbital Energies (a.u.)
 --------------------------------------------------------------

 Alpha MOs
 -- Occupied --
-18.939 -18.937 -18.933 -18.932 -18.889 -18.885 -18.879 -18.878
-18.873 -18.871 -10.103 -10.101 -10.099 -10.097 -10.074 -10.068
-10.064 -10.062 -10.059 -10.058 -10.058 -10.057 -10.040 -10.039
-10.039 -10.036 -10.022 -10.021 -10.020 -10.019  -1.019  -1.014
 -1.009  -1.007  -0.971  -0.969  -0.941  -0.937  -0.935  -0.933
 -0.765  -0.763  -0.728  -0.723  -0.712  -0.705  -0.697  -0.663
 -0.660  -0.618  -0.598  -0.584  -0.547  -0.546  -0.538  -0.537
 -0.514  -0.509  -0.486  -0.472  -0.463  -0.456  -0.453  -0.448
 -0.444  -0.431  -0.429  -0.415  -0.412  -0.410  -0.407  -0.400
 -0.396  -0.382  -0.372  -0.369  -0.364  -0.359  -0.354  -0.348
 -0.346  -0.340  -0.337  -0.332  -0.331  -0.329  -0.328  -0.312
 -0.309  -0.306  -0.306  -0.297  -0.293  -0.286  -0.283  -0.275
 -0.273  -0.257  -0.255  -0.253  -0.250  -0.235  -0.233  -0.182
 -0.181  -0.175  -0.174  -0.159  -0.158  -0.151  -0.148  -0.145
 -0.143

          Ground-State Mulliken Net Atomic Charges

     Atom                 Charge (a.u.)
  ----------------------------------------
      1 O                    -0.215252
      2 C                     0.208771
      3 C                    -0.079884
      4 C                    -0.077232
      5 C                     0.212192
      6 O                    -0.170131
      7 C                    -0.054119
      8 C                    -0.051100
      9 O                    -0.171971
     10 C                     0.210391
     11 C                    -0.080328
     12 C                    -0.078080
     13 C                     0.212331
     14 O                    -0.209282
     15 O                    -0.167210
     16 O                    -0.174192
     17 O                    -0.213625
     18 C                    -0.134963
     19 C                     0.026363
     20 C                    -0.143934
     21 C                    -0.143973
     22 C                     0.024163
     23 O                    -0.186457
     24 H                     0.086858
     25 H                     0.084872
     26 H                     0.083179
     27 H                     0.078414
     28 H                     0.073702
     29 H                     0.078847
     30 H                     0.073457
     31 H                     0.092391
     32 O                    -0.213599
     33 C                    -0.127640
     34 C                     0.024902
     35 C                    -0.143120
     36 C                    -0.144792
     37 C                     0.024300
     38 O                    -0.187374
     39 H                     0.086063
     40 H                     0.088150
     41 H                     0.085225
     42 H                     0.085917
     43 H                     0.078072
     44 H                     0.073365
     45 H                     0.078437
     46 H                     0.073435
     47 H                     0.089044
     48 H                     0.087882
     49 H                     0.089365
     50 H                     0.100402
     51 H                     0.087997
     52 H                     0.091290
     53 H                     0.101513
     54 H                     0.087499
     55 H                     0.100777
     56 H                     0.088696
  ----------------------------------------
  Sum of atomic charges =     0.000000

                    Cartesian Multipole Moments
 -----------------------------------------------------------------
    Charge (ESU x 10^10)
                 0.0000
    Dipole Moment (Debye)
         X       0.9840      Y       1.7012      Z      -0.3542
       Tot       1.9969
    Quadrupole Moments (Debye-Ang)
        XX    -148.7916     XY       5.5844     YY    -153.0682
        XZ      20.1489     YZ       0.0170     ZZ    -167.5361

 Total job time:  51.99s(wall), 2468.96s(cpu)
        *  Thank you very much for using Q-Chem.  Have a nice day.  *
