 Q-Chem 5.0, Q-Chem, Inc., Pleasanton, CA (2017)
 Q-Chem 5.0.1 for Intel X86 EM64T Linux

User input:
--------------------------------------------------------------
$molecule
0  1
O -3.94934 -3.66094 2.70899
C -3.26408 -4.56952 2.26188
C -3.36658 -6.02376 2.66595
C -2.55282 -6.47162 3.89113
C -1.86751 -5.37912 4.68163
O -1.02749 -4.67438 3.86731
C -0.3176 -3.63727 4.55266
C 0.5944 -2.89443 3.5818
O 1.8245 -2.54509 4.23578
C 2.84295 -3.42528 4.07092
C 4.16776 -2.89059 4.56045
C 4.91585 -3.80987 5.53695
C 4.42677 -5.24281 5.60181
O 5.13076 -6.23726 5.50161
O -2.32252 -4.27984 1.32578
O 3.1431 -5.40963 6.02139
O 2.74525 -4.48687 3.46411
C 2.53362 -6.63221 6.21059
C 5.22831 -2.74463 3.44938
C 6.24891 -1.68412 3.85751
C 6.95929 -2.3984 4.99077
C 6.31313 -3.78683 4.88815
O 5.99662 -3.92154 3.52339
H 3.99049 -1.88326 5.00493
H 4.88688 -3.41438 6.57597
H 4.79431 -2.50342 2.45439
H 6.95573 -1.58036 3.00282
H 5.83965 -0.68292 4.1123
H 8.04572 -2.43552 4.75428
H 6.80045 -1.96166 6.00066
H 6.99326 -4.55807 5.31148
O -2.08561 -5.11645 5.85981
C -2.09945 -3.01898 0.8137
C -4.78861 -6.38504 3.15363
C -5.03102 -7.88542 2.99627
C -4.14345 -8.43031 4.09444
C -3.66267 -7.12359 4.73533
O -4.73701 -6.23572 4.55177
H -3.16009 -6.62995 1.7548
H -1.7555 -7.19348 3.60637
H -1.81767 -2.31854 1.62759
H -5.58925 -5.81695 2.63052
H -6.09303 -8.07383 3.27419
H -4.8409 -8.29773 1.98205
H -4.77722 -9.00674 4.80457
H -3.29146 -9.05595 3.75045
H -3.35031 -7.30819 5.78658
H -3.01283 -2.64764 0.30185
H -1.27048 -3.06617 0.07822
H 1.48931 -6.4689 6.54761
H 3.07421 -7.21452 6.98698
H 2.51602 -7.20114 5.25654
H 0.78372 -3.54168 2.69499
H 0.09069 -2.00008 3.16009
H 0.33044 -4.14891 5.3017
H -0.97553 -2.91722 5.08928
$end

$opt
CONSTRAINT
tors           1           2           3           4     -86.621
tors           3           4           5           6     -57.578
tors           4           5           6           7    -178.711
tors           5           6           7           8    -179.856
tors           6           7           8           9    -142.639
tors           7           8           9          10     +94.312
tors           8           9          10          11    +169.478
tors           9          10          11          12    +127.884
tors          11          12          13          14    +129.111
ENDCONSTRAINT
$end

$rem
JOBTYPE                   OPT
METHOD                    B3LYP
DFT_D                     d3_op
BASIS                     STO-3G
GEOM_OPT_MAX_CYCLES       100
GEOM_OPT_TOL_GRADIENT     300
GEOM_OPT_TOL_DISPLACEMENT 1200
GEOM_OPT_TOL_ENERGY       100
SYMMETRY                  False
THRESH                    12
SCF_CONVERGENCE           8
MAX_SUB_FILE_NUM          128
MEM_STATIC                400
MEM_TOTAL                 4000
$end
--------------------------------------------------------------

   15   -1510.1565074416      7.05E-09 Convergence criterion met
 Total energy in the final basis set = -1510.15650744
   14   -1510.2246299196      6.08E-09 Convergence criterion met
 Total energy in the final basis set = -1510.22462992
   14   -1510.2606751028      6.03E-09 Convergence criterion met
 Total energy in the final basis set = -1510.26067510
   14   -1510.2756058820      4.42E-09 Convergence criterion met
 Total energy in the final basis set = -1510.27560588
   14   -1510.2798776344      4.10E-09 Convergence criterion met
 Total energy in the final basis set = -1510.27987763
   12   -1510.2812588064      9.70E-09 Convergence criterion met
 Total energy in the final basis set = -1510.28125881
   13   -1510.2819372838      5.62E-09 Convergence criterion met
 Total energy in the final basis set = -1510.28193728
   12   -1510.2823220728      7.32E-09 Convergence criterion met
   11   -1510.2831894684      4.33E-09 Convergence criterion met
 Total energy in the final basis set = -1510.28318947
   10   -1510.2831977765      7.15E-09 Convergence criterion met
 Total energy in the final basis set = -1510.28319778
    9   -1510.2831996707      6.38E-09 Convergence criterion met
 Total energy in the final basis set = -1510.28319967
    9   -1510.2832010097      2.54E-09 Convergence criterion met
 Total energy in the final basis set = -1510.28320101
    9   -1510.2832020285      3.25E-09 Convergence criterion met
 Total energy in the final basis set = -1510.28320203
    9   -1510.2832067239      3.71E-09 Convergence criterion met
 Total energy in the final basis set = -1510.28320672

             Standard Nuclear Orientation (Angstroms)
    I     Atom           X                Y                Z
 ----------------------------------------------------------------
    1      O      -4.0941236572     2.1183861895     0.8885366547
    2      C      -3.8025130441     1.6246856491    -0.2219919815
    3      C      -4.3228168155     0.2836970840    -0.8456748802
    4      C      -3.4830577403    -1.0008561593    -0.4307981721
    5      C      -2.4358741172    -0.7358032690     0.7106759258
    6      O      -1.5455802394     0.3008623552     0.2852957772
    7      C      -0.5238691810     0.5524068524     1.3324427586
    8      C       0.4149808365     1.6995513688     0.8046150210
    9      O       1.8130046054     1.4319267194     1.2162716824
   10      C       2.5098539684     0.7383093980     0.1680208438
   11      C       4.0318887804     0.7166473910     0.5262857665
   12      C       4.6588291960    -0.7406259938     0.4736962261
   13      C       3.6157926972    -1.8569631117     0.1090127900
   14      O       3.7186966753    -2.7344670968    -0.7727754449
   15      O      -2.9775155765     2.2765535719    -1.1975293654
   16      O       2.4991961955    -1.7397011743     1.0049826053
   17      O       1.9666548286     0.3319730640    -0.8824111340
   18      C       1.4331534619    -2.6902909452     0.6111046831
   19      C       4.8919872556     1.4408998294    -0.6001697693
   20      C       6.3407437453     1.6998549720    -0.0255285188
   21      C       6.9556134127     0.2516551686    -0.0847739391
   22      C       5.7416751001    -0.5708852058    -0.6677452734
   23      O       5.0984164424     0.3779679906    -1.6083518754
   24      H       4.1648082862     1.1844092871     1.5170500006
   25      H       5.1209897771    -1.0014115883     1.4438509996
   26      H       4.4011765155     2.3207288819    -1.0600670717
   27      H       6.8914823450     2.4000830065    -0.6734835655
   28      H       6.3131154568     2.1103883773     0.9965680188
   29      H       7.8164548988     0.2071153665    -0.7705920157
   30      H       7.2709807403    -0.1170460081     0.9043768644
   31      H       5.9972480996    -1.5152463607    -1.1867112082
   32      O      -2.3361863128    -1.3364129298     1.8016508901
   33      C      -2.4823190021     3.5621320305    -0.6570737115
   34      C      -5.7662923289    -0.1247107938    -0.3221012696
   35      C      -6.3874750797    -1.1366082520    -1.3632819691
   36      C      -5.5352066327    -2.4278418567    -1.0707664103
   37      C      -4.6311213022    -1.9360060883     0.1268921130
   38      O      -5.4940629573    -0.9772716313     0.8570448119
   39      H      -4.3120480566     0.4031769215    -1.9434564600
   40      H      -2.9580030500    -1.4323110548    -1.3028724888
   41      H      -1.9504328711     3.4235180886     0.3053586746
   42      H      -6.4115097919     0.7295602469    -0.0395005771
   43      H      -7.4548406549    -1.3017741084    -1.1457581437
   44      H      -6.2884088579    -0.7836715599    -2.4022381561
   45      H      -6.1709553607    -3.2702125780    -0.7552937089
   46      H      -4.9349337512    -2.7456563686    -1.9384178909
   47      H      -4.2673514573    -2.7249660003     0.8135191109
   48      H      -3.3104079788     4.2832643919    -0.4975951764
   49      H      -1.7834847899     3.9647003310    -1.4132486735
   50      H       0.6955856444    -2.6935370310     1.4351913798
   51      H       1.8331687868    -3.7128758736     0.4601331249
   52      H       0.9403185369    -2.3591324427    -0.3265330736
   53      H       0.3397723083     1.7318991947    -0.3039244592
   54      H       0.1360033122     2.6795195296     1.2391191265
   55      H       0.0831617023    -0.3616262509     1.5106846390
   56      H      -1.0081850912     0.8320657592     2.2923011768
 ----------------------------------------------------------------

    9   -1510.2832067811      5.89E-09 Convergence criterion met
 Total energy in the final basis set = -1510.28320678
 Final energy is   -1510.28320678112
 **  OPTIMIZATION CONVERGED  **

                    Orbital Energies (a.u.)
 --------------------------------------------------------------

 Alpha MOs
 -- Occupied --
-18.937 -18.935 -18.934 -18.931 -18.889 -18.885 -18.880 -18.879
-18.874 -18.870 -10.102 -10.102 -10.101 -10.096 -10.074 -10.073
-10.064 -10.063 -10.063 -10.059 -10.058 -10.057 -10.040 -10.039
-10.039 -10.035 -10.023 -10.021 -10.019 -10.018  -1.018  -1.015
 -1.009  -1.006  -0.972  -0.968  -0.942  -0.939  -0.936  -0.932
 -0.766  -0.762  -0.729  -0.723  -0.712  -0.705  -0.698  -0.663
 -0.662  -0.618  -0.597  -0.584  -0.548  -0.545  -0.539  -0.537
 -0.514  -0.509  -0.487  -0.472  -0.463  -0.455  -0.454  -0.447
 -0.445  -0.432  -0.429  -0.415  -0.413  -0.411  -0.409  -0.401
 -0.397  -0.382  -0.375  -0.368  -0.364  -0.357  -0.354  -0.349
 -0.347  -0.342  -0.337  -0.333  -0.331  -0.329  -0.328  -0.312
 -0.309  -0.307  -0.306  -0.297  -0.293  -0.285  -0.284  -0.275
 -0.273  -0.256  -0.255  -0.253  -0.250  -0.236  -0.232  -0.182
 -0.181  -0.176  -0.174  -0.160  -0.158  -0.152  -0.147  -0.145
 -0.143

          Ground-State Mulliken Net Atomic Charges

     Atom                 Charge (a.u.)
  ----------------------------------------
      1 O                    -0.216428
      2 C                     0.209690
      3 C                    -0.080019
      4 C                    -0.077401
      5 C                     0.210439
      6 O                    -0.172074
      7 C                    -0.049483
      8 C                    -0.052436
      9 O                    -0.172674
     10 C                     0.211925
     11 C                    -0.079038
     12 C                    -0.078529
     13 C                     0.214666
     14 O                    -0.206376
     15 O                    -0.167741
     16 O                    -0.174062
     17 O                    -0.215974
     18 C                    -0.131571
     19 C                     0.025948
     20 C                    -0.143712
     21 C                    -0.143890
     22 C                     0.024254
     23 O                    -0.186052
     24 H                     0.087216
     25 H                     0.085351
     26 H                     0.082799
     27 H                     0.078541
     28 H                     0.073953
     29 H                     0.078828
     30 H                     0.073508
     31 H                     0.091294
     32 O                    -0.209911
     33 C                    -0.127851
     34 C                     0.024946
     35 C                    -0.143188
     36 C                    -0.144838
     37 C                     0.024166
     38 O                    -0.187562
     39 H                     0.085933
     40 H                     0.086647
     41 H                     0.085744
     42 H                     0.085755
     43 H                     0.078002
     44 H                     0.073311
     45 H                     0.078299
     46 H                     0.073183
     47 H                     0.089440
     48 H                     0.086828
     49 H                     0.089132
     50 H                     0.091561
     51 H                     0.093523
     52 H                     0.091713
     53 H                     0.103851
     54 H                     0.086763
     55 H                     0.092534
     56 H                     0.091068
  ----------------------------------------
  Sum of atomic charges =     0.000000

                    Cartesian Multipole Moments
 -----------------------------------------------------------------
    Charge (ESU x 10^10)
                 0.0000
    Dipole Moment (Debye)
         X       1.2251      Y       1.2272      Z      -0.2532
       Tot       1.7524
    Quadrupole Moments (Debye-Ang)
        XX    -150.9387     XY       6.7165     YY    -152.0029
        XZ      22.2585     YZ      -0.8997     ZZ    -168.8911

 Total job time:  59.25s(wall), 2818.89s(cpu)
        *  Thank you very much for using Q-Chem.  Have a nice day.  *
