 Q-Chem 5.0, Q-Chem, Inc., Pleasanton, CA (2017)
 Q-Chem 5.0.1 for Intel X86 EM64T Linux

User input:
--------------------------------------------------------------
$molecule
0  1
O -4.0941236572 2.1183861895 0.8885366547
C -3.8025130441 1.6246856491 -0.2219919815
C -4.3228168155 0.283697084 -0.8456748802
C -3.4830577403 -1.0008561593 -0.4307981721
C -2.4358741172 -0.735803269 0.7106759258
O -1.5455802394 0.3008623552 0.2852957772
C -0.523869181 0.5524068524 1.3324427586
C 0.4149808365 1.6995513688 0.804615021
O 1.8130046054 1.4319267194 1.2162716824
C 2.5098539684 0.738309398 0.1680208438
C 4.0318887804 0.716647391 0.5262857665
C 4.658829196 -0.7406259938 0.4736962261
C 3.6157926972 -1.8569631117 0.10901279
O 3.7186966753 -2.7344670968 -0.7727754449
O -2.9775155765 2.2765535719 -1.1975293654
O 2.4991961955 -1.7397011743 1.0049826053
O 1.9666548286 0.331973064 -0.882411134
C 1.4331534619 -2.6902909452 0.6111046831
C 4.8919872556 1.4408998294 -0.6001697693
C 6.3407437453 1.699854972 -0.0255285188
C 6.9556134127 0.2516551686 -0.0847739391
C 5.7416751001 -0.5708852058 -0.6677452734
O 5.0984164424 0.3779679906 -1.6083518754
H 4.1648082862 1.1844092871 1.5170500006
H 5.1209897771 -1.0014115883 1.4438509996
H 4.4011765155 2.3207288819 -1.0600670717
H 6.891482345 2.4000830065 -0.6734835655
H 6.3131154568 2.1103883773 0.9965680188
H 7.8164548988 0.2071153665 -0.7705920157
H 7.2709807403 -0.1170460081 0.9043768644
H 5.9972480996 -1.5152463607 -1.1867112082
O -2.3361863128 -1.3364129298 1.8016508901
C -2.4823190021 3.5621320305 -0.6570737115
C -5.7662923289 -0.1247107938 -0.3221012696
C -6.3874750797 -1.136608252 -1.3632819691
C -5.5352066327 -2.4278418567 -1.0707664103
C -4.6311213022 -1.9360060883 0.126892113
O -5.4940629573 -0.9772716313 0.8570448119
H -4.3120480566 0.4031769215 -1.94345646
H -2.95800305 -1.4323110548 -1.3028724888
H -1.9504328711 3.4235180886 0.3053586746
H -6.4115097919 0.7295602469 -0.0395005771
H -7.4548406549 -1.3017741084 -1.1457581437
H -6.2884088579 -0.7836715599 -2.4022381561
H -6.1709553607 -3.270212578 -0.7552937089
H -4.9349337512 -2.7456563686 -1.9384178909
H -4.2673514573 -2.7249660003 0.8135191109
H -3.3104079788 4.2832643919 -0.4975951764
H -1.7834847899 3.964700331 -1.4132486735
H 0.6955856444 -2.693537031 1.4351913798
H 1.8331687868 -3.7128758736 0.4601331249
H 0.9403185369 -2.3591324427 -0.3265330736
H 0.3397723083 1.7318991947 -0.3039244592
H 0.1360033122 2.6795195296 1.2391191265
H 0.0831617023 -0.3616262509 1.510684639
H -1.0081850912 0.8320657592 2.2923011768
$end

$rem
JOBTYPE                   OPT
METHOD                    B3LYP
DFT_D                     d3_op
BASIS                     STO-3G
GEOM_OPT_MAX_CYCLES       100
GEOM_OPT_TOL_GRADIENT     300
GEOM_OPT_TOL_DISPLACEMENT 1200
GEOM_OPT_TOL_ENERGY       100
SYMMETRY                  False
THRESH                    12
SCF_CONVERGENCE           8
MAX_SUB_FILE_NUM          128
MEM_STATIC                400
MEM_TOTAL                 4000
$end
--------------------------------------------------------------

   16   -1510.2831333686      5.54E-09 Convergence criterion met
 Total energy in the final basis set = -1510.28313337
   14   -1510.2848071991      3.61E-09 Convergence criterion met
 Total energy in the final basis set = -1510.28480720
   14   -1510.2861613950      6.11E-09 Convergence criterion met
 Total energy in the final basis set = -1510.28616140
   14   -1510.2871232466      7.38E-09 Convergence criterion met
 Total energy in the final basis set = -1510.28712325
   14   -1510.2866960696      7.21E-09 Convergence criterion met
 Total energy in the final basis set = -1510.28669607
   14   -1510.2863669977      5.34E-09 Convergence criterion met
 Total energy in the final basis set = -1510.28636700
   13   -1510.2877276576      3.41E-09 Convergence criterion met
 Total energy in the final basis set = -1510.28772766
   14   -1510.2880066314      1.48E-09 Convergence criterion met
   12   -1510.2904927798      8.43E-09 Convergence criterion met
 Total energy in the final basis set = -1510.29049278
   12   -1510.2904770815      3.99E-09 Convergence criterion met
 Total energy in the final basis set = -1510.29047708
   12   -1510.2905199750      9.30E-09 Convergence criterion met
 Total energy in the final basis set = -1510.29051997
   12   -1510.2904980159      4.87E-09 Convergence criterion met
 Total energy in the final basis set = -1510.29049802
   11   -1510.2905178684      7.74E-09 Convergence criterion met
 Total energy in the final basis set = -1510.29051787
   11   -1510.2905234496      4.46E-09 Convergence criterion met
 Total energy in the final basis set = -1510.29052345

             Standard Nuclear Orientation (Angstroms)
    I     Atom           X                Y                Z
 ----------------------------------------------------------------
    1      O      -3.6740795847     1.6263418796     1.6040212648
    2      C      -3.9249643981     1.6334389360     0.3797186272
    3      C      -4.5514128239     0.4839537611    -0.4872262081
    4      C      -3.5664730595    -0.7291936260    -0.7726158858
    5      C      -2.1691025709    -0.6024196375    -0.0717988118
    6      O      -1.6850941872     0.7267487607    -0.2678949906
    7      C      -0.4326628152     0.9692747043     0.4913705782
    8      C       0.6036087415     1.6644448995    -0.4561107171
    9      O       1.9290203796     1.6430156962     0.2071891489
   10      C       2.8322598910     0.8016399954    -0.5313662147
   11      C       4.1591468609     0.6858590932     0.2842485104
   12      C       4.5314724747    -0.8118277113     0.6565822337
   13      C       3.5179814346    -1.8871215137     0.1204590281
   14      O       3.7922468680    -2.8986303161    -0.5594934517
   15      O      -3.7460579355     2.7731869854    -0.4742632027
   16      O       2.1975001647    -1.5430046891     0.5542039295
   17      O       2.5648108943     0.2947993882    -1.6431791833
   18      C       1.2206362082    -2.5192779464     0.0109218914
   19      C       5.4268800874     1.0918352047    -0.5868640792
   20      C       6.6450854860     1.3143192597     0.3954305002
   21      C       7.0185005482    -0.1714782854     0.7590187043
   22      C       5.9328951269    -0.9672905842    -0.0655267108
   23      O       5.7709030904    -0.1588086716    -1.2968081816
   24      H       4.0621888035     1.3137348042     1.1868466924
   25      H       4.6164198194    -0.9283550702     1.7528684939
   26      H       5.2451047523     1.9110723858    -1.3092497232
   27      H       7.4713374234     1.8240381342    -0.1252493037
   28      H       6.3601628167     1.9101441101     1.2771654068
   29      H       8.0316479715    -0.4295336350     0.4119476910
   30      H       6.9521471485    -0.3749320454     1.8398017268
   31      H       6.1857449109    -2.0143436535    -0.3228121104
   32      O      -1.5587056316    -1.5021862872     0.5490359254
   33      C      -3.1231876444     3.8797386872     0.2854930974
   34      C      -5.7220597146    -0.2702836189     0.2799239619
   35      C      -6.5715782574    -1.0733679097    -0.7825580816
   36      C      -5.5987304846    -2.2679601098    -1.1081336968
   37      C      -4.3833909976    -1.9396126894    -0.1570100900
   38      O      -5.0207536397    -1.3333630737     1.0348283955
   39      H      -4.9027161496     0.9305457981    -1.4337434214
   40      H      -3.3980784399    -0.8518361458    -1.8590576602
   41      H      -2.0871740560     3.6268114916     0.5906602957
   42      H      -6.3057171690     0.3705641065     0.9687371449
   43      H      -7.5110468789    -1.4307517283    -0.3317499361
   44      H      -6.8131159052    -0.4657445168    -1.6693649816
   45      H      -6.0454200575    -3.2381813684    -0.8390682379
   46      H      -5.3002814935    -2.2983566399    -2.1682519632
   47      H      -3.7499687042    -2.7995315959     0.1363313899
   48      H      -3.7049272263     4.1320228366     1.1953744492
   49      H      -3.1028533644     4.7490243110    -0.3972024271
   50      H       0.2108397631    -2.1522887293     0.2979761025
   51      H       1.3888409814    -3.5299744188     0.4341518191
   52      H       1.2987764962    -2.5840825210    -1.0928872572
   53      H       0.6859267744     1.1099599522    -1.4174259324
   54      H       0.3188516659     2.7187186696    -0.6512613766
   55      H      -0.0267933498     0.0053960219     0.8634520763
   56      H      -0.6754662495     1.6157937659     1.3616605161
 ----------------------------------------------------------------

    9   -1510.2905235744      5.85E-09 Convergence criterion met
 Total energy in the final basis set = -1510.29052357
 Final energy is   -1510.29052357439
 **  OPTIMIZATION CONVERGED  **

                    Orbital Energies (a.u.)
 --------------------------------------------------------------

 Alpha MOs
 -- Occupied --
-18.950 -18.933 -18.931 -18.927 -18.896 -18.890 -18.886 -18.876
-18.871 -18.868 -10.117 -10.101 -10.098 -10.094 -10.075 -10.070
-10.064 -10.062 -10.062 -10.060 -10.056 -10.046 -10.043 -10.039
-10.038 -10.036 -10.023 -10.022 -10.020 -10.019  -1.028  -1.014
 -1.007  -1.003  -0.973  -0.969  -0.953  -0.937  -0.933  -0.930
 -0.768  -0.763  -0.731  -0.723  -0.712  -0.707  -0.698  -0.664
 -0.652  -0.619  -0.599  -0.582  -0.549  -0.544  -0.541  -0.536
 -0.516  -0.508  -0.486  -0.477  -0.463  -0.460  -0.457  -0.450
 -0.439  -0.433  -0.429  -0.417  -0.413  -0.410  -0.404  -0.401
 -0.400  -0.387  -0.373  -0.368  -0.363  -0.361  -0.355  -0.351
 -0.346  -0.337  -0.334  -0.333  -0.330  -0.328  -0.325  -0.314
 -0.309  -0.309  -0.304  -0.303  -0.294  -0.289  -0.282  -0.276
 -0.271  -0.258  -0.253  -0.250  -0.246  -0.237  -0.233  -0.192
 -0.175  -0.174  -0.173  -0.169  -0.160  -0.149  -0.148  -0.146
 -0.143

          Ground-State Mulliken Net Atomic Charges

     Atom                 Charge (a.u.)
  ----------------------------------------
      1 O                    -0.220043
      2 C                     0.212484
      3 C                    -0.079916
      4 C                    -0.077228
      5 C                     0.223404
      6 O                    -0.169497
      7 C                    -0.054299
      8 C                    -0.055962
      9 O                    -0.172866
     10 C                     0.214196
     11 C                    -0.079068
     12 C                    -0.078587
     13 C                     0.211687
     14 O                    -0.209393
     15 O                    -0.170141
     16 O                    -0.177469
     17 O                    -0.213954
     18 C                    -0.143868
     19 C                     0.025906
     20 C                    -0.143748
     21 C                    -0.144149
     22 C                     0.024491
     23 O                    -0.186547
     24 H                     0.086864
     25 H                     0.084747
     26 H                     0.082919
     27 H                     0.077997
     28 H                     0.073357
     29 H                     0.078408
     30 H                     0.073221
     31 H                     0.091699
     32 O                    -0.209280
     33 C                    -0.128322
     34 C                     0.025512
     35 C                    -0.143652
     36 C                    -0.144236
     37 C                     0.024352
     38 O                    -0.186942
     39 H                     0.086627
     40 H                     0.087911
     41 H                     0.083385
     42 H                     0.085027
     43 H                     0.078728
     44 H                     0.073923
     45 H                     0.079265
     46 H                     0.073649
     47 H                     0.090729
     48 H                     0.089752
     49 H                     0.089093
     50 H                     0.106429
     51 H                     0.083031
     52 H                     0.086225
     53 H                     0.103784
     54 H                     0.084142
     55 H                     0.106175
     56 H                     0.090051
  ----------------------------------------
  Sum of atomic charges =     0.000000

                    Cartesian Multipole Moments
 -----------------------------------------------------------------
    Charge (ESU x 10^10)
                -0.0000
    Dipole Moment (Debye)
         X      -1.1674      Y       2.3438      Z       0.0103
       Tot       2.6185
    Quadrupole Moments (Debye-Ang)
        XX    -147.8556     XY       6.7785     YY    -155.8074
        XZ      21.7069     YZ       0.2415     ZZ    -167.0918

 Total job time:  106.40s(wall), 5064.97s(cpu)
        *  Thank you very much for using Q-Chem.  Have a nice day.  *
