 Q-Chem 5.0, Q-Chem, Inc., Pleasanton, CA (2017)
 Q-Chem 5.0.1 for Intel X86 EM64T Linux

User input:
--------------------------------------------------------------
$molecule
0  1
O -4.1057966621 1.7711347176 1.2515658241
C -3.9619420036 1.5385218716 0.0319662208
C -4.3535559372 0.2414343939 -0.7552689337
C -3.2964580799 -0.9344995646 -0.5915198726
C -2.1936052803 -0.6310039744 0.484576419
O -1.4328902718 0.4972598766 0.0457778097
C -0.3615045476 0.7885500906 1.029644691
C 0.4323819307 2.0543350106 0.5448366099
O 1.8477969375 1.8531041326 0.9416593414
C 2.5121867027 1.068074711 -0.0624446444
C 4.0064742016 0.911115606 0.3556310568
C 4.444437205 -0.6006388045 0.5666436456
C 3.3425797231 -1.7098479448 0.3747624119
O 3.5261078019 -2.8187605724 -0.172002383
O -3.4203215337 2.4773258675 -0.9062752053
O 2.1052634249 -1.3430957514 1.0073319437
O 1.965336217 0.6617672292 -1.1102541606
C 1.1367402618 -2.4636080953 0.8698963295
C 4.9753219634 1.328303709 -0.8364490497
C 6.4338676524 1.5026518351 -0.2550863428
C 6.8637161208 0.0014110181 -0.0578512903
C 5.5658919362 -0.7528623689 -0.5434403696
O 5.0648671528 0.0960939502 -1.6501095411
H 4.1817845829 1.510830729 1.265505311
H 4.8661941938 -0.7349116691 1.5808859046
H 4.60529286 2.1715105254 -1.4512328073
H 7.079899266 2.0164588626 -0.9844710461
H 6.4384524371 2.0751748021 0.686185477
H 7.7210903221 -0.2596682024 -0.6984726189
H 7.1188237619 -0.2358148071 0.98731279
H 5.7069482173 -1.7965077783 -0.8866599703
O -1.9361576157 -1.2892594355 1.5167899213
C -2.995638258 3.7068150726 -0.2001255366
C -5.6644064238 -0.4616385636 -0.1954412777
C -6.2128339448 -1.4212272225 -1.3228112146
C -5.1549332871 -2.5868589535 -1.2656742108
C -4.2300025005 -2.1050552603 -0.0799749034
O -5.1594211568 -1.3986154205 0.8331645932
H -4.463883762 0.5146932557 -1.819429023
H -2.8007929048 -1.163135474 -1.5526119294
H -2.2585923359 3.4828702943 0.5970722155
H -6.4066555531 0.2316038058 0.2454214415
H -7.2213502954 -1.7805398537 -1.06274229
H -6.2543907794 -0.9301096525 -2.3080151649
H -5.6268902943 -3.551373072 -1.020585104
H -4.5942796153 -2.6968665838 -2.2078829122
H -3.6884862092 -2.9018559305 0.4658191604
H -3.8574349095 4.234680741 0.2577049691
H -2.5296317024 4.354693308 -0.9650939378
H 0.2023831734 -2.1397426769 1.3701881695
H 1.5204346103 -3.3862214449 1.3494762311
H 0.9268728626 -2.6811976598 -0.1967756293
H 0.3384332467 2.1474707381 -0.5585023826
H 0.0882015332 2.9814212447 1.0422368561
H 0.3612675783 -0.0528398956 1.0892242542
H -0.7941626988 0.9459468606 2.0404784476
$end

$rem
JOBTYPE                   OPT
METHOD                    B3LYP
DFT_D                     d3_op
BASIS                     STO-3G
GEOM_OPT_MAX_CYCLES       100
GEOM_OPT_TOL_GRADIENT     300
GEOM_OPT_TOL_DISPLACEMENT 1200
GEOM_OPT_TOL_ENERGY       100
SYMMETRY                  False
THRESH                    12
SCF_CONVERGENCE           8
MAX_SUB_FILE_NUM          128
MEM_STATIC                400
MEM_TOTAL                 4000
$end
--------------------------------------------------------------

   16   -1510.2846376108      5.97E-09 Convergence criterion met
 Total energy in the final basis set = -1510.28463761
   15   -1510.2706148894      2.91E-09 Convergence criterion met
 Total energy in the final basis set = -1510.27061489
   14   -1510.2855942869      5.79E-09 Convergence criterion met
 Total energy in the final basis set = -1510.28559429
   14   -1510.2855597941      8.95E-09 Convergence criterion met
 Total energy in the final basis set = -1510.28555979
   13   -1510.2867173917      4.48E-09 Convergence criterion met
 Total energy in the final basis set = -1510.28671739
   14   -1510.2872932419      3.31E-09 Convergence criterion met
 Total energy in the final basis set = -1510.28729324
   14   -1510.2880439437      6.37E-09 Convergence criterion met
 Total energy in the final basis set = -1510.28804394
   13   -1510.2887826600      3.91E-09 Convergence criterion met
   12   -1510.2903992474      7.55E-09 Convergence criterion met
 Total energy in the final basis set = -1510.29039925
   12   -1510.2903900269      5.16E-09 Convergence criterion met
 Total energy in the final basis set = -1510.29039003
   11   -1510.2903975486      6.34E-09 Convergence criterion met
 Total energy in the final basis set = -1510.29039755
   11   -1510.2904088934      2.99E-09 Convergence criterion met
 Total energy in the final basis set = -1510.29040889
    9   -1510.2904111390      9.61E-09 Convergence criterion met
 Total energy in the final basis set = -1510.29041114
   11   -1510.2904125685      1.78E-09 Convergence criterion met
 Total energy in the final basis set = -1510.29041257

             Standard Nuclear Orientation (Angstroms)
    I     Atom           X                Y                Z
 ----------------------------------------------------------------
    1      O      -3.6527776742     1.6527822238     1.5598090949
    2      C      -3.9367644134     1.6164926288     0.3431885890
    3      C      -4.5675377009     0.4286059256    -0.4666837999
    4      C      -3.5738506484    -0.7844517717    -0.7220874626
    5      C      -2.1653559682    -0.6110637663    -0.0537827158
    6      O      -1.6923526321     0.7088883625    -0.3253052837
    7      C      -0.4353222760     0.9964675250     0.4109046116
    8      C       0.5995220162     1.6331725135    -0.5783538444
    9      O       1.9228595276     1.6555634321     0.0893629488
   10      C       2.8370507694     0.7877753364    -0.6032478157
   11      C       4.1565945878     0.7124851330     0.2294860576
   12      C       4.5286459918    -0.7684464123     0.6648568848
   13      C       3.5224677228    -1.8636786716     0.1563419280
   14      O       3.8020220108    -2.8924735245    -0.4948277245
   15      O      -3.7963074831     2.7299343915    -0.5513641067
   16      O       2.1999012083    -1.5115354866     0.5768271639
   17      O       2.5816795720     0.2284936825    -1.6925313839
   18      C       1.2261571892    -2.5014098606     0.0535588869
   19      C       5.4333753731     1.0872620640    -0.6422212609
   20      C       6.6392437594     1.3511461709     0.3450354295
   21      C       7.0121566869    -0.1178998400     0.7711955230
   22      C       5.9385636364    -0.9485238101    -0.0340493386
   23      O       5.7886935311    -0.1895151245    -1.2983504914
   24      H       4.0480081106     1.3757553533     1.1050695512
   25      H       4.5995982458    -0.8428762441     1.7657706720
   26      H       5.2585525127     1.8773803322    -1.3979102634
   27      H       7.4703855939     1.8423317716    -0.1855561294
   28      H       6.3427208969     1.9804631329     1.1992418256
   29      H       8.0301283723    -0.3865382808     0.4468835786
   30      H       6.9332101515    -0.2789917809     1.8583102840
   31      H       6.1967876905    -2.0040752463    -0.2473521317
   32      O      -1.5403640135    -1.4731678177     0.6049646195
   33      C      -3.1767530177     3.8710318858     0.1586954932
   34      C      -5.7121520857    -0.3064055198     0.3569459382
   35      C      -6.5730047521    -1.1667678369    -0.6501190027
   36      C      -5.5923146361    -2.3632191426    -0.9423962982
   37      C      -4.3602803391    -1.9761960921    -0.0356845692
   38      O      -4.9792760008    -1.3253124512     1.1423423020
   39      H      -4.9440215017     0.8327244426    -1.4225653792
   40      H      -3.4261825429    -0.9518027951    -1.8055292613
   41      H      -2.1301301408     3.6459743307     0.4489712701
   42      H      -6.2898879924     0.3566344753     1.0295806717
   43      H      -7.4982549859    -1.5140700196    -0.1635551006
   44      H      -6.8407275496    -0.6026885582    -1.5578493434
   45      H      -6.0201039975    -3.3251885342    -0.6183336403
   46      H      -5.3179889697    -2.4397803997    -2.0067302473
   47      H      -3.7084238629    -2.8136746588     0.2811983131
   48      H      -3.7433925424     4.1421604202     1.0726284094
   49      H      -3.1867117030     4.7180586316    -0.5516653512
   50      H       0.2164947401    -2.1343287535     0.3410626849
   51      H       1.4019774280    -3.5048657255     0.4905590878
   52      H       1.2988385823    -2.5818045515    -1.0496859476
   53      H       0.6844206644     1.0215673589    -1.5041757386
   54      H       0.3122860642     2.6726225491    -0.8391170378
   55      H      -0.0291857630     0.0559609658     0.8386044455
   56      H      -0.6745667572     1.6944846627     1.2414306179
 ----------------------------------------------------------------

   10   -1510.2904128562      8.11E-09 Convergence criterion met
 Total energy in the final basis set = -1510.29041286
 Final energy is   -1510.29041285620
 **  OPTIMIZATION CONVERGED  **

                    Orbital Energies (a.u.)
 --------------------------------------------------------------

 Alpha MOs
 -- Occupied --
-18.950 -18.933 -18.931 -18.926 -18.896 -18.890 -18.886 -18.876
-18.871 -18.868 -10.117 -10.101 -10.098 -10.094 -10.075 -10.070
-10.064 -10.062 -10.062 -10.060 -10.056 -10.046 -10.043 -10.039
-10.038 -10.036 -10.023 -10.022 -10.020 -10.019  -1.028  -1.014
 -1.007  -1.003  -0.973  -0.969  -0.953  -0.937  -0.933  -0.930
 -0.768  -0.762  -0.731  -0.723  -0.712  -0.707  -0.698  -0.664
 -0.651  -0.619  -0.599  -0.582  -0.549  -0.544  -0.541  -0.536
 -0.516  -0.508  -0.486  -0.477  -0.463  -0.460  -0.457  -0.450
 -0.439  -0.433  -0.429  -0.417  -0.413  -0.410  -0.404  -0.401
 -0.400  -0.386  -0.373  -0.368  -0.363  -0.360  -0.355  -0.351
 -0.346  -0.337  -0.335  -0.333  -0.330  -0.328  -0.325  -0.314
 -0.309  -0.309  -0.304  -0.303  -0.294  -0.289  -0.282  -0.276
 -0.271  -0.258  -0.253  -0.250  -0.245  -0.237  -0.233  -0.192
 -0.175  -0.175  -0.173  -0.169  -0.160  -0.150  -0.148  -0.146
 -0.143

          Ground-State Mulliken Net Atomic Charges

     Atom                 Charge (a.u.)
  ----------------------------------------
      1 O                    -0.219926
      2 C                     0.212182
      3 C                    -0.079826
      4 C                    -0.077250
      5 C                     0.223432
      6 O                    -0.169516
      7 C                    -0.054461
      8 C                    -0.055830
      9 O                    -0.172891
     10 C                     0.214160
     11 C                    -0.079003
     12 C                    -0.078593
     13 C                     0.211724
     14 O                    -0.209280
     15 O                    -0.169941
     16 O                    -0.177640
     17 O                    -0.214005
     18 C                    -0.144071
     19 C                     0.025810
     20 C                    -0.143730
     21 C                    -0.144140
     22 C                     0.024449
     23 O                    -0.186453
     24 H                     0.086803
     25 H                     0.084730
     26 H                     0.082909
     27 H                     0.077969
     28 H                     0.073346
     29 H                     0.078376
     30 H                     0.073219
     31 H                     0.091634
     32 O                    -0.209175
     33 C                    -0.128313
     34 C                     0.025526
     35 C                    -0.143701
     36 C                    -0.144246
     37 C                     0.024383
     38 O                    -0.186838
     39 H                     0.086638
     40 H                     0.087922
     41 H                     0.083606
     42 H                     0.084956
     43 H                     0.078767
     44 H                     0.073947
     45 H                     0.079296
     46 H                     0.073647
     47 H                     0.090835
     48 H                     0.089799
     49 H                     0.089201
     50 H                     0.106479
     51 H                     0.083063
     52 H                     0.085846
     53 H                     0.103601
     54 H                     0.084174
     55 H                     0.106476
     56 H                     0.089923
  ----------------------------------------
  Sum of atomic charges =     0.000000

                    Cartesian Multipole Moments
 -----------------------------------------------------------------
    Charge (ESU x 10^10)
                -0.0000
    Dipole Moment (Debye)
         X      -1.2957      Y       2.3404      Z      -0.0570
       Tot       2.6757
    Quadrupole Moments (Debye-Ang)
        XX    -147.6094     XY       7.7191     YY    -155.6229
        XZ      21.2916     YZ      -0.1299     ZZ    -167.3823

 Total job time:  148.29s(wall), 7061.70s(cpu)
        *  Thank you very much for using Q-Chem.  Have a nice day.  *
