 Q-Chem 5.0, Q-Chem, Inc., Pleasanton, CA (2017)
 Q-Chem 5.0.1 for Intel X86 EM64T Linux

User input:
--------------------------------------------------------------
$molecule
0  1
O -3.94934 -3.66094 2.70899
C -3.26408 -4.56952 2.26188
C -3.36658 -6.02376 2.66595
C -2.68585 -6.43726 3.98105
C -2.13111 -5.31814 4.83423
O -1.12907 -4.67648 4.1637
C -0.53178 -3.61888 4.92131
C 0.54817 -2.92644 4.09646
O 1.62171 -2.5038 4.95189
C 2.55814 -3.4469 5.2217
C 3.68115 -2.92978 6.08893
C 3.84785 -3.65459 7.43249
C 3.13036 -4.98337 7.55994
O 3.57453 -5.97845 8.1141
O -2.42804 -4.30161 1.22433
O 1.78079 -4.94682 7.38673
O 2.53299 -4.59062 4.77893
C 0.94062 -6.02016 7.61911
C 5.0812 -3.12506 5.47772
C 6.04419 -2.09812 6.06991
C 6.16531 -2.61193 7.49108
C 5.36661 -3.91767 7.38125
O 5.55167 -4.32324 6.04574
H 3.51242 -1.8395 6.2518
H 3.52293 -3.0271 8.29132
H 5.08827 -3.07101 4.36707
H 7.02086 -2.24275 5.55427
H 5.73784 -1.03409 5.97586
H 7.23957 -2.8124 7.69983
H 5.73973 -1.9478 8.27441
H 5.70328 -4.63612 8.16029
O -2.52882 -5.02103 5.95586
C -2.22134 -3.04394 0.69768
C -4.81753 -6.45429 2.94411
C -4.95476 -7.96779 2.78531
C -4.22464 -8.44841 4.02178
C -3.88371 -7.10918 4.68415
O -4.96328 -6.27705 4.33234
H -2.95497 -6.61886 1.81868
H -1.85157 -7.15607 3.81921
H -1.81167 -2.36663 1.47754
H -5.55838 -5.93097 2.30038
H -6.03455 -8.21806 2.89251
H -4.57698 -8.37302 1.82198
H -4.94353 -9.01473 4.65507
H -3.32026 -9.06581 3.83121
H -3.71346 -7.25965 5.77283
H -3.17475 -2.63147 0.30378
H -1.49109 -3.11353 -0.13436
H -0.10891 -5.72384 7.4237
H 1.01625 -6.34501 8.67883
H 1.20602 -6.86414 6.94713
H 0.93935 -3.61146 3.30896
H 0.10964 -2.07019 3.54189
H -0.04644 -4.09477 5.79384
H -1.26202 -2.86732 5.29775
$end

$opt
CONSTRAINT
tors           1           2           3           4     -79.737
tors           3           4           5           6     -63.707
tors           4           5           6           7    -178.711
tors           5           6           7           8    -178.438
tors           6           7           8           9    -145.466
tors           7           8           9          10     +84.530
tors           8           9          10          11    +178.190
tors           9          10          11          12    +119.639
tors          11          12          13          14    +140.699
ENDCONSTRAINT
$end

$rem
JOBTYPE                   OPT
METHOD                    B3LYP
DFT_D                     d3_op
BASIS                     STO-3G
GEOM_OPT_MAX_CYCLES       100
GEOM_OPT_TOL_GRADIENT     300
GEOM_OPT_TOL_DISPLACEMENT 1200
GEOM_OPT_TOL_ENERGY       100
SYMMETRY                  False
THRESH                    12
SCF_CONVERGENCE           8
MAX_SUB_FILE_NUM          128
MEM_STATIC                400
MEM_TOTAL                 4000
$end
--------------------------------------------------------------

   15   -1510.1563209768      7.92E-09 Convergence criterion met
 Total energy in the final basis set = -1510.15632098
   14   -1510.2250420256      5.90E-09 Convergence criterion met
 Total energy in the final basis set = -1510.22504203
   14   -1510.2616822379      5.51E-09 Convergence criterion met
 Total energy in the final basis set = -1510.26168224
   14   -1510.2770033474      4.61E-09 Convergence criterion met
 Total energy in the final basis set = -1510.27700335
    2   -1510.2770033474      3.34E-09 Convergence criterion met
 Total energy in the final basis set = -1510.27700335
   14   -1510.2807300970      3.95E-09 Convergence criterion met
 Total energy in the final basis set = -1510.28073010
    2   -1510.2807300969      2.57E-09 Convergence criterion met
 Total energy in the final basis set = -1510.28073010
   14   -1510.2817863531      4.10E-09 Convergence criterion met
   12   -1510.2844183118      5.25E-09 Convergence criterion met
 Total energy in the final basis set = -1510.28441831
   11   -1510.2845089513      9.10E-09 Convergence criterion met
 Total energy in the final basis set = -1510.28450895
   11   -1510.2845622046      5.57E-09 Convergence criterion met
 Total energy in the final basis set = -1510.28456220
   11   -1510.2846050007      7.00E-09 Convergence criterion met
 Total energy in the final basis set = -1510.28460500
   11   -1510.2846322014      3.99E-09 Convergence criterion met
 Total energy in the final basis set = -1510.28463220
   10   -1510.2846440055      9.68E-09 Convergence criterion met
 Total energy in the final basis set = -1510.28464401

             Standard Nuclear Orientation (Angstroms)
    I     Atom           X                Y                Z
 ----------------------------------------------------------------
    1      O      -4.1057966621     1.7711347176     1.2515658241
    2      C      -3.9619420036     1.5385218716     0.0319662208
    3      C      -4.3535559372     0.2414343939    -0.7552689337
    4      C      -3.2964580799    -0.9344995646    -0.5915198726
    5      C      -2.1936052803    -0.6310039744     0.4845764190
    6      O      -1.4328902718     0.4972598766     0.0457778097
    7      C      -0.3615045476     0.7885500906     1.0296446910
    8      C       0.4323819307     2.0543350106     0.5448366099
    9      O       1.8477969375     1.8531041326     0.9416593414
   10      C       2.5121867027     1.0680747110    -0.0624446444
   11      C       4.0064742016     0.9111156060     0.3556310568
   12      C       4.4444372050    -0.6006388045     0.5666436456
   13      C       3.3425797231    -1.7098479448     0.3747624119
   14      O       3.5261078019    -2.8187605724    -0.1720023830
   15      O      -3.4203215337     2.4773258675    -0.9062752053
   16      O       2.1052634249    -1.3430957514     1.0073319437
   17      O       1.9653362170     0.6617672292    -1.1102541606
   18      C       1.1367402618    -2.4636080953     0.8698963295
   19      C       4.9753219634     1.3283037090    -0.8364490497
   20      C       6.4338676524     1.5026518351    -0.2550863428
   21      C       6.8637161208     0.0014110181    -0.0578512903
   22      C       5.5658919362    -0.7528623689    -0.5434403696
   23      O       5.0648671528     0.0960939502    -1.6501095411
   24      H       4.1817845829     1.5108307290     1.2655053110
   25      H       4.8661941938    -0.7349116691     1.5808859046
   26      H       4.6052928600     2.1715105254    -1.4512328073
   27      H       7.0798992660     2.0164588626    -0.9844710461
   28      H       6.4384524371     2.0751748021     0.6861854770
   29      H       7.7210903221    -0.2596682024    -0.6984726189
   30      H       7.1188237619    -0.2358148071     0.9873127900
   31      H       5.7069482173    -1.7965077783    -0.8866599703
   32      O      -1.9361576157    -1.2892594355     1.5167899213
   33      C      -2.9956382580     3.7068150726    -0.2001255366
   34      C      -5.6644064238    -0.4616385636    -0.1954412777
   35      C      -6.2128339448    -1.4212272225    -1.3228112146
   36      C      -5.1549332871    -2.5868589535    -1.2656742108
   37      C      -4.2300025005    -2.1050552603    -0.0799749034
   38      O      -5.1594211568    -1.3986154205     0.8331645932
   39      H      -4.4638837620     0.5146932557    -1.8194290230
   40      H      -2.8007929048    -1.1631354740    -1.5526119294
   41      H      -2.2585923359     3.4828702943     0.5970722155
   42      H      -6.4066555531     0.2316038058     0.2454214415
   43      H      -7.2213502954    -1.7805398537    -1.0627422900
   44      H      -6.2543907794    -0.9301096525    -2.3080151649
   45      H      -5.6268902943    -3.5513730720    -1.0205851040
   46      H      -4.5942796153    -2.6968665838    -2.2078829122
   47      H      -3.6884862092    -2.9018559305     0.4658191604
   48      H      -3.8574349095     4.2346807410     0.2577049691
   49      H      -2.5296317024     4.3546933080    -0.9650939378
   50      H       0.2023831734    -2.1397426769     1.3701881695
   51      H       1.5204346103    -3.3862214449     1.3494762311
   52      H       0.9268728626    -2.6811976598    -0.1967756293
   53      H       0.3384332467     2.1474707381    -0.5585023826
   54      H       0.0882015332     2.9814212447     1.0422368561
   55      H       0.3612675783    -0.0528398956     1.0892242542
   56      H      -0.7941626988     0.9459468606     2.0404784476
 ----------------------------------------------------------------

   10   -1510.2846440975      9.86E-09 Convergence criterion met
 Total energy in the final basis set = -1510.28464410
 Final energy is   -1510.28464409753
 **  OPTIMIZATION CONVERGED  **

                    Orbital Energies (a.u.)
 --------------------------------------------------------------

 Alpha MOs
 -- Occupied --
-18.939 -18.937 -18.933 -18.933 -18.889 -18.886 -18.879 -18.879
-18.873 -18.871 -10.102 -10.102 -10.099 -10.097 -10.073 -10.067
-10.064 -10.062 -10.060 -10.059 -10.058 -10.057 -10.041 -10.039
-10.039 -10.036 -10.022 -10.021 -10.020 -10.019  -1.018  -1.015
 -1.009  -1.007  -0.971  -0.969  -0.941  -0.938  -0.935  -0.933
 -0.765  -0.763  -0.728  -0.723  -0.712  -0.705  -0.697  -0.663
 -0.661  -0.618  -0.598  -0.583  -0.547  -0.546  -0.539  -0.537
 -0.514  -0.509  -0.485  -0.473  -0.464  -0.456  -0.454  -0.447
 -0.445  -0.431  -0.429  -0.416  -0.413  -0.411  -0.408  -0.400
 -0.395  -0.382  -0.373  -0.368  -0.364  -0.358  -0.354  -0.348
 -0.346  -0.339  -0.337  -0.332  -0.331  -0.329  -0.328  -0.312
 -0.309  -0.306  -0.306  -0.297  -0.293  -0.286  -0.282  -0.275
 -0.273  -0.257  -0.255  -0.253  -0.250  -0.235  -0.233  -0.183
 -0.180  -0.175  -0.175  -0.159  -0.159  -0.152  -0.148  -0.145
 -0.143

          Ground-State Mulliken Net Atomic Charges

     Atom                 Charge (a.u.)
  ----------------------------------------
      1 O                    -0.215422
      2 C                     0.208487
      3 C                    -0.079745
      4 C                    -0.077531
      5 C                     0.212316
      6 O                    -0.171883
      7 C                    -0.055192
      8 C                    -0.051574
      9 O                    -0.171974
     10 C                     0.210492
     11 C                    -0.080372
     12 C                    -0.077935
     13 C                     0.212177
     14 O                    -0.209346
     15 O                    -0.167626
     16 O                    -0.173511
     17 O                    -0.213646
     18 C                    -0.134409
     19 C                     0.026404
     20 C                    -0.144008
     21 C                    -0.143965
     22 C                     0.024075
     23 O                    -0.186480
     24 H                     0.086905
     25 H                     0.085169
     26 H                     0.083455
     27 H                     0.078482
     28 H                     0.073710
     29 H                     0.078884
     30 H                     0.073452
     31 H                     0.092342
     32 O                    -0.212852
     33 C                    -0.127767
     34 C                     0.025194
     35 C                    -0.143223
     36 C                    -0.144655
     37 C                     0.024456
     38 O                    -0.186721
     39 H                     0.086219
     40 H                     0.087754
     41 H                     0.085757
     42 H                     0.085076
     43 H                     0.078088
     44 H                     0.073506
     45 H                     0.078417
     46 H                     0.073413
     47 H                     0.088914
     48 H                     0.087717
     49 H                     0.089537
     50 H                     0.100527
     51 H                     0.089511
     52 H                     0.090810
     53 H                     0.101883
     54 H                     0.086822
     55 H                     0.100749
     56 H                     0.089138
  ----------------------------------------
  Sum of atomic charges =     0.000000

                    Cartesian Multipole Moments
 -----------------------------------------------------------------
    Charge (ESU x 10^10)
                 0.0000
    Dipole Moment (Debye)
         X       0.8340      Y       1.7651      Z      -0.3826
       Tot       1.9893
    Quadrupole Moments (Debye-Ang)
        XX    -148.3408     XY       5.3037     YY    -152.8410
        XZ      20.2737     YZ       0.7697     ZZ    -167.9142

 Total job time:  49.92s(wall), 2374.02s(cpu)
        *  Thank you very much for using Q-Chem.  Have a nice day.  *
