 Q-Chem 5.0, Q-Chem, Inc., Pleasanton, CA (2017)
 Q-Chem 5.0.1 for Intel X86 EM64T Linux

User input:
--------------------------------------------------------------
$molecule
0  1
O -3.94934 -3.66094 2.70899
C -3.26408 -4.56952 2.26188
C -3.36658 -6.02376 2.66595
C -2.69439 -6.43526 3.98605
C -2.14791 -5.31463 4.84258
O -1.14241 -4.67133 4.17885
C -0.54815 -3.61651 4.94269
C 0.55718 -2.9422 4.13665
O 1.61773 -2.52745 5.01191
C 2.5367 -3.4802 5.30672
C 3.64762 -2.97152 6.19427
C 3.79775 -3.71116 7.53169
C 3.08042 -5.04214 7.63486
O 3.46091 -6.00371 8.28691
O -2.4285 -4.30161 1.22395
O 1.74432 -5.01833 7.3714
O 2.52268 -4.61716 4.84579
C 0.89366 -6.08963 7.58118
C 5.05215 -3.16204 5.59319
C 6.01462 -2.14991 6.2112
C 6.12416 -2.69118 7.62265
C 5.3151 -3.98749 7.48402
O 5.50911 -4.37254 6.14396
H 3.47747 -1.88297 6.36625
H 3.48148 -3.09725 8.40336
H 5.06946 -3.08876 4.48371
H 6.99473 -2.2868 5.70006
H 5.71041 -1.08382 6.13521
H 7.19536 -2.90714 7.83191
H 5.70258 -2.03749 8.41681
H 5.64087 -4.722 8.25277
O -2.55509 -5.01686 5.96063
C -2.22194 -3.04393 0.69728
C -4.81848 -6.45743 2.93322
C -4.95097 -7.97135 2.77436
C -4.22937 -8.44951 4.0168
C -3.89615 -7.1091 4.68069
O -4.97493 -6.27959 4.32022
H -2.94631 -6.61831 1.82253
H -1.85769 -7.15274 3.83081
H -1.8117 -2.36675 1.47698
H -5.55554 -5.93607 2.28358
H -6.03095 -8.22419 2.87324
H -4.56462 -8.37614 1.81425
H -4.95201 -9.01658 4.64512
H -3.32246 -9.06544 3.83369
H -3.73372 -7.25844 5.77073
H -3.17553 -2.6313 0.30395
H -1.49221 -3.11355 -0.13521
H -0.14188 -5.81032 7.30625
H 0.89741 -6.37986 8.65356
H 1.20836 -6.95325 6.95712
H 0.95521 -3.63533 3.3599
H 0.14006 -2.08352 3.56947
H -0.08356 -4.09025 5.82679
H -1.27791 -2.85644 5.30234
$end

$opt
CONSTRAINT
tors           1           2           3           4     -79.314
tors           3           4           5           6     -63.707
tors           4           5           6           7    -178.419
tors           5           6           7           8    -179.696
tors           6           7           8           9    -145.466
tors           7           8           9          10     +84.530
tors           8           9          10          11    +178.190
tors           9          10          11          12    +120.965
tors          11          12          13          14    +147.874
ENDCONSTRAINT
$end

$rem
JOBTYPE                   OPT
METHOD                    B3LYP
DFT_D                     d3_op
BASIS                     STO-3G
GEOM_OPT_MAX_CYCLES       100
GEOM_OPT_TOL_GRADIENT     300
GEOM_OPT_TOL_DISPLACEMENT 1200
GEOM_OPT_TOL_ENERGY       100
SYMMETRY                  False
THRESH                    12
SCF_CONVERGENCE           8
MAX_SUB_FILE_NUM          128
MEM_STATIC                400
MEM_TOTAL                 4000
$end
--------------------------------------------------------------

   15   -1510.1532641905      7.84E-09 Convergence criterion met
 Total energy in the final basis set = -1510.15326419
   13   -1510.2224679601      9.83E-09 Convergence criterion met
 Total energy in the final basis set = -1510.22246796
   14   -1510.2594653318      6.42E-09 Convergence criterion met
 Total energy in the final basis set = -1510.25946533
   14   -1510.2752068214      3.08E-09 Convergence criterion met
 Total energy in the final basis set = -1510.27520682
   13   -1510.2792376742      9.69E-09 Convergence criterion met
 Total energy in the final basis set = -1510.27923767
   14   -1510.2812646005      3.90E-09 Convergence criterion met
 Total energy in the final basis set = -1510.28126460
   12   -1510.2823443325      6.08E-09 Convergence criterion met
 Total energy in the final basis set = -1510.28234433
   12   -1510.2830575698      8.86E-09 Convergence criterion met
   12   -1510.2840555276      3.55E-09 Convergence criterion met
 Total energy in the final basis set = -1510.28405553
   11   -1510.2841139957      4.07E-09 Convergence criterion met
 Total energy in the final basis set = -1510.28411400
   11   -1510.2841695145      7.71E-09 Convergence criterion met
 Total energy in the final basis set = -1510.28416951
   11   -1510.2842030434      3.58E-09 Convergence criterion met
 Total energy in the final basis set = -1510.28420304
   10   -1510.2842188065      7.78E-09 Convergence criterion met
 Total energy in the final basis set = -1510.28421881
   11   -1510.2842209680      2.88E-09 Convergence criterion met
 Total energy in the final basis set = -1510.28422097

             Standard Nuclear Orientation (Angstroms)
    I     Atom           X                Y                Z
 ----------------------------------------------------------------
    1      O      -4.1196487136     1.7517782779     1.2558538077
    2      C      -3.9776274226     1.5308367806     0.0338395092
    3      C      -4.3548036402     0.2348922592    -0.7620726459
    4      C      -3.2848326816    -0.9298769865    -0.6015433203
    5      C      -2.1873543683    -0.6174964783     0.4773498644
    6      O      -1.4393623282     0.5209344152     0.0436665896
    7      C      -0.3684309369     0.8170521589     1.0266050054
    8      C       0.4319389106     2.0743782700     0.5312601214
    9      O       1.8454564643     1.8695414794     0.9332176932
   10      C       2.5089167831     1.0714326929    -0.0617085669
   11      C       4.0015284379     0.9119162671     0.3633475291
   12      C       4.4484797195    -0.5983581944     0.5602119723
   13      C       3.3527926489    -1.7218866440     0.4272785712
   14      O       3.5641906305    -2.8754376248    -0.0058810757
   15      O      -3.4479214462     2.4823541898    -0.8984391757
   16      O       2.0926593474    -1.3144663147     0.9850153609
   17      O       1.9662375126     0.6675077910    -1.1124843799
   18      C       1.1333766082    -2.4486674513     0.9031503005
   19      C       4.9623527020     1.3404881097    -0.8313267271
   20      C       6.4303480791     1.4921969270    -0.2668803369
   21      C       6.8565120322    -0.0153016496    -0.1163907912
   22      C       5.5400124223    -0.7495927262    -0.5816103501
   23      O       5.0262398455     0.1200625051    -1.6654349362
   24      H       4.1745476703     1.5068394132     1.2767338426
   25      H       4.9087694468    -0.7253586107     1.5587052016
   26      H       4.5932211145     2.1975201637    -1.4272308345
   27      H       7.0684906956     2.0242119353    -0.9901041459
   28      H       6.4495109810     2.0382844802     0.6897947455
   29      H       7.6923048891    -0.2664496556    -0.7887468091
   30      H       7.1417102885    -0.2783671609     0.9147530645
   31      H       5.6633948252    -1.7908351466    -0.9388740251
   32      O      -1.9200517319    -1.2799477281     1.5046489825
   33      C      -3.0278535192     3.7079585692    -0.1826137425
   34      C      -5.6589459130    -0.4858722287    -0.2087972354
   35      C      -6.1929403074    -1.4469934200    -1.3419414919
   36      C      -5.1222712481    -2.6009625669    -1.2861275445
   37      C      -4.2059358662    -2.1130438296    -0.0963155961
   38      O      -5.1456680139    -1.4211084976     0.8172769785
   39      H      -4.4656577598     0.5126823602    -1.8249732646
   40      H      -2.7847656056    -1.1493466852    -1.5625075069
   41      H      -2.2857785328     3.4807935073     0.6090679679
   42      H      -6.4105062505     0.1968376856     0.2327357954
   43      H      -7.1982801526    -1.8184663822    -1.0867671177
   44      H      -6.2367327972    -0.9521648855    -2.3251903312
   45      H      -5.5841262335    -3.5714662609    -1.0454877077
   46      H      -4.5579186331    -2.7015479359    -2.2271576191
   47      H      -3.6560852250    -2.9055732033     0.4473448142
   48      H      -3.8908094041     4.2262313612     0.2839478763
   49      H      -2.5692814234     4.3657786605    -0.9435845706
   50      H       0.1863754013    -2.0996615706     1.3619115082
   51      H       1.5133353592    -3.3348870670     1.4494668580
   52      H       0.9471172906    -2.7371276964    -0.1509832717
   53      H       0.3412544184     2.1569079301    -0.5731786652
   54      H       0.0912477239     3.0079991449     1.0187719097
   55      H       0.3505451228    -0.0266717770     1.0948322832
   56      H      -0.8022472570     0.9859608493     2.0351196072
 ----------------------------------------------------------------

    9   -1510.2842215544      5.30E-09 Convergence criterion met
 Total energy in the final basis set = -1510.28422155
 Final energy is   -1510.28422155442
 **  OPTIMIZATION CONVERGED  **

                    Orbital Energies (a.u.)
 --------------------------------------------------------------

 Alpha MOs
 -- Occupied --
-18.939 -18.937 -18.933 -18.932 -18.889 -18.886 -18.879 -18.878
-18.872 -18.871 -10.103 -10.103 -10.099 -10.097 -10.073 -10.067
-10.064 -10.062 -10.059 -10.059 -10.059 -10.057 -10.041 -10.039
-10.039 -10.036 -10.022 -10.021 -10.020 -10.019  -1.018  -1.015
 -1.009  -1.007  -0.971  -0.969  -0.941  -0.938  -0.934  -0.933
 -0.765  -0.763  -0.728  -0.723  -0.712  -0.705  -0.697  -0.663
 -0.661  -0.618  -0.598  -0.583  -0.547  -0.546  -0.539  -0.538
 -0.514  -0.509  -0.485  -0.473  -0.463  -0.456  -0.453  -0.447
 -0.444  -0.432  -0.430  -0.416  -0.413  -0.410  -0.408  -0.400
 -0.395  -0.382  -0.373  -0.369  -0.363  -0.358  -0.354  -0.348
 -0.345  -0.339  -0.337  -0.332  -0.331  -0.329  -0.328  -0.313
 -0.309  -0.307  -0.306  -0.297  -0.293  -0.287  -0.282  -0.275
 -0.273  -0.257  -0.254  -0.253  -0.249  -0.235  -0.233  -0.183
 -0.180  -0.175  -0.174  -0.159  -0.159  -0.151  -0.148  -0.145
 -0.143

          Ground-State Mulliken Net Atomic Charges

     Atom                 Charge (a.u.)
  ----------------------------------------
      1 O                    -0.215434
      2 C                     0.208486
      3 C                    -0.079749
      4 C                    -0.077510
      5 C                     0.212707
      6 O                    -0.171722
      7 C                    -0.055169
      8 C                    -0.051648
      9 O                    -0.172439
     10 C                     0.211284
     11 C                    -0.080344
     12 C                    -0.078027
     13 C                     0.211925
     14 O                    -0.210642
     15 O                    -0.167590
     16 O                    -0.173071
     17 O                    -0.213620
     18 C                    -0.134639
     19 C                     0.026479
     20 C                    -0.144255
     21 C                    -0.143676
     22 C                     0.024318
     23 O                    -0.186477
     24 H                     0.086896
     25 H                     0.085210
     26 H                     0.083320
     27 H                     0.078453
     28 H                     0.073716
     29 H                     0.078901
     30 H                     0.073568
     31 H                     0.092001
     32 O                    -0.212942
     33 C                    -0.127753
     34 C                     0.025203
     35 C                    -0.143226
     36 C                    -0.144652
     37 C                     0.024471
     38 O                    -0.186697
     39 H                     0.086239
     40 H                     0.087887
     41 H                     0.085811
     42 H                     0.085060
     43 H                     0.078097
     44 H                     0.073523
     45 H                     0.078441
     46 H                     0.073435
     47 H                     0.088938
     48 H                     0.087734
     49 H                     0.089527
     50 H                     0.100883
     51 H                     0.089936
     52 H                     0.090165
     53 H                     0.101922
     54 H                     0.086711
     55 H                     0.101165
     56 H                     0.088870
  ----------------------------------------
  Sum of atomic charges =     0.000000

                    Cartesian Multipole Moments
 -----------------------------------------------------------------
    Charge (ESU x 10^10)
                 0.0000
    Dipole Moment (Debye)
         X       0.8191      Y       1.8048      Z      -0.4549
       Tot       2.0335
    Quadrupole Moments (Debye-Ang)
        XX    -148.3362     XY       5.4558     YY    -153.2665
        XZ      19.7532     YZ       1.2946     ZZ    -167.5847

 Total job time:  50.86s(wall), 2403.79s(cpu)
        *  Thank you very much for using Q-Chem.  Have a nice day.  *
