 Q-Chem 5.0, Q-Chem, Inc., Pleasanton, CA (2017)
 Q-Chem 5.0.1 for Intel X86 EM64T Linux

User input:
--------------------------------------------------------------
$molecule
0  1
O -3.94934 -3.66094 2.70899
C -3.26408 -4.56952 2.26188
C -3.36658 -6.02376 2.66595
C -2.74397 -6.42414 4.0135
C -2.24533 -5.29514 4.88804
O -1.22099 -4.64223 4.26366
C -0.67449 -3.57446 5.04498
C 0.45059 -2.88557 4.27963
O 1.41674 -2.35617 5.20113
C 2.37601 -3.22603 5.60396
C 3.45015 -2.57168 6.43985
C 3.62031 -3.15739 7.8492
C 2.96765 -4.50408 8.08833
O 3.45535 -5.42443 8.72838
O -2.42619 -4.30056 1.22605
O 1.62307 -4.55108 7.88032
O 2.42022 -4.40601 5.27138
C 0.82613 -5.6409 8.17095
C 4.87342 -2.75196 5.87866
C 5.76872 -1.62394 6.38724
C 5.87874 -1.99091 7.85414
C 5.15113 -3.34208 7.85559
O 5.38993 -3.86349 6.56979
H 3.22508 -1.48068 6.49292
H 3.23925 -2.46953 8.63567
H 4.90571 -2.80458 4.76839
H 6.76416 -1.7673 5.90842
H 5.41312 -0.5911 6.18322
H 6.95604 -2.1117 8.10435
H 5.39852 -1.27837 8.55947
H 5.50388 -3.96354 8.7075
O -2.69897 -5.00069 5.98896
C -2.22045 -3.0427 0.69941
C -4.82262 -6.47426 2.87253
C -4.92966 -7.99015 2.71328
C -4.25603 -8.45589 3.98711
C -3.96626 -7.10966 4.65962
O -5.03894 -6.29427 4.25125
H -2.90054 -6.61523 1.84465
H -1.89392 -7.13287 3.89479
H -1.81361 -2.36437 1.47987
H -5.53749 -5.96316 2.19075
H -6.00961 -8.25645 2.76649
H -4.4972 -8.39232 1.7719
H -4.99848 -9.02855 4.58662
H -3.33569 -9.06266 3.845
H -3.84811 -7.25383 5.75601
H -3.17375 -2.63198 0.30337
H -1.48842 -3.11134 -0.13115
H -0.22671 -5.40728 7.91357
H 0.87853 -5.87707 9.2552
H 1.15344 -6.52115 7.57744
H 0.94295 -3.6051 3.58503
H 0.03395 -2.08909 3.62775
H -0.2343 -4.04365 5.94954
H -1.43053 -2.82432 5.36941
$end

$opt
CONSTRAINT
tors           1           2           3           4     -76.894
tors           3           4           5           6     -63.707
tors           4           5           6           7    -178.711
tors           5           6           7           8    -179.412
tors           6           7           8           9    -150.022
tors           7           8           9          10     +85.710
tors           8           9          10          11    +173.265
tors           9          10          11          12    +121.101
tors          11          12          13          14    +139.676
ENDCONSTRAINT
$end

$rem
JOBTYPE                   OPT
METHOD                    B3LYP
DFT_D                     d3_op
BASIS                     STO-3G
GEOM_OPT_MAX_CYCLES       100
GEOM_OPT_TOL_GRADIENT     300
GEOM_OPT_TOL_DISPLACEMENT 1200
GEOM_OPT_TOL_ENERGY       100
SYMMETRY                  False
THRESH                    12
SCF_CONVERGENCE           8
MAX_SUB_FILE_NUM          128
MEM_STATIC                400
MEM_TOTAL                 4000
$end
--------------------------------------------------------------

   15   -1510.1564325385      7.57E-09 Convergence criterion met
 Total energy in the final basis set = -1510.15643254
   14   -1510.2249692675      5.84E-09 Convergence criterion met
 Total energy in the final basis set = -1510.22496927
   14   -1510.2614697887      6.10E-09 Convergence criterion met
 Total energy in the final basis set = -1510.26146979
   14   -1510.2767436417      3.47E-09 Convergence criterion met
 Total energy in the final basis set = -1510.27674364
    2   -1510.2767436416      3.82E-09 Convergence criterion met
 Total energy in the final basis set = -1510.27674364
   13   -1510.2809789528      7.08E-09 Convergence criterion met
 Total energy in the final basis set = -1510.28097895
   13   -1510.2816139634      9.10E-09 Convergence criterion met
 Total energy in the final basis set = -1510.28161396
   13   -1510.2826318153      4.03E-09 Convergence criterion met
   11   -1510.2841086480      7.80E-09 Convergence criterion met
 Total energy in the final basis set = -1510.28410865
   11   -1510.2841572034      7.12E-09 Convergence criterion met
 Total energy in the final basis set = -1510.28415720
   11   -1510.2841841702      4.66E-09 Convergence criterion met
 Total energy in the final basis set = -1510.28418417
   11   -1510.2842052371      4.24E-09 Convergence criterion met
 Total energy in the final basis set = -1510.28420524
   10   -1510.2842074072      7.26E-09 Convergence criterion met
 Total energy in the final basis set = -1510.28420741
    9   -1510.2842089108      8.08E-09 Convergence criterion met
 Total energy in the final basis set = -1510.28420891

             Standard Nuclear Orientation (Angstroms)
    I     Atom           X                Y                Z
 ----------------------------------------------------------------
    1      O      -4.1312949000     1.6660897369     1.3605353413
    2      C      -4.0345388102     1.5280431339     0.1220338174
    3      C      -4.4750030266     0.3025389830    -0.7496051040
    4      C      -3.4654645617    -0.9223807423    -0.6575949341
    5      C      -2.3330222381    -0.7137922820     0.4102834567
    6      O      -1.5341965621     0.4029297585     0.0037373935
    7      C      -0.4327728090     0.6101993903     0.9759805365
    8      C       0.4019122903     1.8508940051     0.4950992297
    9      O       1.8140085465     1.6926649207     0.9190584510
   10      C       2.5298231274     0.9169322852    -0.0577705608
   11      C       4.0439444360     0.9176264379     0.3326044481
   12      C       4.6459219612    -0.5291008499     0.5792847238
   13      C       3.6370929819    -1.7295464308     0.4754593194
   14      O       3.8653820970    -2.8387714191    -0.0525645467
   15      O      -3.4990516535     2.5263084910    -0.7569564905
   16      O       2.4198547962    -1.4129545063     1.1652364408
   17      O       2.0039237505     0.4192651745    -1.0764356129
   18      C       1.4924085190    -2.5697640330     1.0923401913
   19      C       4.9356519640     1.3920350496    -0.8965541052
   20      C       6.3899004969     1.7140841279    -0.3672607332
   21      C       6.9711791658     0.2647345098    -0.1665971163
   22      C       5.7284176194    -0.6164743891    -0.5763643793
   23      O       5.1113476191     0.1514680817    -1.6828729067
   24      H       4.1739874026     1.5647538448     1.2171956266
   25      H       5.1203416076    -0.5794641087     1.5772613887
   26      H       4.4734061012     2.1828844404    -1.5185049510
   27      H       6.9583455922     2.2773746997    -1.1242508272
   28      H       6.3705632242     2.2981179046     0.5667446790
   29      H       7.8181059500     0.0725587559    -0.8443273802
   30      H       7.2961339035     0.0731420663     0.8685633777
   31      H       5.9497672581    -1.6533468050    -0.8969971117
   32      O      -2.1036697865    -1.4057796791     1.4248973484
   33      C      -3.0322987614     3.6906670721     0.0287836251
   34      C      -5.8135848881    -0.3815134146    -0.2331757969
   35      C      -6.3876846359    -1.2678756403    -1.4070831650
   36      C      -5.3792136896    -2.4771489329    -1.3934841743
   37      C      -4.4386493024    -2.0782481877    -0.1884626851
   38      O      -5.3454385532    -1.3803122855     0.7533633610
   39      H      -4.5714854248     0.6486876923    -1.7936622422
   40      H      -2.9966019093    -1.1266562236    -1.6374218039
   41      H      -2.2945635429     3.3913347032     0.8004790836
   42      H      -6.5356961748     0.3150556039     0.2349877590
   43      H      -7.4128529587    -1.5960045540    -1.1723375553
   44      H      -6.3991142183    -0.7322881953    -2.3696347547
   45      H      -5.8912677510    -3.4301620009    -1.1865911210
   46      H      -4.8204570605    -2.5735006470    -2.3382500878
   47      H      -3.9249847895    -2.9154871303     0.3226680538
   48      H      -3.8744031534     4.2087161671     0.5323359418
   49      H      -2.5558959032     4.3778280081    -0.6943892325
   50      H       0.6346254296    -2.3260481037     1.7467435846
   51      H       1.9790951400    -3.5017390233     1.4431961110
   52      H       1.1315605188    -2.7284632055     0.0555047775
   53      H       0.3292421814     1.9200388291    -0.6117882121
   54      H       0.0380916092     2.7887258090     0.9582247785
   55      H       0.2342679385    -0.2763971257     1.0013527415
   56      H      -0.8358968476     0.7662560306     1.9993779362
 ----------------------------------------------------------------

    9   -1510.2842095516      3.73E-09 Convergence criterion met
 Total energy in the final basis set = -1510.28420955
 Final energy is   -1510.28420955165
 **  OPTIMIZATION CONVERGED  **

                    Orbital Energies (a.u.)
 --------------------------------------------------------------

 Alpha MOs
 -- Occupied --
-18.939 -18.935 -18.933 -18.933 -18.889 -18.886 -18.879 -18.878
-18.873 -18.871 -10.102 -10.100 -10.099 -10.097 -10.074 -10.070
-10.064 -10.064 -10.062 -10.059 -10.058 -10.057 -10.040 -10.039
-10.038 -10.036 -10.022 -10.021 -10.019 -10.018  -1.017  -1.015
 -1.009  -1.006  -0.971  -0.968  -0.940  -0.939  -0.934  -0.933
 -0.765  -0.763  -0.728  -0.723  -0.712  -0.705  -0.697  -0.664
 -0.663  -0.617  -0.597  -0.584  -0.547  -0.546  -0.539  -0.537
 -0.514  -0.509  -0.485  -0.472  -0.464  -0.454  -0.453  -0.449
 -0.444  -0.431  -0.429  -0.415  -0.413  -0.411  -0.409  -0.400
 -0.395  -0.383  -0.375  -0.368  -0.364  -0.357  -0.354  -0.348
 -0.347  -0.340  -0.338  -0.332  -0.331  -0.329  -0.327  -0.312
 -0.309  -0.306  -0.305  -0.297  -0.293  -0.286  -0.282  -0.274
 -0.273  -0.257  -0.255  -0.253  -0.250  -0.235  -0.233  -0.182
 -0.179  -0.176  -0.175  -0.159  -0.158  -0.151  -0.148  -0.145
 -0.143

          Ground-State Mulliken Net Atomic Charges

     Atom                 Charge (a.u.)
  ----------------------------------------
      1 O                    -0.215058
      2 C                     0.208317
      3 C                    -0.079535
      4 C                    -0.077808
      5 C                     0.211080
      6 O                    -0.173397
      7 C                    -0.051401
      8 C                    -0.050421
      9 O                    -0.171921
     10 C                     0.211434
     11 C                    -0.079639
     12 C                    -0.078480
     13 C                     0.212837
     14 O                    -0.209406
     15 O                    -0.167832
     16 O                    -0.172443
     17 O                    -0.214663
     18 C                    -0.131713
     19 C                     0.026278
     20 C                    -0.144126
     21 C                    -0.143822
     22 C                     0.024214
     23 O                    -0.186508
     24 H                     0.086758
     25 H                     0.085378
     26 H                     0.083144
     27 H                     0.078369
     28 H                     0.073665
     29 H                     0.078800
     30 H                     0.073382
     31 H                     0.091943
     32 O                    -0.210530
     33 C                    -0.127812
     34 C                     0.025419
     35 C                    -0.143449
     36 C                    -0.144506
     37 C                     0.024546
     38 O                    -0.186425
     39 H                     0.086185
     40 H                     0.087100
     41 H                     0.085877
     42 H                     0.084638
     43 H                     0.078016
     44 H                     0.073460
     45 H                     0.078270
     46 H                     0.073278
     47 H                     0.089104
     48 H                     0.087595
     49 H                     0.089381
     50 H                     0.097050
     51 H                     0.092584
     52 H                     0.091370
     53 H                     0.100457
     54 H                     0.086375
     55 H                     0.094783
     56 H                     0.089808
  ----------------------------------------
  Sum of atomic charges =     0.000000

                    Cartesian Multipole Moments
 -----------------------------------------------------------------
    Charge (ESU x 10^10)
                 0.0000
    Dipole Moment (Debye)
         X       0.8249      Y       2.0067      Z      -0.4014
       Tot       2.2064
    Quadrupole Moments (Debye-Ang)
        XX    -148.7844     XY       5.4388     YY    -153.0273
        XZ      20.5177     YZ       0.7203     ZZ    -167.3374

 Total job time:  53.10s(wall), 2524.13s(cpu)
        *  Thank you very much for using Q-Chem.  Have a nice day.  *
