 Q-Chem 5.0, Q-Chem, Inc., Pleasanton, CA (2017)
 Q-Chem 5.0.1 for Intel X86 EM64T Linux

User input:
--------------------------------------------------------------
$molecule
0  1
O -4.1312949 1.6660897369 1.3605353413
C -4.0345388102 1.5280431339 0.1220338174
C -4.4750030266 0.302538983 -0.749605104
C -3.4654645617 -0.9223807423 -0.6575949341
C -2.3330222381 -0.713792282 0.4102834567
O -1.5341965621 0.4029297585 0.0037373935
C -0.432772809 0.6101993903 0.9759805365
C 0.4019122903 1.8508940051 0.4950992297
O 1.8140085465 1.6926649207 0.919058451
C 2.5298231274 0.9169322852 -0.0577705608
C 4.043944436 0.9176264379 0.3326044481
C 4.6459219612 -0.5291008499 0.5792847238
C 3.6370929819 -1.7295464308 0.4754593194
O 3.865382097 -2.8387714191 -0.0525645467
O -3.4990516535 2.526308491 -0.7569564905
O 2.4198547962 -1.4129545063 1.1652364408
O 2.0039237505 0.4192651745 -1.0764356129
C 1.492408519 -2.569764033 1.0923401913
C 4.935651964 1.3920350496 -0.8965541052
C 6.3899004969 1.7140841279 -0.3672607332
C 6.9711791658 0.2647345098 -0.1665971163
C 5.7284176194 -0.6164743891 -0.5763643793
O 5.1113476191 0.1514680817 -1.6828729067
H 4.1739874026 1.5647538448 1.2171956266
H 5.1203416076 -0.5794641087 1.5772613887
H 4.4734061012 2.1828844404 -1.518504951
H 6.9583455922 2.2773746997 -1.1242508272
H 6.3705632242 2.2981179046 0.566744679
H 7.81810595 0.0725587559 -0.8443273802
H 7.2961339035 0.0731420663 0.8685633777
H 5.9497672581 -1.653346805 -0.8969971117
O -2.1036697865 -1.4057796791 1.4248973484
C -3.0322987614 3.6906670721 0.0287836251
C -5.8135848881 -0.3815134146 -0.2331757969
C -6.3876846359 -1.2678756403 -1.407083165
C -5.3792136896 -2.4771489329 -1.3934841743
C -4.4386493024 -2.0782481877 -0.1884626851
O -5.3454385532 -1.3803122855 0.753363361
H -4.5714854248 0.6486876923 -1.7936622422
H -2.9966019093 -1.1266562236 -1.6374218039
H -2.2945635429 3.3913347032 0.8004790836
H -6.5356961748 0.3150556039 0.234987759
H -7.4128529587 -1.596004554 -1.1723375553
H -6.3991142183 -0.7322881953 -2.3696347547
H -5.891267751 -3.4301620009 -1.186591121
H -4.8204570605 -2.573500647 -2.3382500878
H -3.9249847895 -2.9154871303 0.3226680538
H -3.8744031534 4.2087161671 0.5323359418
H -2.5558959032 4.3778280081 -0.6943892325
H 0.6346254296 -2.3260481037 1.7467435846
H 1.97909514 -3.5017390233 1.443196111
H 1.1315605188 -2.7284632055 0.0555047775
H 0.3292421814 1.9200388291 -0.6117882121
H 0.0380916092 2.788725809 0.9582247785
H 0.2342679385 -0.2763971257 1.0013527415
H -0.8358968476 0.7662560306 1.9993779362
$end

$rem
JOBTYPE                   OPT
METHOD                    B3LYP
DFT_D                     d3_op
BASIS                     STO-3G
GEOM_OPT_MAX_CYCLES       100
GEOM_OPT_TOL_GRADIENT     300
GEOM_OPT_TOL_DISPLACEMENT 1200
GEOM_OPT_TOL_ENERGY       100
SYMMETRY                  False
THRESH                    12
SCF_CONVERGENCE           8
MAX_SUB_FILE_NUM          128
MEM_STATIC                400
MEM_TOTAL                 4000
$end
--------------------------------------------------------------

   16   -1510.2841190031      5.72E-09 Convergence criterion met
 Total energy in the final basis set = -1510.28411900
   14   -1510.2851132769      9.68E-09 Convergence criterion met
 Total energy in the final basis set = -1510.28511328
   14   -1510.2865114652      3.82E-09 Convergence criterion met
 Total energy in the final basis set = -1510.28651147
   15   -1510.2804368860      2.37E-09 Convergence criterion met
 Total energy in the final basis set = -1510.28043689
   14   -1510.2841253108      7.98E-09 Convergence criterion met
 Total energy in the final basis set = -1510.28412531
   14   -1510.2861849073      5.34E-09 Convergence criterion met
 Total energy in the final basis set = -1510.28618491
   14   -1510.2876578944      5.04E-09 Convergence criterion met
 Total energy in the final basis set = -1510.28765789
   14   -1510.2870025770      9.65E-09 Convergence criterion met
   12   -1510.2903795118      4.23E-09 Convergence criterion met
 Total energy in the final basis set = -1510.29037951
   12   -1510.2904209988      8.71E-09 Convergence criterion met
 Total energy in the final basis set = -1510.29042100
   12   -1510.2904482271      9.05E-09 Convergence criterion met
 Total energy in the final basis set = -1510.29044823
   12   -1510.2904439685      2.63E-09 Convergence criterion met
 Total energy in the final basis set = -1510.29044397
   11   -1510.2904495786      5.17E-09 Convergence criterion met
 Total energy in the final basis set = -1510.29044958
   10   -1510.2904527987      9.15E-09 Convergence criterion met
 Total energy in the final basis set = -1510.29045280

             Standard Nuclear Orientation (Angstroms)
    I     Atom           X                Y                Z
 ----------------------------------------------------------------
    1      O      -3.6503573475     1.5958506519     1.6316795980
    2      C      -3.9230443675     1.5785239171     0.4120890155
    3      C      -4.5609904418     0.4096322178    -0.4202549703
    4      C      -3.5755630870    -0.8029018231    -0.7067956723
    5      C      -2.1618469658    -0.6551799811    -0.0431495122
    6      O      -1.6962872391     0.6776778363    -0.2579789745
    7      C      -0.4414291936     0.9428408737     0.4897158396
    8      C       0.5560527894     1.7008586424    -0.4511122797
    9      O       1.8903442725     1.6996176703     0.1946082083
   10      C       2.8029576701     0.8911974782    -0.5684981785
   11      C       4.1351823875     0.7762836696     0.2385084512
   12      C       4.5355331737    -0.7259979790     0.5612155939
   13      C       3.5382394961    -1.8007824132    -0.0056323111
   14      O       3.8254688620    -2.7792015435    -0.7272129348
   15      O      -3.7670944430     2.7037228040    -0.4655130797
   16      O       2.2162343556    -1.5023448600     0.4571967712
   17      O       2.5366988528     0.4044374318    -1.6894848568
   18      C       1.2527587102    -2.4757882084    -0.1143155560
   19      C       5.3925914470     1.2334201913    -0.6218620366
   20      C       6.6101836227     1.4446334440     0.3636979993
   21      C       7.0107565773    -0.0457609804     0.6763274299
   22      C       5.9363225889    -0.8325661522    -0.1709807606
   23      O       5.7558718402     0.0133660158    -1.3740623138
   24      H       4.0285321807     1.3723415243     1.1614287320
   25      H       4.6272766458    -0.8758511354     1.6528477307
   26      H       5.1942231870     2.0728612095    -1.3162009533
   27      H       7.4255783819     1.9859585008    -0.1419689223
   28      H       6.3181906306     2.0056850216     1.2657136462
   29      H       8.0270166014    -0.2738549901     0.3177597532
   30      H       6.9516088034    -0.2863524027     1.7498179611
   31      H       6.2066899622    -1.8658558932    -0.4637489366
   32      O      -1.5265378882    -1.5451473665     0.5668972646
   33      C      -3.1417609664     3.8286874643     0.2645760471
   34      C      -5.7067584912    -0.3366609498     0.3911901499
   35      C      -6.5772996048    -1.1684726594    -0.6312413190
   36      C      -5.6047500846    -2.3636303540    -0.9554711168
   37      C      -4.3670842053    -2.0054860212    -0.0446853335
   38      O      -4.9776911760    -1.3780802685     1.1501970861
   39      H      -4.9385170845     0.8363705519    -1.3658636778
   40      H      -3.4342989050    -0.9472016189    -1.7944600644
   41      H      -2.1015349193     3.5874704394     0.5646697292
   42      H      -6.2772584019     0.3146436535     1.0812067388
   43      H      -7.5022375316    -1.5217619324    -0.1483754765
   44      H      -6.8459404243    -0.5823975054    -1.5246539100
   45      H      -6.0370514682    -3.3304167380    -0.6524864226
   46      H      -5.3347447453    -2.4165316767    -2.0223218764
   47      H      -3.7193249214    -2.8541643274     0.2501493750
   48      H      -3.7156037988     4.0970018996     1.1748783683
   49      H      -3.1328709724     4.6836752596    -0.4362078367
   50      H       0.2431370627    -2.1603517367     0.2292774886
   51      H       1.4680201968    -3.5050482220     0.2363217997
   52      H       1.2930723301    -2.4669013464    -1.2221586958
   53      H       0.6397633410     1.1802437780    -1.4309347288
   54      H       0.2367027601     2.7516176117    -0.6072041294
   55      H       0.0058068498    -0.0154011778     0.8274128599
   56      H      -0.6921255440     1.5551658871     1.3824035592
 ----------------------------------------------------------------

    9   -1510.2904535868      7.90E-09 Convergence criterion met
 Total energy in the final basis set = -1510.29045359
 Final energy is   -1510.29045358681
 **  OPTIMIZATION CONVERGED  **

                    Orbital Energies (a.u.)
 --------------------------------------------------------------

 Alpha MOs
 -- Occupied --
-18.950 -18.933 -18.931 -18.927 -18.896 -18.890 -18.887 -18.877
-18.872 -18.868 -10.117 -10.101 -10.098 -10.094 -10.075 -10.071
-10.064 -10.062 -10.061 -10.060 -10.056 -10.046 -10.044 -10.039
-10.038 -10.036 -10.023 -10.022 -10.020 -10.019  -1.028  -1.014
 -1.006  -1.004  -0.973  -0.969  -0.953  -0.938  -0.932  -0.930
 -0.767  -0.763  -0.731  -0.723  -0.712  -0.707  -0.698  -0.664
 -0.652  -0.619  -0.599  -0.582  -0.549  -0.544  -0.540  -0.536
 -0.516  -0.508  -0.486  -0.477  -0.462  -0.460  -0.457  -0.451
 -0.440  -0.433  -0.430  -0.417  -0.413  -0.409  -0.404  -0.401
 -0.401  -0.387  -0.373  -0.368  -0.363  -0.361  -0.355  -0.351
 -0.346  -0.337  -0.334  -0.333  -0.330  -0.328  -0.326  -0.314
 -0.309  -0.309  -0.304  -0.303  -0.294  -0.289  -0.282  -0.276
 -0.271  -0.258  -0.253  -0.250  -0.246  -0.237  -0.233  -0.192
 -0.175  -0.174  -0.173  -0.169  -0.160  -0.149  -0.148  -0.146
 -0.143

          Ground-State Mulliken Net Atomic Charges

     Atom                 Charge (a.u.)
  ----------------------------------------
      1 O                    -0.220476
      2 C                     0.212613
      3 C                    -0.079939
      4 C                    -0.077293
      5 C                     0.223296
      6 O                    -0.169312
      7 C                    -0.054379
      8 C                    -0.055700
      9 O                    -0.172874
     10 C                     0.214036
     11 C                    -0.079070
     12 C                    -0.078624
     13 C                     0.211737
     14 O                    -0.209205
     15 O                    -0.170198
     16 O                    -0.177675
     17 O                    -0.213765
     18 C                    -0.143842
     19 C                     0.025932
     20 C                    -0.143754
     21 C                    -0.144165
     22 C                     0.024533
     23 O                    -0.186526
     24 H                     0.086924
     25 H                     0.084766
     26 H                     0.082923
     27 H                     0.078021
     28 H                     0.073392
     29 H                     0.078417
     30 H                     0.073239
     31 H                     0.091662
     32 O                    -0.209333
     33 C                    -0.128276
     34 C                     0.025507
     35 C                    -0.143711
     36 C                    -0.144232
     37 C                     0.024334
     38 O                    -0.187027
     39 H                     0.086565
     40 H                     0.087889
     41 H                     0.083276
     42 H                     0.085021
     43 H                     0.078733
     44 H                     0.073938
     45 H                     0.079253
     46 H                     0.073632
     47 H                     0.090760
     48 H                     0.089611
     49 H                     0.089066
     50 H                     0.106156
     51 H                     0.083531
     52 H                     0.085747
     53 H                     0.103973
     54 H                     0.084178
     55 H                     0.106261
     56 H                     0.090453
  ----------------------------------------
  Sum of atomic charges =     0.000000

                    Cartesian Multipole Moments
 -----------------------------------------------------------------
    Charge (ESU x 10^10)
                -0.0000
    Dipole Moment (Debye)
         X      -1.2356      Y       2.2031      Z       0.0846
       Tot       2.5273
    Quadrupole Moments (Debye-Ang)
        XX    -147.4982     XY       6.7311     YY    -155.2371
        XZ      21.6693     YZ       0.4772     ZZ    -168.0925

 Total job time:  104.57s(wall), 4982.21s(cpu)
        *  Thank you very much for using Q-Chem.  Have a nice day.  *
