 Q-Chem 5.0, Q-Chem, Inc., Pleasanton, CA (2017)
 Q-Chem 5.0.1 for Intel X86 EM64T Linux

User input:
--------------------------------------------------------------
$molecule
0  1
O -4.2532002985 1.8849921851 1.1572991131
C -4.0170995429 1.5713076038 -0.0292996116
C -4.409335974 0.2483288471 -0.7716687273
C -3.3745845466 -0.9360401591 -0.5343062928
C -2.2971752285 -0.6023317551 0.5592722094
O -1.4617696882 0.4460279854 0.0593036205
C -0.4078329893 0.7716530505 1.0517298944
C 0.4484061123 1.9509321205 0.4664386005
O 1.8535132171 1.7604549503 0.89966368
C 2.5657374756 1.0025235534 -0.0928320217
C 4.0486902678 0.8647405378 0.3788796436
C 4.5186253524 -0.6366682418 0.587095837
C 3.4382971123 -1.7599047672 0.3752920192
O 3.6472455706 -2.8813323984 -0.1352209477
O -3.3489438811 2.4247629361 -0.967352037
O 2.1818079165 -1.3782341175 0.9562929257
O 2.0652719105 0.6093197668 -1.1684549199
C 1.2001406115 -2.4782873885 0.7725763952
C 5.0444595938 1.3174456874 -0.777975787
C 6.4848395134 1.5044618902 -0.1561221886
C 6.9386823406 0.0075961682 0.0184694884
C 5.6623473592 -0.7582280628 -0.5041633118
O 5.1719654792 0.0996342889 -1.6085278225
H 4.1782471949 1.4591078571 1.2999629637
H 4.9268789989 -0.7681933392 1.6072089236
H 4.6785091255 2.1656776406 -1.3882426238
H 7.1389850892 2.0478850177 -0.8562471902
H 6.4544503317 2.0546113094 0.797902899
H 7.8112657464 -0.2257155365 -0.612273845
H 7.1796241288 -0.2463149414 1.0630593904
H 5.8262237166 -1.7950986401 -0.8577101851
O -2.1239621387 -1.1716037767 1.6584147117
C -2.9175866395 3.670682354 -0.2944647536
C -5.7438560558 -0.4086527733 -0.2137303805
C -6.28529361 -1.4034814536 -1.313794157
C -5.2471164985 -2.5815190852 -1.189151536
C -4.3415727334 -2.0696633173 -0.0008028488
O -5.2786695147 -1.3123420994 0.862270304
H -4.4891822299 0.477138173 -1.8490854782
H -2.8589812147 -1.2098773859 -1.4726051581
H -2.219812416 3.4596502439 0.5409393983
H -6.4816928468 0.3155356751 0.1826265536
H -7.3042057417 -1.737186262 -1.0602008066
H -6.2999121566 -0.9510926877 -2.3181853325
H -5.7392499755 -3.5292931067 -0.9197270256
H -4.6669266598 -2.7348475401 -2.113372104
H -3.8284963546 -2.8550159661 0.5873162892
H -3.780930399 4.2406289663 0.1059284501
H -2.4012787798 4.2722623042 -1.064876687
H 0.315840127 -2.2194296525 1.3852408432
H 1.6162181363 -3.4502851092 1.1043810602
H 0.8978591656 -2.5668017868 -0.290934264
H 0.3822954581 1.9267341947 -0.64287161
H 0.1184607912 2.9346998388 0.8530072031
H 0.2672993141 -0.0956555882 1.2103574724
H -0.8597062702 1.0412646244 2.029948548
$end

$rem
JOBTYPE                   OPT
METHOD                    B3LYP
DFT_D                     d3_op
BASIS                     STO-3G
GEOM_OPT_MAX_CYCLES       100
GEOM_OPT_TOL_GRADIENT     300
GEOM_OPT_TOL_DISPLACEMENT 1200
GEOM_OPT_TOL_ENERGY       100
SYMMETRY                  False
THRESH                    12
SCF_CONVERGENCE           8
MAX_SUB_FILE_NUM          128
MEM_STATIC                400
MEM_TOTAL                 4000
$end
--------------------------------------------------------------

   16   -1510.2835450825      6.03E-09 Convergence criterion met
 Total energy in the final basis set = -1510.28354508
   15   -1510.2839861254      1.80E-09 Convergence criterion met
 Total energy in the final basis set = -1510.28398613
   14   -1510.2860566713      6.98E-09 Convergence criterion met
 Total energy in the final basis set = -1510.28605667
   13   -1510.2853948319      8.76E-09 Convergence criterion met
 Total energy in the final basis set = -1510.28539483
   14   -1510.2870841144      3.69E-09 Convergence criterion met
 Total energy in the final basis set = -1510.28708411
   14   -1510.2871072797      7.27E-09 Convergence criterion met
 Total energy in the final basis set = -1510.28710728
   14   -1510.2849744303      9.38E-09 Convergence criterion met
 Total energy in the final basis set = -1510.28497443
   14   -1510.2862415021      5.48E-09 Convergence criterion met
   12   -1510.2903979314      7.62E-09 Convergence criterion met
 Total energy in the final basis set = -1510.29039793
   11   -1510.2904045599      8.44E-09 Convergence criterion met
 Total energy in the final basis set = -1510.29040456
   10   -1510.2904065251      9.84E-09 Convergence criterion met
 Total energy in the final basis set = -1510.29040653
   11   -1510.2904131119      2.52E-09 Convergence criterion met
 Total energy in the final basis set = -1510.29041311
   11   -1510.2904158737      3.22E-09 Convergence criterion met
 Total energy in the final basis set = -1510.29041587
   10   -1510.2904141287      5.16E-09 Convergence criterion met
 Total energy in the final basis set = -1510.29041413

             Standard Nuclear Orientation (Angstroms)
    I     Atom           X                Y                Z
 ----------------------------------------------------------------
    1      O      -3.6500552288     1.6405304147     1.5588340921
    2      C      -3.9255891191     1.6057103361     0.3402315345
    3      C      -4.5601946279     0.4226186496    -0.4739117975
    4      C      -3.5720069605    -0.7940435825    -0.7329931091
    5      C      -2.1640554353    -0.6315457021    -0.0607673788
    6      O      -1.6890002777     0.6909993482    -0.3155721186
    7      C      -0.4364054789     0.9714137184     0.4306415654
    8      C       0.5940379685     1.6409137306    -0.5412060314
    9      O       1.9169244787     1.6562838517     0.1275364594
   10      C       2.8334536909     0.8029103092    -0.5798244909
   11      C       4.1529583110     0.7164688455     0.2515739752
   12      C       4.5300353596    -0.7708508855     0.6601993357
   13      C       3.5274017956    -1.8609216740     0.1336423585
   14      O       3.8108858025    -2.8782425642    -0.5336310371
   15      O      -3.7724425933     2.7182762984    -0.5535670193
   16      O       2.2032435661    -1.5206579672     0.5592744534
   17      O       2.5797504335     0.2625474501    -1.6790156505
   18      C       1.2340198967    -2.5069178997     0.0208025560
   19      C       5.4281409315     1.1112412354    -0.6135222923
   20      C       6.6336631878     1.3611351305     0.3777558839
   21      C       7.0116482762    -0.1143167341     0.7767300599
   22      C       5.9400862497    -0.9336381487    -0.0428046314
   23      O       5.7871872337    -0.1522469643    -1.2928780542
   24      H       4.0420327069     1.3632573379     1.1391428520
   25      H       4.6022931678    -0.8642520734     1.7595804230
   26      H       5.2503193300     1.9142344892    -1.3548429235
   27      H       7.4628664345     1.8647742259    -0.1441365054
   28      H       6.3354380781     1.9736531561     1.2435010239
   29      H       8.0302212717    -0.3735912692     0.4468253723
   30      H       6.9340704122    -0.2954703780     1.8607653375
   31      H       6.2016095135    -1.9843206108    -0.2753375523
   32      O      -1.5407780729    -1.5028719070     0.5873480495
   33      C      -3.1485134733     3.8548682983     0.1597562314
   34      C      -5.7093929758    -0.3100200205     0.3453536154
   35      C      -6.5742699252    -1.1604248768    -0.6665984860
   36      C      -5.5992111376    -2.3599997070    -0.9653329806
   37      C      -4.3664204652    -1.9852261320    -0.0545360896
   38      O      -4.9832848989    -1.3372873847     1.1261720080
   39      H      -4.9336278923     0.8316139420    -1.4289356175
   40      H      -3.4227007080    -0.9568739929    -1.8169135067
   41      H      -2.1043448871     3.6230792898     0.4536246751
   42      H      -6.2837505630     0.3529494202     1.0209299324
   43      H      -7.5011364124    -1.5060860836    -0.1819320791
   44      H      -6.8393183071    -0.5901437873    -1.5712508811
   45      H      -6.0323446909    -3.3218786014    -0.6482275888
   46      H      -5.3237229261    -2.4308612256    -2.0297484371
   47      H      -3.7199032970    -2.8282425915     0.2586020308
   48      H      -3.7167436143     4.1287060293     1.0718833585
   49      H      -3.1505704515     4.7025595935    -0.5498861569
   50      H       0.2228694827    -2.1519690776     0.3180782837
   51      H       1.4179120772    -3.5173002095     0.4380390149
   52      H       1.3033122390    -2.5659463254    -1.0840209237
   53      H       0.6842091166     1.0527567488    -1.4815892293
   54      H       0.2995869638     2.6844784850    -0.7759212516
   55      H      -0.0221921886     0.0248121529     0.8364524809
   56      H      -0.6833236445     1.6467012356     1.2776685578
 ----------------------------------------------------------------

    9   -1510.2904150491      9.01E-09 Convergence criterion met
 Total energy in the final basis set = -1510.29041505
 Final energy is   -1510.29041504908
 **  OPTIMIZATION CONVERGED  **

                    Orbital Energies (a.u.)
 --------------------------------------------------------------

 Alpha MOs
 -- Occupied --
-18.950 -18.933 -18.931 -18.927 -18.896 -18.890 -18.886 -18.876
-18.871 -18.868 -10.117 -10.101 -10.098 -10.094 -10.075 -10.070
-10.064 -10.062 -10.062 -10.060 -10.056 -10.046 -10.043 -10.039
-10.038 -10.036 -10.023 -10.022 -10.020 -10.019  -1.028  -1.014
 -1.007  -1.003  -0.973  -0.969  -0.953  -0.937  -0.933  -0.930
 -0.767  -0.762  -0.731  -0.723  -0.712  -0.707  -0.698  -0.664
 -0.652  -0.619  -0.599  -0.582  -0.549  -0.544  -0.540  -0.536
 -0.516  -0.508  -0.486  -0.477  -0.463  -0.460  -0.457  -0.450
 -0.439  -0.433  -0.429  -0.417  -0.413  -0.410  -0.404  -0.401
 -0.400  -0.387  -0.373  -0.368  -0.363  -0.360  -0.355  -0.351
 -0.346  -0.337  -0.334  -0.333  -0.330  -0.328  -0.325  -0.314
 -0.309  -0.309  -0.304  -0.303  -0.294  -0.289  -0.282  -0.276
 -0.271  -0.258  -0.253  -0.250  -0.245  -0.237  -0.233  -0.192
 -0.175  -0.174  -0.173  -0.169  -0.160  -0.150  -0.148  -0.146
 -0.143

          Ground-State Mulliken Net Atomic Charges

     Atom                 Charge (a.u.)
  ----------------------------------------
      1 O                    -0.220182
      2 C                     0.212346
      3 C                    -0.079876
      4 C                    -0.077247
      5 C                     0.223423
      6 O                    -0.169464
      7 C                    -0.054435
      8 C                    -0.055844
      9 O                    -0.172857
     10 C                     0.214134
     11 C                    -0.079015
     12 C                    -0.078589
     13 C                     0.211719
     14 O                    -0.209255
     15 O                    -0.170041
     16 O                    -0.177638
     17 O                    -0.213938
     18 C                    -0.144016
     19 C                     0.025838
     20 C                    -0.143735
     21 C                    -0.144140
     22 C                     0.024471
     23 O                    -0.186478
     24 H                     0.086832
     25 H                     0.084745
     26 H                     0.082922
     27 H                     0.077986
     28 H                     0.073361
     29 H                     0.078393
     30 H                     0.073222
     31 H                     0.091656
     32 O                    -0.209164
     33 C                    -0.128324
     34 C                     0.025506
     35 C                    -0.143687
     36 C                    -0.144254
     37 C                     0.024369
     38 O                    -0.186919
     39 H                     0.086606
     40 H                     0.087926
     41 H                     0.083434
     42 H                     0.084996
     43 H                     0.078756
     44 H                     0.073944
     45 H                     0.079284
     46 H                     0.073644
     47 H                     0.090798
     48 H                     0.089800
     49 H                     0.089147
     50 H                     0.106407
     51 H                     0.083187
     52 H                     0.085832
     53 H                     0.103767
     54 H                     0.084147
     55 H                     0.106373
     56 H                     0.090130
  ----------------------------------------
  Sum of atomic charges =     0.000000

                    Cartesian Multipole Moments
 -----------------------------------------------------------------
    Charge (ESU x 10^10)
                -0.0000
    Dipole Moment (Debye)
         X      -1.2723      Y       2.3025      Z      -0.0256
       Tot       2.6307
    Quadrupole Moments (Debye-Ang)
        XX    -147.7305     XY       7.5086     YY    -155.5938
        XZ      21.4698     YZ      -0.0065     ZZ    -167.3808

 Total job time:  111.99s(wall), 5321.00s(cpu)
        *  Thank you very much for using Q-Chem.  Have a nice day.  *
