 Q-Chem 5.0, Q-Chem, Inc., Pleasanton, CA (2017)
 Q-Chem 5.0.1 for Intel X86 EM64T Linux

User input:
--------------------------------------------------------------
$molecule
0  1
O -3.94934 -3.66094 2.70899
C -3.26408 -4.56952 2.26188
C -3.36658 -6.02376 2.66595
C -2.60048 -6.45855 3.92607
C -1.96233 -5.35582 4.74144
O -0.94888 -4.77966 4.02984
C -0.27437 -3.74224 4.7496
C 0.81482 -3.12214 3.88053
O 1.93445 -2.74219 4.69597
C 2.90337 -3.6815 4.83033
C 4.07143 -3.20715 5.66176
C 4.33899 -4.02949 6.9308
C 3.6554 -5.38032 6.99919
O 4.13652 -6.39447 7.48355
O -2.34103 -4.28408 1.30649
O 2.29916 -5.36141 6.87725
O 2.8743 -4.78848 4.3024
C 1.48426 -6.46179 7.06366
C 5.43039 -3.32281 4.94685
C 6.41414 -2.32565 5.55554
C 6.6396 -2.94872 6.91898
C 5.85468 -4.25733 6.75727
O 5.9561 -4.55212 5.38432
H 3.89437 -2.13692 5.92041
H 4.06591 -3.47886 7.85766
H 5.36221 -3.18061 3.84609
H 7.35608 -2.40666 4.9666
H 6.08385 -1.26471 5.56872
H 7.72836 -3.14428 7.03809
H 6.25954 -2.35776 7.78043
H 6.25415 -5.0283 7.45189
O -2.28604 -5.04141 5.88216
C -2.08978 -3.01722 0.82333
C -4.80509 -6.40646 3.06968
C -5.00954 -7.91311 2.91853
C -4.18945 -8.42577 4.08248
C -3.75549 -7.10192 4.721
O -4.83154 -6.2334 4.46494
H -3.07773 -6.62586 1.77456
H -1.79987 -7.19942 3.70526
H -1.74935 -2.35485 1.64791
H -5.58168 -5.85757 2.49261
H -6.0839 -8.12329 3.12316
H -4.73723 -8.32881 1.92459
H -4.86547 -8.98174 4.76978
H -3.32004 -9.06196 3.80889
H -3.50059 -7.26578 5.79117
H -3.00587 -2.59641 0.35645
H -1.29013 -3.07233 0.05658
H 0.42569 -6.1714 6.91085
H 1.59427 -6.85023 8.09866
H 1.74526 -7.25723 6.33344
H 1.12523 -3.85563 3.10166
H 0.4195 -2.26104 3.30182
H 0.21756 -4.22846 5.61747
H -0.95252 -2.94668 5.1327
$end

$opt
CONSTRAINT
tors           1           2           3           4     -84.085
tors           3           4           5           6     -67.066
tors           4           5           6           7    -178.711
tors           5           6           7           8    -178.438
tors           6           7           8           9    -145.466
tors           7           8           9          10     +91.732
tors           8           9          10          11    +178.190
tors           9          10          11          12    +119.639
tors          11          12          13          14    +143.234
ENDCONSTRAINT
$end

$rem
JOBTYPE                   OPT
METHOD                    B3LYP
DFT_D                     d3_op
BASIS                     STO-3G
GEOM_OPT_MAX_CYCLES       100
GEOM_OPT_TOL_GRADIENT     300
GEOM_OPT_TOL_DISPLACEMENT 1200
GEOM_OPT_TOL_ENERGY       100
SYMMETRY                  False
THRESH                    12
SCF_CONVERGENCE           8
MAX_SUB_FILE_NUM          128
MEM_STATIC                400
MEM_TOTAL                 4000
$end
--------------------------------------------------------------

   15   -1510.1551113240      6.88E-09 Convergence criterion met
 Total energy in the final basis set = -1510.15511132
   14   -1510.2237958927      6.69E-09 Convergence criterion met
 Total energy in the final basis set = -1510.22379589
   14   -1510.2603732018      6.56E-09 Convergence criterion met
 Total energy in the final basis set = -1510.26037320
   14   -1510.2757804176      5.16E-09 Convergence criterion met
 Total energy in the final basis set = -1510.27578042
   13   -1510.2800715118      7.38E-09 Convergence criterion met
 Total energy in the final basis set = -1510.28007151
   14   -1510.2805180206      3.68E-09 Convergence criterion met
 Total energy in the final basis set = -1510.28051802
   13   -1510.2819166365      6.16E-09 Convergence criterion met
 Total energy in the final basis set = -1510.28191664
   12   -1510.2823100649      6.91E-09 Convergence criterion met
   11   -1510.2834014736      4.85E-09 Convergence criterion met
 Total energy in the final basis set = -1510.28340147
   11   -1510.2834405388      5.11E-09 Convergence criterion met
 Total energy in the final basis set = -1510.28344054
   11   -1510.2834694107      4.81E-09 Convergence criterion met
 Total energy in the final basis set = -1510.28346941
   11   -1510.2834876451      3.41E-09 Convergence criterion met
 Total energy in the final basis set = -1510.28348765
   10   -1510.2834941268      8.49E-09 Convergence criterion met
 Total energy in the final basis set = -1510.28349413
   10   -1510.2834965219      5.10E-09 Convergence criterion met
 Total energy in the final basis set = -1510.28349652

             Standard Nuclear Orientation (Angstroms)
    I     Atom           X                Y                Z
 ----------------------------------------------------------------
    1      O      -4.2532002985     1.8849921851     1.1572991131
    2      C      -4.0170995429     1.5713076038    -0.0292996116
    3      C      -4.4093359740     0.2483288471    -0.7716687273
    4      C      -3.3745845466    -0.9360401591    -0.5343062928
    5      C      -2.2971752285    -0.6023317551     0.5592722094
    6      O      -1.4617696882     0.4460279854     0.0593036205
    7      C      -0.4078329893     0.7716530505     1.0517298944
    8      C       0.4484061123     1.9509321205     0.4664386005
    9      O       1.8535132171     1.7604549503     0.8996636800
   10      C       2.5657374756     1.0025235534    -0.0928320217
   11      C       4.0486902678     0.8647405378     0.3788796436
   12      C       4.5186253524    -0.6366682418     0.5870958370
   13      C       3.4382971123    -1.7599047672     0.3752920192
   14      O       3.6472455706    -2.8813323984    -0.1352209477
   15      O      -3.3489438811     2.4247629361    -0.9673520370
   16      O       2.1818079165    -1.3782341175     0.9562929257
   17      O       2.0652719105     0.6093197668    -1.1684549199
   18      C       1.2001406115    -2.4782873885     0.7725763952
   19      C       5.0444595938     1.3174456874    -0.7779757870
   20      C       6.4848395134     1.5044618902    -0.1561221886
   21      C       6.9386823406     0.0075961682     0.0184694884
   22      C       5.6623473592    -0.7582280628    -0.5041633118
   23      O       5.1719654792     0.0996342889    -1.6085278225
   24      H       4.1782471949     1.4591078571     1.2999629637
   25      H       4.9268789989    -0.7681933392     1.6072089236
   26      H       4.6785091255     2.1656776406    -1.3882426238
   27      H       7.1389850892     2.0478850177    -0.8562471902
   28      H       6.4544503317     2.0546113094     0.7979028990
   29      H       7.8112657464    -0.2257155365    -0.6122738450
   30      H       7.1796241288    -0.2463149414     1.0630593904
   31      H       5.8262237166    -1.7950986401    -0.8577101851
   32      O      -2.1239621387    -1.1716037767     1.6584147117
   33      C      -2.9175866395     3.6706823540    -0.2944647536
   34      C      -5.7438560558    -0.4086527733    -0.2137303805
   35      C      -6.2852936100    -1.4034814536    -1.3137941570
   36      C      -5.2471164985    -2.5815190852    -1.1891515360
   37      C      -4.3415727334    -2.0696633173    -0.0008028488
   38      O      -5.2786695147    -1.3123420994     0.8622703040
   39      H      -4.4891822299     0.4771381730    -1.8490854782
   40      H      -2.8589812147    -1.2098773859    -1.4726051581
   41      H      -2.2198124160     3.4596502439     0.5409393983
   42      H      -6.4816928468     0.3155356751     0.1826265536
   43      H      -7.3042057417    -1.7371862620    -1.0602008066
   44      H      -6.2999121566    -0.9510926877    -2.3181853325
   45      H      -5.7392499755    -3.5292931067    -0.9197270256
   46      H      -4.6669266598    -2.7348475401    -2.1133721040
   47      H      -3.8284963546    -2.8550159661     0.5873162892
   48      H      -3.7809303990     4.2406289663     0.1059284501
   49      H      -2.4012787798     4.2722623042    -1.0648766870
   50      H       0.3158401270    -2.2194296525     1.3852408432
   51      H       1.6162181363    -3.4502851092     1.1043810602
   52      H       0.8978591656    -2.5668017868    -0.2909342640
   53      H       0.3822954581     1.9267341947    -0.6428716100
   54      H       0.1184607912     2.9346998388     0.8530072031
   55      H       0.2672993141    -0.0956555882     1.2103574724
   56      H      -0.8597062702     1.0412646244     2.0299485480
 ----------------------------------------------------------------

    9   -1510.2834966342      5.74E-09 Convergence criterion met
 Total energy in the final basis set = -1510.28349663
 Final energy is   -1510.28349663422
 **  OPTIMIZATION CONVERGED  **

                    Orbital Energies (a.u.)
 --------------------------------------------------------------

 Alpha MOs
 -- Occupied --
-18.940 -18.935 -18.933 -18.932 -18.889 -18.886 -18.880 -18.878
-18.873 -18.872 -10.104 -10.101 -10.099 -10.097 -10.072 -10.069
-10.065 -10.064 -10.062 -10.059 -10.058 -10.057 -10.041 -10.039
-10.039 -10.036 -10.022 -10.021 -10.020 -10.019  -1.018  -1.015
 -1.009  -1.007  -0.972  -0.969  -0.941  -0.939  -0.935  -0.934
 -0.765  -0.763  -0.728  -0.723  -0.712  -0.705  -0.697  -0.664
 -0.663  -0.618  -0.598  -0.583  -0.547  -0.546  -0.539  -0.537
 -0.514  -0.510  -0.486  -0.473  -0.464  -0.456  -0.454  -0.447
 -0.446  -0.432  -0.429  -0.416  -0.413  -0.412  -0.409  -0.400
 -0.395  -0.382  -0.376  -0.369  -0.363  -0.357  -0.354  -0.348
 -0.347  -0.340  -0.338  -0.332  -0.331  -0.329  -0.328  -0.313
 -0.309  -0.307  -0.306  -0.298  -0.294  -0.287  -0.282  -0.274
 -0.274  -0.257  -0.255  -0.253  -0.249  -0.235  -0.233  -0.183
 -0.180  -0.176  -0.174  -0.160  -0.158  -0.152  -0.148  -0.145
 -0.143

          Ground-State Mulliken Net Atomic Charges

     Atom                 Charge (a.u.)
  ----------------------------------------
      1 O                    -0.213992
      2 C                     0.207582
      3 C                    -0.079559
      4 C                    -0.077515
      5 C                     0.209166
      6 O                    -0.172895
      7 C                    -0.053191
      8 C                    -0.052764
      9 O                    -0.172608
     10 C                     0.211986
     11 C                    -0.079897
     12 C                    -0.078143
     13 C                     0.212803
     14 O                    -0.209712
     15 O                    -0.167142
     16 O                    -0.172486
     17 O                    -0.214220
     18 C                    -0.132168
     19 C                     0.026339
     20 C                    -0.144171
     21 C                    -0.143791
     22 C                     0.024171
     23 O                    -0.186440
     24 H                     0.086924
     25 H                     0.085483
     26 H                     0.083436
     27 H                     0.078492
     28 H                     0.073748
     29 H                     0.078928
     30 H                     0.073490
     31 H                     0.092008
     32 O                    -0.211287
     33 C                    -0.127730
     34 C                     0.025193
     35 C                    -0.143203
     36 C                    -0.144717
     37 C                     0.024597
     38 O                    -0.186413
     39 H                     0.086108
     40 H                     0.087092
     41 H                     0.084968
     42 H                     0.085573
     43 H                     0.078093
     44 H                     0.073365
     45 H                     0.078342
     46 H                     0.073245
     47 H                     0.088314
     48 H                     0.088598
     49 H                     0.089719
     50 H                     0.096111
     51 H                     0.093653
     52 H                     0.090751
     53 H                     0.104152
     54 H                     0.085596
     55 H                     0.096770
     56 H                     0.089246
  ----------------------------------------
  Sum of atomic charges =     0.000000

                    Cartesian Multipole Moments
 -----------------------------------------------------------------
    Charge (ESU x 10^10)
                 0.0000
    Dipole Moment (Debye)
         X       0.9466      Y       1.5658      Z      -0.4276
       Tot       1.8790
    Quadrupole Moments (Debye-Ang)
        XX    -150.1584     XY       6.1098     YY    -152.7076
        XZ      21.5271     YZ       0.3558     ZZ    -168.3154

 Total job time:  52.98s(wall), 2517.66s(cpu)
        *  Thank you very much for using Q-Chem.  Have a nice day.  *
