 Q-Chem 5.0, Q-Chem, Inc., Pleasanton, CA (2017)
 Q-Chem 5.0.1 for Intel X86 EM64T Linux

User input:
--------------------------------------------------------------
$molecule
0  1
O -3.9911138564 1.8179460174 1.1808220101
C -3.8824893032 1.5552319031 -0.0363342047
C -4.3299510983 0.2537760231 -0.7865160047
C -3.3573217509 -0.980731092 -0.5502429677
C -2.2598219881 -0.7034553249 0.5386173353
O -1.4617882637 0.4001672988 0.0993828
C -0.4024692037 0.6843229884 1.098243173
C 0.4028797334 1.9402045296 0.6043347024
O 1.8218901393 1.7704669087 0.9992476861
C 2.5025502324 0.980308813 0.0101538701
C 4.0012232474 0.8599892304 0.4315975917
C 4.5070619378 -0.6403499399 0.5324307006
C 3.4293355352 -1.7646282518 0.3106640176
O 3.6085509254 -2.8340380337 -0.3106004932
O -3.348511215 2.4635067863 -1.0090319886
O 2.2187047971 -1.4552575183 1.0191332805
O 1.9652000209 0.5469338385 -1.0316627834
C 1.2387130897 -2.5546340292 0.8239386782
C 4.9462480887 1.4009852681 -0.7296796018
C 6.4081838075 1.5653651754 -0.1516645276
C 6.8901348535 0.0673162806 -0.1065739152
C 5.598258177 -0.6796875307 -0.6172501228
O 5.0517149762 0.2410465821 -1.6415621975
H 4.1465679841 1.4054160274 1.3801276699
H 4.9670792193 -0.8198875327 1.5226468965
H 4.5487596123 2.2830294702 -1.2682904154
H 7.0266921501 2.1705861391 -0.833373509
H 6.4068185277 2.042273453 0.8414956663
H 7.7313780524 -0.1060088326 -0.7962875388
H 7.1887054242 -0.254863643 0.9038739612
H 5.7540296184 -1.6897887906 -1.0442482864
O -2.0460113871 -1.3487892402 1.5873949702
C -2.9008412753 3.7074491636 -0.3432569423
C -5.698185053 -0.3407190805 -0.2372936376
C -6.2788844704 -1.3109332276 -1.3399119702
C -5.3021824835 -2.5390200931 -1.2039251173
C -4.3770321481 -2.0656891037 -0.0147455809
O -5.2811897159 -1.262536364 0.8423222008
H -4.3961747012 0.4931628549 -1.862343554
H -2.8594848188 -1.2826139852 -1.4897856777
H -2.1599014903 3.4982072079 0.4540584725
H -6.4058522162 0.4163514612 0.1525453604
H -7.3155952638 -1.59206776 -1.0950294499
H -6.2619380244 -0.8607232255 -2.3452848716
H -5.8430183272 -3.4589027089 -0.9309956667
H -4.7272306428 -2.727493384 -2.1248721637
H -3.9013623491 -2.8707863813 0.5783050844
H -3.7517764694 4.2595479053 0.1062126709
H -2.4338604501 4.3265855782 -1.1310580928
H 0.3694425405 -2.3205904897 1.4677960564
H 1.6677275801 -3.5350242166 1.1123594594
H 0.9080032059 -2.6104789731 -0.2332933236
H 0.3070061753 2.0185326246 -0.5001888802
H 0.0492690647 2.8718157047 1.0869352372
H 0.3045558427 -0.1688326026 1.1758533859
H -0.8479084713 0.8566241231 2.1010558426
$end

$rem
JOBTYPE                   OPT
METHOD                    B3LYP
DFT_D                     d3_op
BASIS                     STO-3G
GEOM_OPT_MAX_CYCLES       100
GEOM_OPT_TOL_GRADIENT     300
GEOM_OPT_TOL_DISPLACEMENT 1200
GEOM_OPT_TOL_ENERGY       100
SYMMETRY                  False
THRESH                    12
SCF_CONVERGENCE           8
MAX_SUB_FILE_NUM          128
MEM_STATIC                400
MEM_TOTAL                 4000
$end
--------------------------------------------------------------

   16   -1510.2847139461      5.92E-09 Convergence criterion met
 Total energy in the final basis set = -1510.28471395
   15   -1510.2833600204      1.84E-09 Convergence criterion met
 Total energy in the final basis set = -1510.28336002
   14   -1510.2857344800      1.73E-09 Convergence criterion met
 Total energy in the final basis set = -1510.28573448
   14   -1510.2859531818      8.52E-09 Convergence criterion met
 Total energy in the final basis set = -1510.28595318
   13   -1510.2872049989      4.12E-09 Convergence criterion met
 Total energy in the final basis set = -1510.28720500
   14   -1510.2874307179      4.32E-09 Convergence criterion met
 Total energy in the final basis set = -1510.28743072
   13   -1510.2885661195      7.66E-09 Convergence criterion met
 Total energy in the final basis set = -1510.28856612
   14   -1510.2881738568      5.51E-09 Convergence criterion met
   12   -1510.2904300644      7.96E-09 Convergence criterion met
 Total energy in the final basis set = -1510.29043006
   12   -1510.2904562770      5.78E-09 Convergence criterion met
 Total energy in the final basis set = -1510.29045628
   11   -1510.2904562178      8.65E-09 Convergence criterion met
 Total energy in the final basis set = -1510.29045622
   11   -1510.2904531203      3.34E-09 Convergence criterion met
 Total energy in the final basis set = -1510.29045312
   11   -1510.2904562082      3.62E-09 Convergence criterion met
 Total energy in the final basis set = -1510.29045621
    9   -1510.2904531630      7.60E-09 Convergence criterion met
 Total energy in the final basis set = -1510.29045316

             Standard Nuclear Orientation (Angstroms)
    I     Atom           X                Y                Z
 ----------------------------------------------------------------
    1      O      -3.6515133805     1.6405450299     1.5886096764
    2      C      -3.9228665083     1.6201475561     0.3687658590
    3      C      -4.5621470796     0.4500834343    -0.4605451540
    4      C      -3.5804771875    -0.7688404882    -0.7329476803
    5      C      -2.1725415484    -0.6234733286    -0.0568970454
    6      O      -1.6920910876     0.7008910264    -0.2910449303
    7      C      -0.4374736802     0.9651126593     0.4575267036
    8      C       0.5901927459     1.6524508644    -0.5047758629
    9      O       1.9166564326     1.6513907258     0.1568950297
   10      C       2.8256325914     0.8061352166    -0.5698703939
   11      C       4.1505385301     0.7036846209     0.2509108106
   12      C       4.5261508580    -0.7898255009     0.6371155403
   13      C       3.5173457959    -1.8712086541     0.1043890955
   14      O       3.7951103414    -2.8831088900    -0.5734950828
   15      O      -3.7602551771     2.7411282439    -0.5128198708
   16      O       2.1958463826    -1.5313801749     0.5386552613
   17      O       2.5628848447     0.2843146391    -1.6758524307
   18      C       1.2218769962    -2.5103204610    -0.0048241289
   19      C       5.4203600400     1.1063505716    -0.6185163789
   20      C       6.6338579038     1.3405472670     0.3668831702
   21      C       7.0105246843    -0.1409862636     0.7441815351
   22      C       5.9308060024    -0.9469275939    -0.0781439288
   23      O       5.7711209269    -0.1490747820    -1.3167355663
   24      H       4.0481174473     1.3388707186     1.1477956898
   25      H       4.6064988832    -0.8975721795     1.7346305690
   26      H       5.2390732236     1.9191546470    -1.3482371780
   27      H       7.4606191170     1.8485690012    -0.1546409684
   28      H       6.3435704166     1.9427187783     1.2425297486
   29      H       8.0259409716    -0.3986825970     0.4035182669
   30      H       6.9402994239    -0.3357973545     1.8263274417
   31      H       6.1879201177    -1.9952113796    -0.3259715177
   32      O      -1.5529506325    -1.5077249252     0.5770843184
   33      C      -3.1304771878     3.8660187967     0.2137116133
   34      C      -5.7175054180    -0.2859910603     0.3467214670
   35      C      -6.5853528196    -1.1176643961    -0.6781528404
   36      C      -5.6164616414    -2.3187668090    -0.9911615375
   37      C      -4.3839223904    -1.9640672755    -0.0721278907
   38      O      -4.9998584639    -1.3280963157     1.1155128431
   39      H      -4.9309857993     0.8730529952    -1.4112557870
   40      H      -3.4300052745    -0.9185929383    -1.8186134926
   41      H      -2.0889909307     3.6237169208     0.5086238724
   42      H      -6.2892333311     0.3716335678     1.0296968061
   43      H      -7.5150882366    -1.4646046211    -0.1999164567
   44      H      -6.8454293682    -0.5338455682    -1.5756034304
   45      H      -6.0559978983    -3.2823958636    -0.6885840538
   46      H      -5.3385069240    -2.3763186050    -2.0557227830
   47      H      -3.7434880465    -2.8152244482     0.2313605260
   48      H      -3.6996666439     4.1350562769     1.1266798704
   49      H      -3.1240550026     4.7206604297    -0.4875088805
   50      H       0.2126214914    -2.1559056916     0.2995005578
   51      H       1.4050776105    -3.5248841006     0.4024535366
   52      H       1.2865396991    -2.5594629191    -1.1103957410
   53      H       0.6743545795     1.0833499180    -1.4573343847
   54      H       0.2971040288     2.7012756464    -0.7163899484
   55      H      -0.0227007417     0.0104678112     0.8433732353
   56      H      -0.6811119142     1.6237628855     1.3185144556
 ----------------------------------------------------------------

    9   -1510.2904534835      4.05E-09 Convergence criterion met
 Total energy in the final basis set = -1510.29045348
 Final energy is   -1510.29045348353
 **  OPTIMIZATION CONVERGED  **

                    Orbital Energies (a.u.)
 --------------------------------------------------------------

 Alpha MOs
 -- Occupied --
-18.950 -18.933 -18.931 -18.927 -18.896 -18.890 -18.886 -18.876
-18.871 -18.868 -10.117 -10.101 -10.098 -10.094 -10.075 -10.070
-10.064 -10.062 -10.062 -10.060 -10.056 -10.046 -10.043 -10.039
-10.038 -10.036 -10.023 -10.022 -10.020 -10.019  -1.028  -1.014
 -1.007  -1.003  -0.973  -0.969  -0.953  -0.937  -0.933  -0.930
 -0.767  -0.763  -0.731  -0.723  -0.712  -0.707  -0.698  -0.664
 -0.652  -0.619  -0.599  -0.582  -0.549  -0.544  -0.540  -0.536
 -0.516  -0.508  -0.486  -0.477  -0.463  -0.460  -0.457  -0.450
 -0.439  -0.433  -0.429  -0.417  -0.413  -0.410  -0.404  -0.401
 -0.400  -0.387  -0.373  -0.368  -0.363  -0.361  -0.355  -0.351
 -0.346  -0.337  -0.334  -0.333  -0.330  -0.328  -0.325  -0.314
 -0.309  -0.309  -0.304  -0.303  -0.294  -0.289  -0.282  -0.276
 -0.271  -0.258  -0.253  -0.250  -0.246  -0.237  -0.233  -0.192
 -0.175  -0.174  -0.173  -0.169  -0.160  -0.149  -0.148  -0.146
 -0.143

          Ground-State Mulliken Net Atomic Charges

     Atom                 Charge (a.u.)
  ----------------------------------------
      1 O                    -0.220223
      2 C                     0.212431
      3 C                    -0.079902
      4 C                    -0.077244
      5 C                     0.223388
      6 O                    -0.169469
      7 C                    -0.054380
      8 C                    -0.055868
      9 O                    -0.172856
     10 C                     0.214151
     11 C                    -0.079047
     12 C                    -0.078590
     13 C                     0.211705
     14 O                    -0.209277
     15 O                    -0.170098
     16 O                    -0.177573
     17 O                    -0.213940
     18 C                    -0.143913
     19 C                     0.025873
     20 C                    -0.143739
     21 C                    -0.144147
     22 C                     0.024494
     23 O                    -0.186512
     24 H                     0.086859
     25 H                     0.084758
     26 H                     0.082928
     27 H                     0.077994
     28 H                     0.073362
     29 H                     0.078402
     30 H                     0.073223
     31 H                     0.091672
     32 O                    -0.209211
     33 C                    -0.128323
     34 C                     0.025509
     35 C                    -0.143676
     36 C                    -0.144253
     37 C                     0.024361
     38 O                    -0.186959
     39 H                     0.086602
     40 H                     0.087911
     41 H                     0.083386
     42 H                     0.085011
     43 H                     0.078747
     44 H                     0.073939
     45 H                     0.079268
     46 H                     0.073643
     47 H                     0.090770
     48 H                     0.089771
     49 H                     0.089122
     50 H                     0.106352
     51 H                     0.083262
     52 H                     0.085908
     53 H                     0.103816
     54 H                     0.084128
     55 H                     0.106279
     56 H                     0.090174
  ----------------------------------------
  Sum of atomic charges =     0.000000

                    Cartesian Multipole Moments
 -----------------------------------------------------------------
    Charge (ESU x 10^10)
                -0.0000
    Dipole Moment (Debye)
         X      -1.2304      Y       2.3032      Z       0.0019
       Tot       2.6113
    Quadrupole Moments (Debye-Ang)
        XX    -147.5841     XY       7.1709     YY    -155.6541
        XZ      21.5228     YZ       0.0564     ZZ    -167.4899

 Total job time:  110.22s(wall), 5253.77s(cpu)
        *  Thank you very much for using Q-Chem.  Have a nice day.  *
