 Q-Chem 5.0, Q-Chem, Inc., Pleasanton, CA (2017)
 Q-Chem 5.0.1 for Intel X86 EM64T Linux

User input:
--------------------------------------------------------------
$molecule
0  1
O -3.94934 -3.66094 2.70899
C -3.26408 -4.56952 2.26188
C -3.36658 -6.02376 2.66595
C -2.7614 -6.42041 4.02252
C -2.27949 -5.28863 4.90281
O -1.29346 -4.59178 4.26441
C -0.77542 -3.50788 5.04291
C 0.27314 -2.74093 4.24388
O 1.30412 -2.26244 5.12194
C 2.29252 -3.14892 5.39828
C 3.36683 -2.57323 6.28996
C 3.64931 -3.37915 7.56628
C 3.09661 -4.79001 7.59278
O 3.66786 -5.76645 8.05625
O -2.42455 -4.30006 1.22747
O 1.74942 -4.89691 7.42757
O 2.37931 -4.26168 4.8891
C 1.03822 -6.07464 7.5481
C 4.76632 -2.56357 5.64384
C 5.62174 -1.48005 6.29722
C 5.83118 -2.07893 7.67399
C 5.18634 -3.45725 7.47522
O 5.3846 -3.73803 6.11035
H 3.08566 -1.522 6.53382
H 3.27028 -2.86546 8.47689
H 4.74131 -2.42644 4.54059
H 6.59641 -1.47669 5.75797
H 5.19827 -0.45272 6.28749
H 6.92551 -2.16563 7.85473
H 5.34626 -1.52941 8.50988
H 5.62123 -4.18801 8.19167
O -2.73481 -5.01002 6.0071
C -2.21918 -3.0422 0.70071
C -4.82301 -6.48159 2.85454
C -4.92044 -7.99773 2.69172
C -4.25744 -8.46254 3.97171
C -3.98554 -7.11633 4.65184
O -5.05764 -6.30621 4.23124
H -2.88716 -6.6146 1.85186
H -1.90121 -7.1177 3.90959
H -1.81475 -2.36301 1.48159
H -5.53226 -5.97291 2.16515
H -5.99976 -8.26858 2.73394
H -4.47735 -8.39725 1.75417
H -5.00156 -9.04426 4.56029
H -3.32994 -9.06022 3.83779
H -3.87991 -7.26198 5.74926
H -3.17217 -2.63276 0.30264
H -1.48543 -3.11036 -0.12835
H -0.03761 -5.87612 7.36778
H 1.15317 -6.49016 8.57191
H 1.39557 -6.81348 6.79935
H 0.71615 -3.38906 3.45295
H -0.20917 -1.9061 3.69301
H -0.2785 -3.96593 5.92382
H -1.55629 -2.80459 5.41119
$end

$opt
CONSTRAINT
tors           1           2           3           4     -76.057
tors           3           4           5           6     -60.751
tors           4           5           6           7    -179.437
tors           5           6           7           8    -177.472
tors           6           7           8           9    -145.466
tors           7           8           9          10     +84.530
tors           8           9          10          11    +178.190
tors           9          10          11          12    +125.270
tors          11          12          13          14    +140.699
ENDCONSTRAINT
$end

$rem
JOBTYPE                   OPT
METHOD                    B3LYP
DFT_D                     d3_op
BASIS                     STO-3G
GEOM_OPT_MAX_CYCLES       100
GEOM_OPT_TOL_GRADIENT     300
GEOM_OPT_TOL_DISPLACEMENT 1200
GEOM_OPT_TOL_ENERGY       100
SYMMETRY                  False
THRESH                    12
SCF_CONVERGENCE           8
MAX_SUB_FILE_NUM          128
MEM_STATIC                400
MEM_TOTAL                 4000
$end
--------------------------------------------------------------

   15   -1510.1558375849      7.55E-09 Convergence criterion met
 Total energy in the final basis set = -1510.15583758
   14   -1510.2245311068      5.71E-09 Convergence criterion met
 Total energy in the final basis set = -1510.22453111
   14   -1510.2611955588      5.37E-09 Convergence criterion met
 Total energy in the final basis set = -1510.26119556
   13   -1510.2766731107      8.87E-09 Convergence criterion met
 Total energy in the final basis set = -1510.27667311
    2   -1510.2766731106      6.01E-09 Convergence criterion met
 Total energy in the final basis set = -1510.27667311
   13   -1510.2810504170      7.96E-09 Convergence criterion met
 Total energy in the final basis set = -1510.28105042
   13   -1510.2816532206      9.90E-09 Convergence criterion met
 Total energy in the final basis set = -1510.28165322
   13   -1510.2829744607      3.53E-09 Convergence criterion met
   11   -1510.2845139782      9.07E-09 Convergence criterion met
 Total energy in the final basis set = -1510.28451398
   11   -1510.2845786291      8.04E-09 Convergence criterion met
 Total energy in the final basis set = -1510.28457863
   11   -1510.2846511753      7.74E-09 Convergence criterion met
 Total energy in the final basis set = -1510.28465118
   11   -1510.2846891019      5.56E-09 Convergence criterion met
 Total energy in the final basis set = -1510.28468910
   11   -1510.2847066795      4.23E-09 Convergence criterion met
 Total energy in the final basis set = -1510.28470668
   10   -1510.2847090889      7.96E-09 Convergence criterion met
 Total energy in the final basis set = -1510.28470909

             Standard Nuclear Orientation (Angstroms)
    I     Atom           X                Y                Z
 ----------------------------------------------------------------
    1      O      -3.9911138564     1.8179460174     1.1808220101
    2      C      -3.8824893032     1.5552319031    -0.0363342047
    3      C      -4.3299510983     0.2537760231    -0.7865160047
    4      C      -3.3573217509    -0.9807310920    -0.5502429677
    5      C      -2.2598219881    -0.7034553249     0.5386173353
    6      O      -1.4617882637     0.4001672988     0.0993828000
    7      C      -0.4024692037     0.6843229884     1.0982431730
    8      C       0.4028797334     1.9402045296     0.6043347024
    9      O       1.8218901393     1.7704669087     0.9992476861
   10      C       2.5025502324     0.9803088130     0.0101538701
   11      C       4.0012232474     0.8599892304     0.4315975917
   12      C       4.5070619378    -0.6403499399     0.5324307006
   13      C       3.4293355352    -1.7646282518     0.3106640176
   14      O       3.6085509254    -2.8340380337    -0.3106004932
   15      O      -3.3485112150     2.4635067863    -1.0090319886
   16      O       2.2187047971    -1.4552575183     1.0191332805
   17      O       1.9652000209     0.5469338385    -1.0316627834
   18      C       1.2387130897    -2.5546340292     0.8239386782
   19      C       4.9462480887     1.4009852681    -0.7296796018
   20      C       6.4081838075     1.5653651754    -0.1516645276
   21      C       6.8901348535     0.0673162806    -0.1065739152
   22      C       5.5982581770    -0.6796875307    -0.6172501228
   23      O       5.0517149762     0.2410465821    -1.6415621975
   24      H       4.1465679841     1.4054160274     1.3801276699
   25      H       4.9670792193    -0.8198875327     1.5226468965
   26      H       4.5487596123     2.2830294702    -1.2682904154
   27      H       7.0266921501     2.1705861391    -0.8333735090
   28      H       6.4068185277     2.0422734530     0.8414956663
   29      H       7.7313780524    -0.1060088326    -0.7962875388
   30      H       7.1887054242    -0.2548636430     0.9038739612
   31      H       5.7540296184    -1.6897887906    -1.0442482864
   32      O      -2.0460113871    -1.3487892402     1.5873949702
   33      C      -2.9008412753     3.7074491636    -0.3432569423
   34      C      -5.6981850530    -0.3407190805    -0.2372936376
   35      C      -6.2788844704    -1.3109332276    -1.3399119702
   36      C      -5.3021824835    -2.5390200931    -1.2039251173
   37      C      -4.3770321481    -2.0656891037    -0.0147455809
   38      O      -5.2811897159    -1.2625363640     0.8423222008
   39      H      -4.3961747012     0.4931628549    -1.8623435540
   40      H      -2.8594848188    -1.2826139852    -1.4897856777
   41      H      -2.1599014903     3.4982072079     0.4540584725
   42      H      -6.4058522162     0.4163514612     0.1525453604
   43      H      -7.3155952638    -1.5920677600    -1.0950294499
   44      H      -6.2619380244    -0.8607232255    -2.3452848716
   45      H      -5.8430183272    -3.4589027089    -0.9309956667
   46      H      -4.7272306428    -2.7274933840    -2.1248721637
   47      H      -3.9013623491    -2.8707863813     0.5783050844
   48      H      -3.7517764694     4.2595479053     0.1062126709
   49      H      -2.4338604501     4.3265855782    -1.1310580928
   50      H       0.3694425405    -2.3205904897     1.4677960564
   51      H       1.6677275801    -3.5350242166     1.1123594594
   52      H       0.9080032059    -2.6104789731    -0.2332933236
   53      H       0.3070061753     2.0185326246    -0.5001888802
   54      H       0.0492690647     2.8718157047     1.0869352372
   55      H       0.3045558427    -0.1688326026     1.1758533859
   56      H      -0.8479084713     0.8566241231     2.1010558426
 ----------------------------------------------------------------

    9   -1510.2847087900      7.42E-09 Convergence criterion met
 Total energy in the final basis set = -1510.28470879
 Final energy is   -1510.28470878998
 **  OPTIMIZATION CONVERGED  **

                    Orbital Energies (a.u.)
 --------------------------------------------------------------

 Alpha MOs
 -- Occupied --
-18.938 -18.936 -18.933 -18.932 -18.889 -18.886 -18.879 -18.879
-18.873 -18.869 -10.102 -10.101 -10.099 -10.096 -10.073 -10.069
-10.064 -10.063 -10.062 -10.059 -10.059 -10.057 -10.041 -10.039
-10.039 -10.035 -10.022 -10.021 -10.020 -10.019  -1.018  -1.015
 -1.009  -1.006  -0.972  -0.969  -0.941  -0.938  -0.935  -0.933
 -0.765  -0.763  -0.728  -0.723  -0.712  -0.705  -0.697  -0.663
 -0.663  -0.618  -0.597  -0.584  -0.547  -0.546  -0.539  -0.537
 -0.514  -0.509  -0.486  -0.473  -0.463  -0.455  -0.453  -0.447
 -0.445  -0.432  -0.429  -0.415  -0.413  -0.411  -0.408  -0.400
 -0.395  -0.383  -0.374  -0.367  -0.364  -0.357  -0.354  -0.349
 -0.347  -0.340  -0.337  -0.332  -0.331  -0.329  -0.327  -0.312
 -0.309  -0.306  -0.305  -0.297  -0.293  -0.287  -0.283  -0.274
 -0.274  -0.257  -0.255  -0.253  -0.250  -0.235  -0.233  -0.183
 -0.180  -0.175  -0.175  -0.159  -0.158  -0.152  -0.147  -0.145
 -0.143

          Ground-State Mulliken Net Atomic Charges

     Atom                 Charge (a.u.)
  ----------------------------------------
      1 O                    -0.216725
      2 C                     0.209216
      3 C                    -0.079908
      4 C                    -0.077738
      5 C                     0.212217
      6 O                    -0.172746
      7 C                    -0.052833
      8 C                    -0.051279
      9 O                    -0.172129
     10 C                     0.211216
     11 C                    -0.079812
     12 C                    -0.078332
     13 C                     0.212992
     14 O                    -0.209426
     15 O                    -0.168128
     16 O                    -0.173331
     17 O                    -0.214023
     18 C                    -0.132398
     19 C                     0.026312
     20 C                    -0.144136
     21 C                    -0.143698
     22 C                     0.024285
     23 O                    -0.186505
     24 H                     0.087005
     25 H                     0.085182
     26 H                     0.083011
     27 H                     0.078379
     28 H                     0.073752
     29 H                     0.078929
     30 H                     0.073481
     31 H                     0.092185
     32 O                    -0.211586
     33 C                    -0.127994
     34 C                     0.025411
     35 C                    -0.143256
     36 C                    -0.144635
     37 C                     0.024353
     38 O                    -0.186846
     39 H                     0.086160
     40 H                     0.087126
     41 H                     0.085717
     42 H                     0.084587
     43 H                     0.078011
     44 H                     0.073517
     45 H                     0.078321
     46 H                     0.073315
     47 H                     0.089097
     48 H                     0.087377
     49 H                     0.089472
     50 H                     0.097579
     51 H                     0.091820
     52 H                     0.090989
     53 H                     0.101760
     54 H                     0.086854
     55 H                     0.097150
     56 H                     0.090684
  ----------------------------------------
  Sum of atomic charges =     0.000000

                    Cartesian Multipole Moments
 -----------------------------------------------------------------
    Charge (ESU x 10^10)
                 0.0000
    Dipole Moment (Debye)
         X       0.8918      Y       1.5745      Z      -0.3492
       Tot       1.8429
    Quadrupole Moments (Debye-Ang)
        XX    -148.5949     XY       5.2436     YY    -152.4926
        XZ      20.7089     YZ       0.3493     ZZ    -168.1588

 Total job time:  50.89s(wall), 2416.78s(cpu)
        *  Thank you very much for using Q-Chem.  Have a nice day.  *
