 Q-Chem 5.0, Q-Chem, Inc., Pleasanton, CA (2017)
 Q-Chem 5.0.1 for Intel X86 EM64T Linux

User input:
--------------------------------------------------------------
$molecule
0  1
O -3.9751487511 1.8883518137 1.0808000868
C -3.8770559308 1.5597805021 -0.1211427417
C -4.3533579155 0.2297138265 -0.8004527485
C -3.4289957941 -1.0196626073 -0.4674838593
C -2.3441006308 -0.7120464134 0.6256598834
O -1.5115863257 0.3490945107 0.1452477128
C -0.4618215728 0.6617447233 1.1463207381
C 0.4037965189 1.8388592898 0.5682239034
O 1.8105611846 1.6653648584 1.000650706
C 2.5371754724 0.9234963532 0.0066120195
C 4.0214795932 0.8060164038 0.482654272
C 4.5597786919 -0.6853214766 0.5082730768
C 3.4996435343 -1.8010652527 0.1923770537
O 3.689596573 -2.8322979991 -0.4866854852
O -3.3286568255 2.4041678963 -1.1423276147
O 2.2822262561 -1.5251276532 0.901388475
O 2.0468516606 0.5323215074 -1.0745105643
C 1.2789996623 -2.5764508514 0.6025463553
C 4.9990929667 1.4422406105 -0.5996168155
C 6.4348212362 1.5912267627 0.0441912981
C 6.9456954187 0.1024804685 0.0039580457
C 5.6880525853 -0.6299607277 -0.6044573681
O 5.161607456 0.3493448465 -1.5839870753
H 4.112356154 1.2920580667 1.4693973771
H 4.9920374561 -0.9161299457 1.5003426022
H 4.6060206267 2.3525632561 -1.0925838588
H 7.0655686996 2.2533783755 -0.570042385
H 6.3871025624 1.9978686985 1.0671266359
H 7.8148314576 -0.0069702765 -0.6639523923
H 7.2131574961 -0.2842893234 1.0001508569
H 5.8793942761 -1.605753385 -1.0924085688
O -2.1699642209 -1.3018987307 1.7130631209
C -2.8541297343 3.6728841927 -0.5453739287
C -5.7513410568 -0.2818653213 -0.2432235523
C -6.3460106438 -1.3027091092 -1.2920172658
C -5.4170951404 -2.5519920157 -1.055493038
C -4.4957836585 -2.0325707792 0.11648571
O -5.3852419072 -1.1441790375 0.9020277525
H -4.3912859275 0.4042514481 -1.8899770207
H -2.9254831425 -1.3981403957 -1.3757995301
H -2.0968235359 3.4926010966 0.2436933001
H -6.4395653182 0.5218979546 0.082695641
H -7.3965611314 -1.5306195797 -1.0508859714
H -6.2945908626 -0.9203653686 -2.3240440472
H -5.995843462 -3.4310511071 -0.7306199917
H -4.8352303018 -2.8246095744 -1.9506057196
H -4.0585491593 -2.8121813855 0.7700426032
H -3.6889372919 4.2542812393 -0.1028707478
H -2.3989577938 4.2495665305 -1.3713962519
H 0.4460753705 -2.428574637 1.3151971121
H 1.7051865082 -3.591742893 0.7281621977
H 0.8985986068 -2.4774134616 -0.4348874422
H 0.3407709925 1.8150574903 -0.5415257108
H 0.0656463636 2.8208194298 0.9529623047
H 0.1979573241 -0.2169241217 1.3098563926
H -0.9202710386 0.9337944969 2.1208662229
$end

$rem
JOBTYPE                   OPT
METHOD                    B3LYP
DFT_D                     d3_op
BASIS                     STO-3G
GEOM_OPT_MAX_CYCLES       100
GEOM_OPT_TOL_GRADIENT     300
GEOM_OPT_TOL_DISPLACEMENT 1200
GEOM_OPT_TOL_ENERGY       100
SYMMETRY                  False
THRESH                    12
SCF_CONVERGENCE           8
MAX_SUB_FILE_NUM          128
MEM_STATIC                400
MEM_TOTAL                 4000
$end
--------------------------------------------------------------

   16   -1510.2847756105      5.56E-09 Convergence criterion met
 Total energy in the final basis set = -1510.28477561
   14   -1510.2855135911      9.84E-09 Convergence criterion met
 Total energy in the final basis set = -1510.28551359
   14   -1510.2863644140      6.47E-09 Convergence criterion met
 Total energy in the final basis set = -1510.28636441
   14   -1510.2844275084      9.33E-09 Convergence criterion met
 Total energy in the final basis set = -1510.28442751
   15   -1510.2861049094      2.31E-09 Convergence criterion met
 Total energy in the final basis set = -1510.28610491
   14   -1510.2860465785      2.22E-09 Convergence criterion met
 Total energy in the final basis set = -1510.28604658
   15   -1510.2849523756      3.50E-09 Convergence criterion met
 Total energy in the final basis set = -1510.28495238
   14   -1510.2867487059      7.98E-09 Convergence criterion met
   12   -1510.2904661303      7.47E-09 Convergence criterion met
 Total energy in the final basis set = -1510.29046613
   12   -1510.2904839087      6.52E-09 Convergence criterion met
 Total energy in the final basis set = -1510.29048391
   12   -1510.2904756839      2.85E-09 Convergence criterion met
 Total energy in the final basis set = -1510.29047568
   11   -1510.2904901862      8.09E-09 Convergence criterion met
 Total energy in the final basis set = -1510.29049019
   11   -1510.2904985339      4.27E-09 Convergence criterion met
 Total energy in the final basis set = -1510.29049853
   10   -1510.2904944162      8.14E-09 Convergence criterion met
 Total energy in the final basis set = -1510.29049442

             Standard Nuclear Orientation (Angstroms)
    I     Atom           X                Y                Z
 ----------------------------------------------------------------
    1      O      -3.6622367479     1.6209827243     1.6151209698
    2      C      -3.9238244696     1.6137259708     0.3930244710
    3      C      -4.5613864701     0.4550551693    -0.4535398144
    4      C      -3.5819537930    -0.7635364649    -0.7349592983
    5      C      -2.1766679316    -0.6313178133    -0.0508865430
    6      O      -1.6941299598     0.6960958797    -0.2620260912
    7      C      -0.4396108856     0.9465153183     0.4912388131
    8      C       0.5844377568     1.6578899881    -0.4574152661
    9      O       1.9129494465     1.6430277473     0.1999043059
   10      C       2.8183495493     0.8105972431    -0.5459422665
   11      C       4.1464965708     0.6928442199     0.2674085853
   12      C       4.5229777161    -0.8070996295     0.6267203493
   13      C       3.5117039770    -1.8799185872     0.0814669449
   14      O       3.7875410895    -2.8829959987    -0.6101942998
   15      O      -3.7505687573     2.7429528522    -0.4760283477
   16      O       2.1911011408    -1.5452695512     0.5226662458
   17      O       2.5510555193     0.3102649040    -1.6607262809
   18      C       1.2159397225    -2.5172549471    -0.0312520688
   19      C       5.4125146512     1.1096909467    -0.6008814081
   20      C       6.6307349955     1.3268861265     0.3826036607
   21      C       7.0082824904    -0.1610703223     0.7330299478
   22      C       5.9242895388    -0.9525726229    -0.0977256964
   23      O       5.7594018441    -0.1338585915    -1.3218020990
   24      H       4.0481757865     1.3126336873     1.1754400546
   25      H       4.6088912308    -0.9329156926     1.7218943014
   26      H       5.2281451221     1.9346316315    -1.3160945544
   27      H       7.4553503994     1.8433527950    -0.1340102733
   28      H       6.3447413082     1.9142028976     1.2696830102
   29      H       8.0218761322    -0.4133790133     0.3831004530
   30      H       6.9431092525    -0.3741090123     1.8120294628
   31      H       6.1798161527    -1.9966722871    -0.3642271560
   32      O      -1.5598205518    -1.5267393375     0.5699247018
   33      C      -3.1202039846     3.8575131707     0.2656580292
   34      C      -5.7241891581    -0.2870428142     0.3371186956
   35      C      -6.5880372616    -1.1028673425    -0.7037588215
   36      C      -5.6209268906    -2.3031626147    -1.0255969484
   37      C      -4.3934494198    -1.9642830536    -0.0939346188
   38      O      -5.0152166918    -1.3411748414     1.0974555362
   39      H      -4.9228614287     0.8906423023    -1.4013691335
   40      H      -3.4261856538    -0.9005845148    -1.8215745116
   41      H      -2.0822677025     3.6067551756     0.5660067025
   42      H      -6.2982333703     0.3639447085     1.0244898916
   43      H      -7.5220371032    -1.4528081610    -0.2361168826
   44      H      -6.8402637825    -0.5069170766    -1.5954809657
   45      H      -6.0655905879    -3.2690875972    -0.7382743463
   46      H      -5.3358638850    -2.3480059962    -2.0888771161
   47      H      -3.7578342478    -2.8213569794     0.2030001720
   48      H      -3.6946686797     4.1213151572     1.1768703622
   49      H      -3.1039190340     4.7185907317    -0.4274760814
   50      H       0.2074730163    -2.1691859017     0.2828812271
   51      H       1.4025016959    -3.5376827668     0.3594912731
   52      H       1.2755374495    -2.5492543410    -1.1377353836
   53      H       0.6661888576     1.1113988491    -1.4232813471
   54      H       0.2896239181     2.7110949182    -0.6431671615
   55      H      -0.0212197692    -0.0151770839     0.8550006002
   56      H      -0.6833903706     1.5851327768     1.3671645142
 ----------------------------------------------------------------

    9   -1510.2904944329      3.84E-09 Convergence criterion met
 Total energy in the final basis set = -1510.29049443
 Final energy is   -1510.29049443287
 **  OPTIMIZATION CONVERGED  **

                    Orbital Energies (a.u.)
 --------------------------------------------------------------

 Alpha MOs
 -- Occupied --
-18.950 -18.933 -18.931 -18.927 -18.896 -18.890 -18.886 -18.876
-18.872 -18.868 -10.117 -10.101 -10.098 -10.094 -10.075 -10.070
-10.064 -10.062 -10.062 -10.060 -10.056 -10.046 -10.043 -10.039
-10.038 -10.036 -10.023 -10.022 -10.020 -10.019  -1.028  -1.014
 -1.006  -1.004  -0.973  -0.969  -0.953  -0.938  -0.933  -0.930
 -0.767  -0.763  -0.731  -0.723  -0.712  -0.707  -0.698  -0.664
 -0.652  -0.619  -0.599  -0.582  -0.549  -0.544  -0.540  -0.536
 -0.516  -0.508  -0.486  -0.477  -0.463  -0.460  -0.457  -0.450
 -0.439  -0.433  -0.429  -0.417  -0.413  -0.410  -0.404  -0.401
 -0.401  -0.387  -0.373  -0.368  -0.363  -0.361  -0.355  -0.351
 -0.346  -0.337  -0.334  -0.333  -0.330  -0.328  -0.326  -0.314
 -0.309  -0.309  -0.304  -0.303  -0.294  -0.289  -0.283  -0.276
 -0.271  -0.258  -0.253  -0.250  -0.246  -0.237  -0.233  -0.192
 -0.175  -0.174  -0.173  -0.169  -0.160  -0.149  -0.148  -0.146
 -0.143

          Ground-State Mulliken Net Atomic Charges

     Atom                 Charge (a.u.)
  ----------------------------------------
      1 O                    -0.220240
      2 C                     0.212526
      3 C                    -0.079922
      4 C                    -0.077248
      5 C                     0.223369
      6 O                    -0.169436
      7 C                    -0.054332
      8 C                    -0.055864
      9 O                    -0.172851
     10 C                     0.214152
     11 C                    -0.079071
     12 C                    -0.078593
     13 C                     0.211698
     14 O                    -0.209285
     15 O                    -0.170160
     16 O                    -0.177533
     17 O                    -0.213944
     18 C                    -0.143875
     19 C                     0.025909
     20 C                    -0.143746
     21 C                    -0.144152
     22 C                     0.024506
     23 O                    -0.186543
     24 H                     0.086876
     25 H                     0.084766
     26 H                     0.082937
     27 H                     0.078005
     28 H                     0.073365
     29 H                     0.078413
     30 H                     0.073225
     31 H                     0.091689
     32 O                    -0.209284
     33 C                    -0.128315
     34 C                     0.025511
     35 C                    -0.143671
     36 C                    -0.144242
     37 C                     0.024343
     38 O                    -0.186985
     39 H                     0.086601
     40 H                     0.087900
     41 H                     0.083323
     42 H                     0.085030
     43 H                     0.078738
     44 H                     0.073931
     45 H                     0.079256
     46 H                     0.073640
     47 H                     0.090740
     48 H                     0.089737
     49 H                     0.089088
     50 H                     0.106329
     51 H                     0.083363
     52 H                     0.085897
     53 H                     0.103880
     54 H                     0.084113
     55 H                     0.106220
     56 H                     0.090215
  ----------------------------------------
  Sum of atomic charges =     0.000000

                    Cartesian Multipole Moments
 -----------------------------------------------------------------
    Charge (ESU x 10^10)
                -0.0000
    Dipole Moment (Debye)
         X      -1.1906      Y       2.2892      Z       0.0309
       Tot       2.5805
    Quadrupole Moments (Debye-Ang)
        XX    -147.6205     XY       6.8291     YY    -155.6996
        XZ      21.6587     YZ       0.2173     ZZ    -167.5211

 Total job time:  101.99s(wall), 4855.67s(cpu)
        *  Thank you very much for using Q-Chem.  Have a nice day.  *
