 Q-Chem 5.0, Q-Chem, Inc., Pleasanton, CA (2017)
 Q-Chem 5.0.1 for Intel X86 EM64T Linux

User input:
--------------------------------------------------------------
$molecule
0  1
O -3.94934 -3.66094 2.70899
C -3.26408 -4.56952 2.26188
C -3.36658 -6.02376 2.66595
C -2.79805 -6.41284 4.04045
C -2.35119 -5.27547 4.93196
O -1.3659 -4.56029 4.31296
C -0.88029 -3.46991 5.10322
C 0.20314 -2.71166 4.34338
O 1.19173 -2.21953 5.26174
C 2.25348 -3.03737 5.46901
C 3.27691 -2.4461 6.40904
C 3.65914 -3.34195 7.59632
C 3.25337 -4.79772 7.48319
O 3.92795 -5.7516 7.84323
O -2.4182 -4.29834 1.23312
O 1.92166 -5.02084 7.30753
O 2.44665 -4.08527 4.86104
C 1.32782 -6.26642 7.29523
C 4.65905 -2.23196 5.75991
C 5.41109 -1.1363 6.51267
C 5.69935 -1.84221 7.82283
C 5.19453 -3.25307 7.49152
O 5.39973 -3.37723 6.10476
H 2.89677 -1.45668 6.7556
H 3.24241 -2.96305 8.55522
H 4.60408 -1.99072 4.67576
H 6.37256 -0.98227 5.97171
H 4.88728 -0.16074 6.60607
H 6.79921 -1.83351 7.99006
H 5.17255 -1.4297 8.71062
H 5.7115 -4.00237 8.13007
O -2.83701 -5.00204 6.02445
C -2.21009 -3.03964 0.70942
C -4.82405 -6.49296 2.8132
C -4.90447 -8.01002 2.6499
C -4.27407 -8.46794 3.94881
C -4.03352 -7.11882 4.63506
O -5.09974 -6.31815 4.18246
H -2.85844 -6.61254 1.86792
H -1.92791 -7.10132 3.9525
H -1.81069 -2.36141 1.49373
H -5.51719 -5.99067 2.10306
H -5.98239 -8.28934 2.66218
H -4.43211 -8.40734 1.72581
H -5.02931 -9.05614 4.51638
H -3.33762 -9.05707 3.84192
H -3.95836 -7.26234 5.73525
H -3.16083 -2.63002 0.30615
H -1.47131 -3.10634 -0.11529
H 0.23754 -6.14894 7.12773
H 1.4863 -6.77767 8.26861
H 1.75098 -6.88173 6.47276
H 0.66146 -3.38956 3.58814
H -0.23676 -1.89088 3.73878
H -0.4079 -3.92437 6.00354
H -1.67539 -2.76684 5.43925
$end

$opt
CONSTRAINT
tors           1           2           3           4     -74.319
tors           3           4           5           6     -59.885
tors           4           5           6           7    -179.437
tors           5           6           7           8    -179.395
tors           6           7           8           9    -145.809
tors           7           8           9          10     +92.274
tors           8           9          10          11    +178.190
tors           9          10          11          12    +126.828
tors          11          12          13          14    +140.699
ENDCONSTRAINT
$end

$rem
JOBTYPE                   OPT
METHOD                    B3LYP
DFT_D                     d3_op
BASIS                     STO-3G
GEOM_OPT_MAX_CYCLES       100
GEOM_OPT_TOL_GRADIENT     300
GEOM_OPT_TOL_DISPLACEMENT 1200
GEOM_OPT_TOL_ENERGY       100
SYMMETRY                  False
THRESH                    12
SCF_CONVERGENCE           8
MAX_SUB_FILE_NUM          128
MEM_STATIC                400
MEM_TOTAL                 4000
$end
--------------------------------------------------------------

   15   -1510.1552441663      6.52E-09 Convergence criterion met
 Total energy in the final basis set = -1510.15524417
   14   -1510.2238954472      5.86E-09 Convergence criterion met
 Total energy in the final basis set = -1510.22389545
   14   -1510.2605094330      5.57E-09 Convergence criterion met
 Total energy in the final basis set = -1510.26050943
   14   -1510.2761204410      4.23E-09 Convergence criterion met
 Total energy in the final basis set = -1510.27612044
   14   -1510.2807799519      4.04E-09 Convergence criterion met
 Total energy in the final basis set = -1510.28077995
    2   -1510.2807799519      1.44E-09 Convergence criterion met
 Total energy in the final basis set = -1510.28077995
   13   -1510.2822050579      2.36E-09 Convergence criterion met
 Total energy in the final basis set = -1510.28220506
   12   -1510.2829778776      9.71E-09 Convergence criterion met
   11   -1510.2846204948      9.08E-09 Convergence criterion met
 Total energy in the final basis set = -1510.28462049
   11   -1510.2846618463      7.97E-09 Convergence criterion met
 Total energy in the final basis set = -1510.28466185
   11   -1510.2846958395      5.45E-09 Convergence criterion met
 Total energy in the final basis set = -1510.28469584
   11   -1510.2847236343      5.42E-09 Convergence criterion met
 Total energy in the final basis set = -1510.28472363
    9   -1510.2847306276      8.55E-09 Convergence criterion met
 Total energy in the final basis set = -1510.28473063
    9   -1510.2847328934      9.14E-09 Convergence criterion met
 Total energy in the final basis set = -1510.28473289

             Standard Nuclear Orientation (Angstroms)
    I     Atom           X                Y                Z
 ----------------------------------------------------------------
    1      O      -3.9751487511     1.8883518137     1.0808000868
    2      C      -3.8770559308     1.5597805021    -0.1211427417
    3      C      -4.3533579155     0.2297138265    -0.8004527485
    4      C      -3.4289957941    -1.0196626073    -0.4674838593
    5      C      -2.3441006308    -0.7120464134     0.6256598834
    6      O      -1.5115863257     0.3490945107     0.1452477128
    7      C      -0.4618215728     0.6617447233     1.1463207381
    8      C       0.4037965189     1.8388592898     0.5682239034
    9      O       1.8105611846     1.6653648584     1.0006507060
   10      C       2.5371754724     0.9234963532     0.0066120195
   11      C       4.0214795932     0.8060164038     0.4826542720
   12      C       4.5597786919    -0.6853214766     0.5082730768
   13      C       3.4996435343    -1.8010652527     0.1923770537
   14      O       3.6895965730    -2.8322979991    -0.4866854852
   15      O      -3.3286568255     2.4041678963    -1.1423276147
   16      O       2.2822262561    -1.5251276532     0.9013884750
   17      O       2.0468516606     0.5323215074    -1.0745105643
   18      C       1.2789996623    -2.5764508514     0.6025463553
   19      C       4.9990929667     1.4422406105    -0.5996168155
   20      C       6.4348212362     1.5912267627     0.0441912981
   21      C       6.9456954187     0.1024804685     0.0039580457
   22      C       5.6880525853    -0.6299607277    -0.6044573681
   23      O       5.1616074560     0.3493448465    -1.5839870753
   24      H       4.1123561540     1.2920580667     1.4693973771
   25      H       4.9920374561    -0.9161299457     1.5003426022
   26      H       4.6060206267     2.3525632561    -1.0925838588
   27      H       7.0655686996     2.2533783755    -0.5700423850
   28      H       6.3871025624     1.9978686985     1.0671266359
   29      H       7.8148314576    -0.0069702765    -0.6639523923
   30      H       7.2131574961    -0.2842893234     1.0001508569
   31      H       5.8793942761    -1.6057533850    -1.0924085688
   32      O      -2.1699642209    -1.3018987307     1.7130631209
   33      C      -2.8541297343     3.6728841927    -0.5453739287
   34      C      -5.7513410568    -0.2818653213    -0.2432235523
   35      C      -6.3460106438    -1.3027091092    -1.2920172658
   36      C      -5.4170951404    -2.5519920157    -1.0554930380
   37      C      -4.4957836585    -2.0325707792     0.1164857100
   38      O      -5.3852419072    -1.1441790375     0.9020277525
   39      H      -4.3912859275     0.4042514481    -1.8899770207
   40      H      -2.9254831425    -1.3981403957    -1.3757995301
   41      H      -2.0968235359     3.4926010966     0.2436933001
   42      H      -6.4395653182     0.5218979546     0.0826956410
   43      H      -7.3965611314    -1.5306195797    -1.0508859714
   44      H      -6.2945908626    -0.9203653686    -2.3240440472
   45      H      -5.9958434620    -3.4310511071    -0.7306199917
   46      H      -4.8352303018    -2.8246095744    -1.9506057196
   47      H      -4.0585491593    -2.8121813855     0.7700426032
   48      H      -3.6889372919     4.2542812393    -0.1028707478
   49      H      -2.3989577938     4.2495665305    -1.3713962519
   50      H       0.4460753705    -2.4285746370     1.3151971121
   51      H       1.7051865082    -3.5917428930     0.7281621977
   52      H       0.8985986068    -2.4774134616    -0.4348874422
   53      H       0.3407709925     1.8150574903    -0.5415257108
   54      H       0.0656463636     2.8208194298     0.9529623047
   55      H       0.1979573241    -0.2169241217     1.3098563926
   56      H      -0.9202710386     0.9337944969     2.1208662229
 ----------------------------------------------------------------

    9   -1510.2847333986      4.30E-09 Convergence criterion met
 Total energy in the final basis set = -1510.28473340
 Final energy is   -1510.28473339857
 **  OPTIMIZATION CONVERGED  **

                    Orbital Energies (a.u.)
 --------------------------------------------------------------

 Alpha MOs
 -- Occupied --
-18.938 -18.936 -18.933 -18.932 -18.889 -18.886 -18.880 -18.879
-18.873 -18.869 -10.103 -10.102 -10.100 -10.096 -10.072 -10.071
-10.065 -10.064 -10.062 -10.059 -10.059 -10.057 -10.041 -10.039
-10.039 -10.035 -10.022 -10.021 -10.020 -10.019  -1.018  -1.015
 -1.009  -1.006  -0.972  -0.969  -0.941  -0.939  -0.935  -0.932
 -0.766  -0.763  -0.729  -0.723  -0.712  -0.705  -0.698  -0.664
 -0.663  -0.618  -0.597  -0.583  -0.547  -0.546  -0.539  -0.537
 -0.514  -0.510  -0.487  -0.473  -0.463  -0.455  -0.454  -0.448
 -0.445  -0.432  -0.430  -0.415  -0.413  -0.411  -0.409  -0.401
 -0.396  -0.383  -0.376  -0.367  -0.364  -0.357  -0.354  -0.349
 -0.347  -0.342  -0.337  -0.332  -0.331  -0.329  -0.327  -0.312
 -0.309  -0.307  -0.306  -0.297  -0.293  -0.287  -0.284  -0.274
 -0.273  -0.256  -0.256  -0.253  -0.250  -0.235  -0.233  -0.182
 -0.181  -0.175  -0.174  -0.160  -0.158  -0.152  -0.147  -0.145
 -0.143

          Ground-State Mulliken Net Atomic Charges

     Atom                 Charge (a.u.)
  ----------------------------------------
      1 O                    -0.217025
      2 C                     0.209491
      3 C                    -0.079941
      4 C                    -0.077875
      5 C                     0.211856
      6 O                    -0.173600
      7 C                    -0.051071
      8 C                    -0.052852
      9 O                    -0.172530
     10 C                     0.212595
     11 C                    -0.079273
     12 C                    -0.078486
     13 C                     0.213847
     14 O                    -0.209055
     15 O                    -0.168310
     16 O                    -0.173177
     17 O                    -0.214862
     18 C                    -0.131705
     19 C                     0.026083
     20 C                    -0.144143
     21 C                    -0.143580
     22 C                     0.024340
     23 O                    -0.186426
     24 H                     0.087226
     25 H                     0.085337
     26 H                     0.082978
     27 H                     0.078427
     28 H                     0.073847
     29 H                     0.078881
     30 H                     0.073500
     31 H                     0.091799
     32 O                    -0.210090
     33 C                    -0.127952
     34 C                     0.025418
     35 C                    -0.143245
     36 C                    -0.144703
     37 C                     0.024332
     38 O                    -0.186803
     39 H                     0.086168
     40 H                     0.086495
     41 H                     0.085363
     42 H                     0.084472
     43 H                     0.078055
     44 H                     0.073547
     45 H                     0.078368
     46 H                     0.073276
     47 H                     0.089217
     48 H                     0.087627
     49 H                     0.089637
     50 H                     0.094207
     51 H                     0.093707
     52 H                     0.090917
     53 H                     0.103923
     54 H                     0.086000
     55 H                     0.094312
     56 H                     0.091452
  ----------------------------------------
  Sum of atomic charges =     0.000000

                    Cartesian Multipole Moments
 -----------------------------------------------------------------
    Charge (ESU x 10^10)
                 0.0000
    Dipole Moment (Debye)
         X       0.8429      Y       1.2939      Z      -0.3204
       Tot       1.5771
    Quadrupole Moments (Debye-Ang)
        XX    -149.5430     XY       5.6949     YY    -152.0862
        XZ      21.8614     YZ       0.0074     ZZ    -168.9570

 Total job time:  53.44s(wall), 2540.20s(cpu)
        *  Thank you very much for using Q-Chem.  Have a nice day.  *
