 Q-Chem 5.0, Q-Chem, Inc., Pleasanton, CA (2017)
 Q-Chem 5.0.1 for Intel X86 EM64T Linux

User input:
--------------------------------------------------------------
$molecule
0  1
O -3.94934 -3.66094 2.70899
C -3.26408 -4.56952 2.26188
C -3.36658 -6.02376 2.66595
C -2.76326 -6.42002 4.02346
C -2.28313 -5.28794 4.90435
O -1.30986 -4.57906 4.25964
C -0.79417 -3.49406 5.03816
C 0.27364 -2.74257 4.25002
O 1.30444 -2.28257 5.13813
C 2.34806 -3.13146 5.30954
C 3.46402 -2.53326 6.1326
C 3.90541 -3.37861 7.33627
C 3.43801 -4.82022 7.33824
O 4.07751 -5.77211 7.76193
O -2.42433 -4.3 1.22767
O 2.0907 -4.99517 7.24264
O 2.45741 -4.21219 4.73892
C 1.44372 -6.20922 7.35408
C 4.795 -2.41204 5.36466
C 5.64929 -1.31382 5.99453
C 6.01886 -1.96595 7.31186
C 5.42926 -3.36671 7.09974
O 5.51377 -3.57056 5.70987
H 3.14911 -1.5122 6.45155
H 3.59303 -2.93189 8.30556
H 4.66026 -2.22346 4.27702
H 6.5674 -1.22716 5.36979
H 5.17189 -0.31391 6.07888
H 7.12843 -2.00104 7.38541
H 5.58906 -1.48512 8.21733
H 5.9669 -4.10542 7.73361
O -2.73641 -5.01306 6.01039
C -2.21862 -3.04204 0.70125
C -4.82296 -6.48265 2.85295
C -4.91917 -7.99875 2.68918
C -4.25646 -8.46392 3.96925
C -3.98693 -7.118 4.65095
O -5.05927 -6.30854 4.22962
H -2.88593 -6.61458 1.85255
H -1.90113 -7.1148 3.91003
H -1.81417 -2.36315 1.48238
H -5.53193 -5.97407 2.16321
H -5.99839 -8.27013 2.73085
H -4.4756 -8.3977 1.75163
H -5.00005 -9.04763 4.55651
H -3.32777 -9.05978 3.83537
H -3.8823 -7.26428 5.74836
H -3.17147 -2.63231 0.30314
H -1.48476 -3.11014 -0.12772
H 0.3526 -6.05398 7.22846
H 1.62766 -6.65286 8.35573
H 1.79888 -6.90364 6.56301
H 0.69664 -3.41207 3.46658
H -0.17558 -1.90416 3.67728
H -0.3016 -3.9544 5.92452
H -1.57415 -2.78577 5.39792
$end

$opt
CONSTRAINT
tors           1           2           3           4     -75.968
tors           3           4           5           6     -59.885
tors           4           5           6           7    -179.437
tors           5           6           7           8    -179.395
tors           6           7           8           9    -144.683
tors           7           8           9          10     +91.251
tors           8           9          10          11    +173.833
tors           9          10          11          12    +126.828
tors          11          12          13          14    +144.617
ENDCONSTRAINT
$end

$rem
JOBTYPE                   OPT
METHOD                    B3LYP
DFT_D                     d3_op
BASIS                     STO-3G
GEOM_OPT_MAX_CYCLES       100
GEOM_OPT_TOL_GRADIENT     300
GEOM_OPT_TOL_DISPLACEMENT 1200
GEOM_OPT_TOL_ENERGY       100
SYMMETRY                  False
THRESH                    12
SCF_CONVERGENCE           8
MAX_SUB_FILE_NUM          128
MEM_STATIC                400
MEM_TOTAL                 4000
$end
--------------------------------------------------------------

   15   -1510.1532412220      6.80E-09 Convergence criterion met
 Total energy in the final basis set = -1510.15324122
   14   -1510.2221021022      4.27E-09 Convergence criterion met
 Total energy in the final basis set = -1510.22210210
   13   -1510.2589100011      9.95E-09 Convergence criterion met
 Total energy in the final basis set = -1510.25891000
   13   -1510.2747445531      9.36E-09 Convergence criterion met
 Total energy in the final basis set = -1510.27474455
   13   -1510.2796143752      7.78E-09 Convergence criterion met
 Total energy in the final basis set = -1510.27961438
   12   -1510.2811422548      9.75E-09 Convergence criterion met
 Total energy in the final basis set = -1510.28114225
   13   -1510.2818659399      4.59E-09 Convergence criterion met
 Total energy in the final basis set = -1510.28186594
   12   -1510.2824984148      7.89E-09 Convergence criterion met
   12   -1510.2836967013      2.78E-09 Convergence criterion met
 Total energy in the final basis set = -1510.28369670
   11   -1510.2837479357      8.04E-09 Convergence criterion met
 Total energy in the final basis set = -1510.28374794
   11   -1510.2837886566      8.37E-09 Convergence criterion met
 Total energy in the final basis set = -1510.28378866
   11   -1510.2838058550      4.75E-09 Convergence criterion met
 Total energy in the final basis set = -1510.28380586
    9   -1510.2838134095      8.94E-09 Convergence criterion met
 Total energy in the final basis set = -1510.28381341
    9   -1510.2838154683      4.79E-09 Convergence criterion met
 Total energy in the final basis set = -1510.28381547

             Standard Nuclear Orientation (Angstroms)
    I     Atom           X                Y                Z
 ----------------------------------------------------------------
    1      O      -4.0225898445     1.8662136925     1.1219150199
    2      C      -3.8813613669     1.5680969483    -0.0836870744
    3      C      -4.3575830990     0.2669096309    -0.8170344279
    4      C      -3.4501890410    -1.0027625479    -0.5134529816
    5      C      -2.3771008452    -0.7410472260     0.6034773540
    6      O      -1.5288489868     0.3269407913     0.1673929624
    7      C      -0.4891320320     0.5980520419     1.1910342144
    8      C       0.3939410885     1.7852979835     0.6597792257
    9      O       1.8020146092     1.5835879175     1.0738213041
   10      C       2.5124461603     0.8556559364     0.0573535355
   11      C       4.0213739305     0.8083701637     0.4680872737
   12      C       4.6309538588    -0.6544900099     0.4940363324
   13      C       3.6097503090    -1.8278720864     0.2777412389
   14      O       3.8283304533    -2.8977239797    -0.3292600671
   15      O      -3.2809022971     2.4314865662    -1.0587186150
   16      O       2.3964044803    -1.5475753818     0.9907309331
   17      O       1.9936143493     0.4489763725    -1.0043473500
   18      C       1.4224828876    -2.6456509133     0.7773269630
   19      C       4.9138802212     1.4638053040    -0.6756735310
   20      C       6.3752344133     1.6834895947    -0.1137430532
   21      C       6.9479195841     0.2177654426    -0.1648377582
   22      C       5.6886037412    -0.5777652873    -0.6837409422
   23      O       5.0677084996     0.3597319549    -1.6490193674
   24      H       4.1368636979     1.3193868278     1.4394789885
   25      H       5.1343923412    -0.8368688399     1.4622873240
   26      H       4.4582370038     2.3480094557    -1.1625668667
   27      H       6.9421550298     2.3645491207    -0.7680378839
   28      H       6.3647973413     2.1003508416     0.9061404009
   29      H       7.7778753804     0.1347838159    -0.8844950215
   30      H       7.2938940150    -0.1397536606     0.8182562349
   31      H       5.8928790261    -1.5551045727    -1.1632613043
   32      O      -2.2237274621    -1.3636398484     1.6755316240
   33      C      -2.8101128751     3.6742721548    -0.4066887859
   34      C      -5.7689138509    -0.2499454713    -0.3001348995
   35      C      -6.3557812737    -1.2277880022    -1.3929718801
   36      C      -5.4414111506    -2.4930633999    -1.1864107066
   37      C      -4.5350780981    -2.0240397966     0.0189025924
   38      O      -5.4296466499    -1.1550980547     0.8200681380
   39      H      -4.3757484734     0.4793470705    -1.9003479330
   40      H      -2.9375153667    -1.3552331059    -1.4270556931
   41      H      -2.0771727322     3.4596522890     0.3967047383
   42      H      -6.4545738438     0.5489434889     0.0426900880
   43      H      -7.4118186048    -1.4544604208    -1.1758022327
   44      H      -6.2855226637    -0.8102037708    -2.4101218318
   45      H      -6.0328809166    -3.3783902520    -0.9041430986
   46      H      -4.8464512131    -2.7373093479    -2.0811047680
   47      H      -4.1164018831    -2.8306477650     0.6515292879
   48      H      -3.6508082515     4.2500678898     0.0319143454
   49      H      -2.3257126054     4.2727705595    -1.1998764294
   50      H       0.5963267416    -2.4770350157     1.4930201808
   51      H       1.8822227610    -3.6372042102     0.9613056036
   52      H       1.0237461923    -2.6258100421    -0.2577625443
   53      H       0.3192306052     1.8109996930    -0.4491245969
   54      H       0.0704906696     2.7536477165     1.0891485853
   55      H       0.1573036845    -0.2936179533     1.3355512702
   56      H      -0.9575294622     0.8441317529     2.1678003635
 ----------------------------------------------------------------

    9   -1510.2838163742      4.50E-09 Convergence criterion met
 Total energy in the final basis set = -1510.28381637
 Final energy is   -1510.28381637417
 **  OPTIMIZATION CONVERGED  **

                    Orbital Energies (a.u.)
 --------------------------------------------------------------

 Alpha MOs
 -- Occupied --
-18.939 -18.936 -18.932 -18.932 -18.889 -18.886 -18.880 -18.879
-18.872 -18.869 -10.103 -10.101 -10.099 -10.096 -10.073 -10.071
-10.065 -10.064 -10.062 -10.059 -10.059 -10.057 -10.041 -10.039
-10.039 -10.035 -10.022 -10.021 -10.020 -10.019  -1.018  -1.015
 -1.008  -1.006  -0.972  -0.969  -0.941  -0.939  -0.934  -0.932
 -0.765  -0.762  -0.728  -0.723  -0.712  -0.705  -0.697  -0.664
 -0.663  -0.618  -0.597  -0.583  -0.547  -0.545  -0.539  -0.537
 -0.514  -0.509  -0.486  -0.473  -0.463  -0.455  -0.453  -0.447
 -0.445  -0.432  -0.429  -0.415  -0.413  -0.411  -0.409  -0.400
 -0.396  -0.383  -0.376  -0.367  -0.363  -0.357  -0.354  -0.348
 -0.347  -0.341  -0.337  -0.332  -0.331  -0.329  -0.327  -0.313
 -0.309  -0.307  -0.305  -0.297  -0.293  -0.287  -0.284  -0.275
 -0.273  -0.256  -0.255  -0.253  -0.250  -0.235  -0.233  -0.182
 -0.180  -0.174  -0.174  -0.160  -0.158  -0.152  -0.147  -0.145
 -0.143

          Ground-State Mulliken Net Atomic Charges

     Atom                 Charge (a.u.)
  ----------------------------------------
      1 O                    -0.216952
      2 C                     0.209317
      3 C                    -0.079874
      4 C                    -0.077747
      5 C                     0.211674
      6 O                    -0.173205
      7 C                    -0.050400
      8 C                    -0.052187
      9 O                    -0.173066
     10 C                     0.213175
     11 C                    -0.079173
     12 C                    -0.078648
     13 C                     0.213852
     14 O                    -0.209556
     15 O                    -0.168174
     16 O                    -0.172121
     17 O                    -0.215445
     18 C                    -0.131100
     19 C                     0.026125
     20 C                    -0.144290
     21 C                    -0.143386
     22 C                     0.024276
     23 O                    -0.186416
     24 H                     0.087140
     25 H                     0.085391
     26 H                     0.082803
     27 H                     0.078408
     28 H                     0.073762
     29 H                     0.078887
     30 H                     0.073490
     31 H                     0.091573
     32 O                    -0.209927
     33 C                    -0.127969
     34 C                     0.025419
     35 C                    -0.143283
     36 C                    -0.144650
     37 C                     0.024323
     38 O                    -0.186856
     39 H                     0.086112
     40 H                     0.086763
     41 H                     0.085087
     42 H                     0.084578
     43 H                     0.077990
     44 H                     0.073485
     45 H                     0.078284
     46 H                     0.073242
     47 H                     0.089214
     48 H                     0.087767
     49 H                     0.089482
     50 H                     0.094070
     51 H                     0.094047
     52 H                     0.091253
     53 H                     0.103068
     54 H                     0.086000
     55 H                     0.093186
     56 H                     0.091182
  ----------------------------------------
  Sum of atomic charges =    -0.000000

                    Cartesian Multipole Moments
 -----------------------------------------------------------------
    Charge (ESU x 10^10)
                 0.0000
    Dipole Moment (Debye)
         X       0.9840      Y       1.4669      Z      -0.3725
       Tot       1.8052
    Quadrupole Moments (Debye-Ang)
        XX    -149.8853     XY       5.8999     YY    -152.4141
        XZ      21.3190     YZ       0.3052     ZZ    -168.2631

 Total job time:  51.87s(wall), 2464.50s(cpu)
        *  Thank you very much for using Q-Chem.  Have a nice day.  *
