 Q-Chem 5.0, Q-Chem, Inc., Pleasanton, CA (2017)
 Q-Chem 5.0.1 for Intel X86 EM64T Linux

User input:
--------------------------------------------------------------
$molecule
0  1
O -4.0225898445 1.8662136925 1.1219150199
C -3.8813613669 1.5680969483 -0.0836870744
C -4.357583099 0.2669096309 -0.8170344279
C -3.450189041 -1.0027625479 -0.5134529816
C -2.3771008452 -0.741047226 0.603477354
O -1.5288489868 0.3269407913 0.1673929624
C -0.489132032 0.5980520419 1.1910342144
C 0.3939410885 1.7852979835 0.6597792257
O 1.8020146092 1.5835879175 1.0738213041
C 2.5124461603 0.8556559364 0.0573535355
C 4.0213739305 0.8083701637 0.4680872737
C 4.6309538588 -0.6544900099 0.4940363324
C 3.609750309 -1.8278720864 0.2777412389
O 3.8283304533 -2.8977239797 -0.3292600671
O -3.2809022971 2.4314865662 -1.058718615
O 2.3964044803 -1.5475753818 0.9907309331
O 1.9936143493 0.4489763725 -1.00434735
C 1.4224828876 -2.6456509133 0.777326963
C 4.9138802212 1.463805304 -0.675673531
C 6.3752344133 1.6834895947 -0.1137430532
C 6.9479195841 0.2177654426 -0.1648377582
C 5.6886037412 -0.5777652873 -0.6837409422
O 5.0677084996 0.3597319549 -1.6490193674
H 4.1368636979 1.3193868278 1.4394789885
H 5.1343923412 -0.8368688399 1.462287324
H 4.4582370038 2.3480094557 -1.1625668667
H 6.9421550298 2.3645491207 -0.7680378839
H 6.3647973413 2.1003508416 0.9061404009
H 7.7778753804 0.1347838159 -0.8844950215
H 7.293894015 -0.1397536606 0.8182562349
H 5.8928790261 -1.5551045727 -1.1632613043
O -2.2237274621 -1.3636398484 1.675531624
C -2.8101128751 3.6742721548 -0.4066887859
C -5.7689138509 -0.2499454713 -0.3001348995
C -6.3557812737 -1.2277880022 -1.3929718801
C -5.4414111506 -2.4930633999 -1.1864107066
C -4.5350780981 -2.0240397966 0.0189025924
O -5.4296466499 -1.1550980547 0.820068138
H -4.3757484734 0.4793470705 -1.900347933
H -2.9375153667 -1.3552331059 -1.4270556931
H -2.0771727322 3.459652289 0.3967047383
H -6.4545738438 0.5489434889 0.042690088
H -7.4118186048 -1.4544604208 -1.1758022327
H -6.2855226637 -0.8102037708 -2.4101218318
H -6.0328809166 -3.378390252 -0.9041430986
H -4.8464512131 -2.7373093479 -2.081104768
H -4.1164018831 -2.830647765 0.6515292879
H -3.6508082515 4.2500678898 0.0319143454
H -2.3257126054 4.2727705595 -1.1998764294
H 0.5963267416 -2.4770350157 1.4930201808
H 1.882222761 -3.6372042102 0.9613056036
H 1.0237461923 -2.6258100421 -0.2577625443
H 0.3192306052 1.810999693 -0.4491245969
H 0.0704906696 2.7536477165 1.0891485853
H 0.1573036845 -0.2936179533 1.3355512702
H -0.9575294622 0.8441317529 2.1678003635
$end

$rem
JOBTYPE                   OPT
METHOD                    B3LYP
DFT_D                     d3_op
BASIS                     STO-3G
GEOM_OPT_MAX_CYCLES       100
GEOM_OPT_TOL_GRADIENT     300
GEOM_OPT_TOL_DISPLACEMENT 1200
GEOM_OPT_TOL_ENERGY       100
SYMMETRY                  False
THRESH                    12
SCF_CONVERGENCE           8
MAX_SUB_FILE_NUM          128
MEM_STATIC                400
MEM_TOTAL                 4000
$end
--------------------------------------------------------------

   16   -1510.2837632973      6.79E-09 Convergence criterion met
 Total energy in the final basis set = -1510.28376330
   15   -1510.2845534986      1.59E-09 Convergence criterion met
 Total energy in the final basis set = -1510.28455350
   14   -1510.2860588033      3.47E-09 Convergence criterion met
 Total energy in the final basis set = -1510.28605880
   14   -1510.2815198867      4.71E-09 Convergence criterion met
 Total energy in the final basis set = -1510.28151989
   14   -1510.2840727548      8.58E-09 Convergence criterion met
 Total energy in the final basis set = -1510.28407275
   14   -1510.2827413522      5.34E-09 Convergence criterion met
 Total energy in the final basis set = -1510.28274135
   15   -1510.2857763043      4.01E-09 Convergence criterion met
 Total energy in the final basis set = -1510.28577630
   14   -1510.2861500976      7.83E-09 Convergence criterion met
   12   -1510.2904832893      4.63E-09 Convergence criterion met
 Total energy in the final basis set = -1510.29048329
   12   -1510.2905123653      7.23E-09 Convergence criterion met
 Total energy in the final basis set = -1510.29051237
   12   -1510.2905034349      3.54E-09 Convergence criterion met
 Total energy in the final basis set = -1510.29050343
   11   -1510.2905059112      6.25E-09 Convergence criterion met
 Total energy in the final basis set = -1510.29050591
   11   -1510.2905097923      2.27E-09 Convergence criterion met
 Total energy in the final basis set = -1510.29050979
   10   -1510.2905110896      3.71E-09 Convergence criterion met
 Total energy in the final basis set = -1510.29051109

             Standard Nuclear Orientation (Angstroms)
    I     Atom           X                Y                Z
 ----------------------------------------------------------------
    1      O      -3.6629964602     1.5959607854     1.6305350798
    2      C      -3.9195208690     1.5961383478     0.4073555659
    3      C      -4.5537155470     0.4428984418    -0.4492329117
    4      C      -3.5724045993    -0.7722171826    -0.7385822378
    5      C      -2.1673999504    -0.6436208613    -0.0531999568
    6      O      -1.6900789837     0.6882292798    -0.2471994321
    7      C      -0.4368823825     0.9344204106     0.5095012879
    8      C       0.5732531287     1.6870082063    -0.4222769644
    9      O       1.9054599822     1.6669335681     0.2271526990
   10      C       2.8116042585     0.8547048995    -0.5397987465
   11      C       4.1432051823     0.7269540481     0.2662944516
   12      C       4.5300121396    -0.7781498527     0.5915808443
   13      C       3.5241454777    -1.8459887758     0.0267602624
   14      O       3.8052420545    -2.8322256419    -0.6866336637
   15      O      -3.7439298279     2.7310562613    -0.4538700709
   16      O       2.2024524519    -1.5308614156     0.4792144748
   17      O       2.5421169186     0.3767855396    -1.6638093507
   18      C       1.2331212999    -2.4990815591    -0.0914531406
   19      C       5.4037110368     1.1708385530    -0.5965571542
   20      C       6.6239406989     1.3742711600     0.3873385611
   21      C       7.0114702480    -0.1187046397     0.7041267198
   22      C       5.9298265066    -0.8985904037    -0.1404871241
   23      O       5.7559073508    -0.0543373568    -1.3457014716
   24      H       4.0435033296     1.3257446223     1.1881846054
   25      H       4.6207378611    -0.9268438296     1.6834800340
   26      H       5.2117895492     2.0099782015    -1.2930653253
   27      H       7.4436984059     1.9068289505    -0.1205915319
   28      H       6.3375864417     1.9404973464     1.2879260503
   29      H       8.0254788707    -0.3569077425     0.3457157657
   30      H       6.9508072669    -0.3556401460     1.7783567104
   31      H       6.1911364473    -1.9349818744    -0.4305002394
   32      O      -1.5463873629    -1.5450626502     0.5546254642
   33      C      -3.1181283507     3.8417234623     0.2973694096
   34      C      -5.7170003542    -0.3068313748     0.3333683209
   35      C      -6.5775029057    -1.1160154865    -0.7154696046
   36      C      -5.6083380727    -2.3129017940    -1.0437462200
   37      C      -4.3830459492    -1.9789157519    -0.1074827948
   38      O      -5.0080146924    -1.3655744426     1.0872736913
   39      H      -4.9139597341     0.8854387652    -1.3943056268
   40      H      -3.4158088489    -0.9011185005    -1.8260838103
   41      H      -2.0825829998     3.5889559002     0.6041614533
   42      H      -6.2934710255     0.3380971917     1.0244096374
   43      H      -7.5123020862    -1.4703479808    -0.2527387675
   44      H      -6.8281167236    -0.5138350104    -1.6034515792
   45      H      -6.0523468671    -3.2812960821    -0.7638285363
   46      H      -5.3212041772    -2.3501208067    -2.1067640464
   47      H      -3.7465350551    -2.8371253729     0.1842428996
   48      H      -3.6989256068     4.1020075761     1.2056009734
   49      H      -3.0962866956     4.7059147112    -0.3917289461
   50      H       0.2238953370    -2.1711441899     0.2414221115
   51      H       1.4353667813    -3.5274976092     0.2692553133
   52      H       1.2819559251    -2.4999089600    -1.1989680560
   53      H       0.6544755433     1.1717299744    -1.4051255159
   54      H       0.2660821006     2.7422291282    -0.5728033538
   55      H      -0.0023847970    -0.0307631962     0.8439211261
   56      H      -0.6855283259     1.5442713238     1.4044115635
 ----------------------------------------------------------------

    9   -1510.2905108944      4.83E-09 Convergence criterion met
 Total energy in the final basis set = -1510.29051089
 Final energy is   -1510.29051089438
 **  OPTIMIZATION CONVERGED  **

                    Orbital Energies (a.u.)
 --------------------------------------------------------------

 Alpha MOs
 -- Occupied --
-18.950 -18.933 -18.931 -18.927 -18.896 -18.890 -18.887 -18.876
-18.872 -18.868 -10.117 -10.101 -10.098 -10.095 -10.075 -10.070
-10.064 -10.062 -10.061 -10.060 -10.056 -10.046 -10.044 -10.039
-10.038 -10.036 -10.023 -10.022 -10.020 -10.019  -1.028  -1.014
 -1.006  -1.004  -0.973  -0.969  -0.953  -0.938  -0.932  -0.930
 -0.767  -0.763  -0.731  -0.723  -0.712  -0.707  -0.698  -0.664
 -0.652  -0.619  -0.599  -0.582  -0.549  -0.544  -0.540  -0.537
 -0.516  -0.508  -0.486  -0.477  -0.462  -0.460  -0.457  -0.450
 -0.440  -0.433  -0.430  -0.417  -0.413  -0.409  -0.404  -0.401
 -0.401  -0.387  -0.373  -0.368  -0.363  -0.361  -0.355  -0.351
 -0.346  -0.337  -0.334  -0.333  -0.330  -0.328  -0.326  -0.314
 -0.309  -0.309  -0.304  -0.303  -0.294  -0.289  -0.283  -0.276
 -0.271  -0.258  -0.253  -0.250  -0.246  -0.237  -0.233  -0.192
 -0.175  -0.174  -0.173  -0.169  -0.160  -0.149  -0.148  -0.146
 -0.143

          Ground-State Mulliken Net Atomic Charges

     Atom                 Charge (a.u.)
  ----------------------------------------
      1 O                    -0.220344
      2 C                     0.212626
      3 C                    -0.079943
      4 C                    -0.077276
      5 C                     0.223317
      6 O                    -0.169374
      7 C                    -0.054307
      8 C                    -0.055741
      9 O                    -0.172883
     10 C                     0.214096
     11 C                    -0.079101
     12 C                    -0.078608
     13 C                     0.211704
     14 O                    -0.209261
     15 O                    -0.170218
     16 O                    -0.177557
     17 O                    -0.213858
     18 C                    -0.143829
     19 C                     0.025941
     20 C                    -0.143751
     21 C                    -0.144167
     22 C                     0.024520
     23 O                    -0.186559
     24 H                     0.086909
     25 H                     0.084772
     26 H                     0.082942
     27 H                     0.078021
     28 H                     0.073379
     29 H                     0.078424
     30 H                     0.073234
     31 H                     0.091693
     32 O                    -0.209356
     33 C                    -0.128293
     34 C                     0.025509
     35 C                    -0.143679
     36 C                    -0.144230
     37 C                     0.024329
     38 O                    -0.187011
     39 H                     0.086584
     40 H                     0.087882
     41 H                     0.083257
     42 H                     0.085031
     43 H                     0.078724
     44 H                     0.073926
     45 H                     0.079246
     46 H                     0.073636
     47 H                     0.090721
     48 H                     0.089656
     49 H                     0.089057
     50 H                     0.106237
     51 H                     0.083555
     52 H                     0.085806
     53 H                     0.103939
     54 H                     0.084145
     55 H                     0.106196
     56 H                     0.090335
  ----------------------------------------
  Sum of atomic charges =     0.000000

                    Cartesian Multipole Moments
 -----------------------------------------------------------------
    Charge (ESU x 10^10)
                -0.0000
    Dipole Moment (Debye)
         X      -1.1776      Y       2.2471      Z       0.0717
       Tot       2.5380
    Quadrupole Moments (Debye-Ang)
        XX    -147.6939     XY       6.5197     YY    -155.5174
        XZ      21.8002     YZ       0.4723     ZZ    -167.7004

 Total job time:  102.15s(wall), 4859.05s(cpu)
        *  Thank you very much for using Q-Chem.  Have a nice day.  *
