 Q-Chem 5.0, Q-Chem, Inc., Pleasanton, CA (2017)
 Q-Chem 5.0.1 for Intel X86 EM64T Linux

User input:
--------------------------------------------------------------
$molecule
0  1
O -3.94934 -3.66094 2.70899
C -3.26408 -4.56952 2.26188
C -3.36658 -6.02376 2.66595
C -2.79805 -6.41284 4.04045
C -2.35119 -5.27547 4.93196
O -1.33404 -4.58845 4.33292
C -0.75877 -3.58511 5.1765
C 0.35604 -2.85264 4.43703
O 1.36567 -2.43092 5.36745
C 2.35449 -3.32899 5.60164
C 3.40647 -2.81101 6.55332
C 3.6128 -3.66139 7.81529
C 3.02007 -5.05562 7.77679
O 3.51652 -6.05112 8.28383
O -2.41751 -4.29823 1.23373
O 1.68381 -5.12119 7.522
O 2.44369 -4.41922 5.04618
C 0.93326 -6.27976 7.58783
C 4.82952 -2.81593 5.96388
C 5.68657 -1.78119 6.69012
C 5.82801 -2.43683 8.04947
C 5.14972 -3.78591 7.77635
O 5.39402 -4.02434 6.41068
H 3.13811 -1.76299 6.82392
H 3.22111 -3.16513 8.73021
H 4.85201 -2.63882 4.86629
H 6.6812 -1.78239 6.1887
H 5.28793 -0.74401 6.70402
H 6.912 -2.56665 8.26378
H 5.33226 -1.90253 8.88884
H 5.53512 -4.55458 8.48142
O -2.83664 -5.00073 6.02423
C -2.20741 -3.03914 0.71176
C -4.8243 -6.492 2.81211
C -4.90547 -8.00923 2.65064
C -4.27793 -8.46568 3.95134
C -4.03575 -7.11566 4.63514
O -5.10086 -6.31463 4.18069
H -2.85789 -6.61237 1.86817
H -1.93088 -7.10555 3.95576
H -1.80665 -2.36277 1.49712
H -5.51631 -5.99017 2.10053
H -5.98344 -8.28837 2.66091
H -4.43104 -8.40747 1.72801
H -5.03548 -9.05052 4.51934
H -3.34299 -9.05767 3.84715
H -3.96187 -7.25776 5.73562
H -3.15748 -2.62737 0.30912
H -1.46881 -3.10591 -0.11312
H -0.12353 -6.05337 7.34213
H 0.97045 -6.70433 8.61373
H 1.3178 -7.02423 6.85836
H 0.79536 -3.52011 3.66061
H -0.056 -1.9932 3.86738
H -0.30299 -4.11926 6.03531
H -1.49779 -2.85223 5.57169
$end

$opt
CONSTRAINT
tors           1           2           3           4     -74.319
tors           3           4           5           6     -61.981
tors           4           5           6           7    -173.651
tors           5           6           7           8    -179.395
tors           6           7           8           9    -148.511
tors           7           8           9          10     +88.966
tors           8           9          10          11    +178.190
tors           9          10          11          12    +121.983
tors          11          12          13          14    +144.041
ENDCONSTRAINT
$end

$rem
JOBTYPE                   OPT
METHOD                    B3LYP
DFT_D                     d3_op
BASIS                     STO-3G
GEOM_OPT_MAX_CYCLES       100
GEOM_OPT_TOL_GRADIENT     300
GEOM_OPT_TOL_DISPLACEMENT 1200
GEOM_OPT_TOL_ENERGY       100
SYMMETRY                  False
THRESH                    12
SCF_CONVERGENCE           8
MAX_SUB_FILE_NUM          128
MEM_STATIC                400
MEM_TOTAL                 4000
$end
--------------------------------------------------------------

   15   -1510.1547025032      6.97E-09 Convergence criterion met
 Total energy in the final basis set = -1510.15470250
   13   -1510.2235048841      9.88E-09 Convergence criterion met
 Total energy in the final basis set = -1510.22350488
   13   -1510.2601582982      9.96E-09 Convergence criterion met
 Total energy in the final basis set = -1510.26015830
   13   -1510.2756562912      8.67E-09 Convergence criterion met
 Total energy in the final basis set = -1510.27565629
   13   -1510.2801046354      7.15E-09 Convergence criterion met
 Total energy in the final basis set = -1510.28010464
   14   -1510.2806262864      3.75E-09 Convergence criterion met
 Total energy in the final basis set = -1510.28062629
   13   -1510.2820509594      4.24E-09 Convergence criterion met
 Total energy in the final basis set = -1510.28205096
   12   -1510.2824878260      6.72E-09 Convergence criterion met
   12   -1510.2835934314      3.18E-09 Convergence criterion met
 Total energy in the final basis set = -1510.28359343
   11   -1510.2836537364      3.57E-09 Convergence criterion met
 Total energy in the final basis set = -1510.28365374
   11   -1510.2837118854      5.88E-09 Convergence criterion met
 Total energy in the final basis set = -1510.28371189
   11   -1510.2837593488      6.43E-09 Convergence criterion met
 Total energy in the final basis set = -1510.28375935
   11   -1510.2837861660      4.91E-09 Convergence criterion met
 Total energy in the final basis set = -1510.28378617
   11   -1510.2837953678      2.81E-09 Convergence criterion met
 Total energy in the final basis set = -1510.28379537

             Standard Nuclear Orientation (Angstroms)
    I     Atom           X                Y                Z
 ----------------------------------------------------------------
    1      O      -4.1157668437     1.8018329396     1.1762037963
    2      C      -3.9748626837     1.5489351533    -0.0396972794
    3      C      -4.3616223564     0.2351226196    -0.8015498970
    4      C      -3.3682542346    -0.9712758475    -0.5095616325
    5      C      -2.3171907530    -0.6484918851     0.6124202310
    6      O      -1.5154082078     0.4491491891     0.1639430159
    7      C      -0.4087147805     0.6956633590     1.1201559583
    8      C       0.4185941906     1.9156659960     0.5798461017
    9      O       1.8361427702     1.7415967644     0.9770294078
   10      C       2.5313486641     0.9916417194    -0.0334849668
   11      C       4.0277468416     0.8704302328     0.3991858121
   12      C       4.5400132385    -0.6242973752     0.5387704576
   13      C       3.4770502193    -1.7662558575     0.3444079197
   14      O       3.6893797666    -2.8727191635    -0.1965450944
   15      O      -3.4317528552     2.4705683709    -0.9942851990
   16      O       2.2379525338    -1.4243535031     0.9839674674
   17      O       2.0073243585     0.5926620423    -1.0956021793
   18      C       1.2766220847    -2.5457483039     0.8266305881
   19      C       4.9790112928     1.3881570540    -0.7678558360
   20      C       6.4364551456     1.5729061774    -0.1849547642
   21      C       6.9248500022     0.0787282194    -0.1020497938
   22      C       5.6394729003    -0.6858918164    -0.6027542527
   23      O       5.0953619625     0.2076599389    -1.6518619319
   24      H       4.1675451157     1.4359986280     1.3367784617
   25      H       4.9971067666    -0.7749282677     1.5352207150
   26      H       4.5807517773     2.2551747658    -1.3296475836
   27      H       7.0565043661     2.1649395680    -0.8767187840
   28      H       6.4267101573     2.0728531760     0.7967458521
   29      H       7.7704576956    -0.1068580427    -0.7832259320
   30      H       7.2197009639    -0.2188220210     0.9170045197
   31      H       5.8032506583    -1.7054308529    -1.0036308749
   32      O      -2.1257353844    -1.2676241266     1.6806723075
   33      C      -3.0025566559     3.7102999515    -0.3086016485
   34      C      -5.7361108749    -0.3899599468    -0.3040373085
   35      C      -6.2412324549    -1.3916341310    -1.4158348735
   36      C      -5.2410997535    -2.5918889896    -1.2164190022
   37      C      -4.3802101493    -2.0746917702     0.0020188265
   38      O      -5.3414900502    -1.2837741656     0.8070273014
   39      H      -4.3877956235     0.4653823913    -1.8810335226
   40      H      -2.8269178416    -1.2733202632    -1.4246368214
   41      H      -2.2511327238     3.4984857914     0.4786888280
   42      H      -6.4808887198     0.3523333424     0.0428448147
   43      H      -7.2806001792    -1.6957643333    -1.2133260007
   44      H      -6.1905115386    -0.9563379560    -2.4266619002
   45      H      -5.7700458946    -3.5205813383    -0.9501605309
   46      H      -4.6224776876    -2.7806257352    -2.1085464205
   47      H      -3.9087245160    -2.8570489277     0.6279169975
   48      H      -3.8593313779     4.2388573598     0.1576483033
   49      H      -2.5520941449     4.3519277963    -1.0880182914
   50      H       0.4094567821    -2.3111978269     1.4724234655
   51      H       1.7261040669    -3.5100647640     1.1367721016
   52      H       0.9384655087    -2.6353766713    -0.2259812106
   53      H       0.3287854481     1.9456359907    -0.5276363965
   54      H       0.0754160047     2.8722531110     1.0196912213
   55      H       0.2666940979    -0.1840760624     1.1739608011
   56      H      -0.8034093555     0.8914595446     2.1398555400
 ----------------------------------------------------------------

    9   -1510.2837957340      8.81E-09 Convergence criterion met
 Total energy in the final basis set = -1510.28379573
 Final energy is   -1510.28379573401
 **  OPTIMIZATION CONVERGED  **

                    Orbital Energies (a.u.)
 --------------------------------------------------------------

 Alpha MOs
 -- Occupied --
-18.940 -18.935 -18.933 -18.932 -18.889 -18.886 -18.880 -18.879
-18.873 -18.869 -10.104 -10.101 -10.100 -10.096 -10.072 -10.069
-10.065 -10.063 -10.062 -10.059 -10.059 -10.057 -10.042 -10.039
-10.038 -10.035 -10.022 -10.021 -10.020 -10.019  -1.018  -1.015
 -1.009  -1.006  -0.972  -0.968  -0.941  -0.939  -0.935  -0.932
 -0.765  -0.762  -0.728  -0.723  -0.712  -0.705  -0.697  -0.665
 -0.662  -0.618  -0.597  -0.583  -0.547  -0.546  -0.539  -0.537
 -0.514  -0.509  -0.486  -0.473  -0.463  -0.455  -0.454  -0.448
 -0.444  -0.432  -0.429  -0.416  -0.413  -0.411  -0.409  -0.400
 -0.395  -0.383  -0.376  -0.368  -0.363  -0.357  -0.354  -0.348
 -0.347  -0.340  -0.337  -0.332  -0.331  -0.329  -0.327  -0.313
 -0.309  -0.307  -0.305  -0.297  -0.293  -0.287  -0.284  -0.274
 -0.274  -0.257  -0.255  -0.253  -0.249  -0.236  -0.233  -0.184
 -0.180  -0.175  -0.174  -0.160  -0.158  -0.152  -0.147  -0.145
 -0.143

          Ground-State Mulliken Net Atomic Charges

     Atom                 Charge (a.u.)
  ----------------------------------------
      1 O                    -0.215786
      2 C                     0.209123
      3 C                    -0.079769
      4 C                    -0.077700
      5 C                     0.211887
      6 O                    -0.174182
      7 C                    -0.052387
      8 C                    -0.051984
      9 O                    -0.172296
     10 C                     0.211880
     11 C                    -0.079747
     12 C                    -0.078288
     13 C                     0.212861
     14 O                    -0.209906
     15 O                    -0.168076
     16 O                    -0.172482
     17 O                    -0.214182
     18 C                    -0.131970
     19 C                     0.026352
     20 C                    -0.144237
     21 C                    -0.143673
     22 C                     0.024302
     23 O                    -0.186517
     24 H                     0.086997
     25 H                     0.085529
     26 H                     0.083250
     27 H                     0.078442
     28 H                     0.073752
     29 H                     0.078989
     30 H                     0.073530
     31 H                     0.091999
     32 O                    -0.210869
     33 C                    -0.127793
     34 C                     0.025481
     35 C                    -0.143273
     36 C                    -0.144621
     37 C                     0.024282
     38 O                    -0.186566
     39 H                     0.086116
     40 H                     0.086813
     41 H                     0.085719
     42 H                     0.084447
     43 H                     0.077976
     44 H                     0.073515
     45 H                     0.078324
     46 H                     0.073241
     47 H                     0.088880
     48 H                     0.087876
     49 H                     0.089415
     50 H                     0.096235
     51 H                     0.093518
     52 H                     0.090725
     53 H                     0.102647
     54 H                     0.086198
     55 H                     0.095539
     56 H                     0.090463
  ----------------------------------------
  Sum of atomic charges =     0.000000

                    Cartesian Multipole Moments
 -----------------------------------------------------------------
    Charge (ESU x 10^10)
                 0.0000
    Dipole Moment (Debye)
         X       1.0517      Y       1.4950      Z      -0.4121
       Tot       1.8738
    Quadrupole Moments (Debye-Ang)
        XX    -149.9794     XY       5.6102     YY    -152.4756
        XZ      21.0666     YZ       0.5709     ZZ    -168.2134

 Total job time:  49.90s(wall), 2368.11s(cpu)
        *  Thank you very much for using Q-Chem.  Have a nice day.  *
