 Q-Chem 5.0, Q-Chem, Inc., Pleasanton, CA (2017)
 Q-Chem 5.0.1 for Intel X86 EM64T Linux

User input:
--------------------------------------------------------------
$molecule
0  1
O -4.1157668437 1.8018329396 1.1762037963
C -3.9748626837 1.5489351533 -0.0396972794
C -4.3616223564 0.2351226196 -0.801549897
C -3.3682542346 -0.9712758475 -0.5095616325
C -2.317190753 -0.6484918851 0.612420231
O -1.5154082078 0.4491491891 0.1639430159
C -0.4087147805 0.695663359 1.1201559583
C 0.4185941906 1.915665996 0.5798461017
O 1.8361427702 1.7415967644 0.9770294078
C 2.5313486641 0.9916417194 -0.0334849668
C 4.0277468416 0.8704302328 0.3991858121
C 4.5400132385 -0.6242973752 0.5387704576
C 3.4770502193 -1.7662558575 0.3444079197
O 3.6893797666 -2.8727191635 -0.1965450944
O -3.4317528552 2.4705683709 -0.994285199
O 2.2379525338 -1.4243535031 0.9839674674
O 2.0073243585 0.5926620423 -1.0956021793
C 1.2766220847 -2.5457483039 0.8266305881
C 4.9790112928 1.388157054 -0.767855836
C 6.4364551456 1.5729061774 -0.1849547642
C 6.9248500022 0.0787282194 -0.1020497938
C 5.6394729003 -0.6858918164 -0.6027542527
O 5.0953619625 0.2076599389 -1.6518619319
H 4.1675451157 1.435998628 1.3367784617
H 4.9971067666 -0.7749282677 1.535220715
H 4.5807517773 2.2551747658 -1.3296475836
H 7.0565043661 2.164939568 -0.876718784
H 6.4267101573 2.072853176 0.7967458521
H 7.7704576956 -0.1068580427 -0.783225932
H 7.2197009639 -0.218822021 0.9170045197
H 5.8032506583 -1.7054308529 -1.0036308749
O -2.1257353844 -1.2676241266 1.6806723075
C -3.0025566559 3.7102999515 -0.3086016485
C -5.7361108749 -0.3899599468 -0.3040373085
C -6.2412324549 -1.391634131 -1.4158348735
C -5.2410997535 -2.5918889896 -1.2164190022
C -4.3802101493 -2.0746917702 0.0020188265
O -5.3414900502 -1.2837741656 0.8070273014
H -4.3877956235 0.4653823913 -1.8810335226
H -2.8269178416 -1.2733202632 -1.4246368214
H -2.2511327238 3.4984857914 0.478688828
H -6.4808887198 0.3523333424 0.0428448147
H -7.2806001792 -1.6957643333 -1.2133260007
H -6.1905115386 -0.956337956 -2.4266619002
H -5.7700458946 -3.5205813383 -0.9501605309
H -4.6224776876 -2.7806257352 -2.1085464205
H -3.908724516 -2.8570489277 0.6279169975
H -3.8593313779 4.2388573598 0.1576483033
H -2.5520941449 4.3519277963 -1.0880182914
H 0.4094567821 -2.3111978269 1.4724234655
H 1.7261040669 -3.510064764 1.1367721016
H 0.9384655087 -2.6353766713 -0.2259812106
H 0.3287854481 1.9456359907 -0.5276363965
H 0.0754160047 2.872253111 1.0196912213
H 0.2666940979 -0.1840760624 1.1739608011
H -0.8034093555 0.8914595446 2.13985554
$end

$rem
JOBTYPE                   OPT
METHOD                    B3LYP
DFT_D                     d3_op
BASIS                     STO-3G
GEOM_OPT_MAX_CYCLES       100
GEOM_OPT_TOL_GRADIENT     300
GEOM_OPT_TOL_DISPLACEMENT 1200
GEOM_OPT_TOL_ENERGY       100
SYMMETRY                  False
THRESH                    12
SCF_CONVERGENCE           8
MAX_SUB_FILE_NUM          128
MEM_STATIC                400
MEM_TOTAL                 4000
$end
--------------------------------------------------------------

   16   -1510.2838193449      5.89E-09 Convergence criterion met
 Total energy in the final basis set = -1510.28381934
   14   -1510.2852557802      9.70E-09 Convergence criterion met
 Total energy in the final basis set = -1510.28525578
   14   -1510.2864837441      6.30E-09 Convergence criterion met
 Total energy in the final basis set = -1510.28648374
   15   -1510.2801814378      4.21E-09 Convergence criterion met
 Total energy in the final basis set = -1510.28018144
   14   -1510.2834377725      9.46E-09 Convergence criterion met
 Total energy in the final basis set = -1510.28343777
   14   -1510.2854478548      7.18E-09 Convergence criterion met
 Total energy in the final basis set = -1510.28544785
   14   -1510.2863483529      6.66E-09 Convergence criterion met
 Total energy in the final basis set = -1510.28634835
   14   -1510.2872328831      4.05E-09 Convergence criterion met
   12   -1510.2902992682      5.48E-09 Convergence criterion met
 Total energy in the final basis set = -1510.29029927
   12   -1510.2903832821      5.69E-09 Convergence criterion met
 Total energy in the final basis set = -1510.29038328
   11   -1510.2903995141      5.01E-09 Convergence criterion met
 Total energy in the final basis set = -1510.29039951
   11   -1510.2904063282      5.86E-09 Convergence criterion met
 Total energy in the final basis set = -1510.29040633
   12   -1510.2904018396      1.59E-09 Convergence criterion met
 Total energy in the final basis set = -1510.29040184
   11   -1510.2904114210      7.95E-09 Convergence criterion met
 Total energy in the final basis set = -1510.29041142

             Standard Nuclear Orientation (Angstroms)
    I     Atom           X                Y                Z
 ----------------------------------------------------------------
    1      O      -3.6522851465     1.6370170660     1.5490716768
    2      C      -3.9272073253     1.5977956382     0.3304566534
    3      C      -4.5570923754     0.4100507783    -0.4806388853
    4      C      -3.5646036810    -0.8040596691    -0.7360483713
    5      C      -2.1576603783    -0.6352393261    -0.0632562666
    6      O      -1.6866427214     0.6885112647    -0.3198707373
    7      C      -0.4373491789     0.9745879140     0.4299334395
    8      C       0.5925374305     1.6503796396    -0.5381217293
    9      O       1.9150071166     1.6659340536     0.1314808115
   10      C       2.8322465030     0.8135196265    -0.5759719441
   11      C       4.1510509279     0.7248833956     0.2563588425
   12      C       4.5361724138    -0.7655093688     0.6452988920
   13      C       3.5345987094    -1.8530049756     0.1117790751
   14      O       3.8174720524    -2.8612275371    -0.5693765931
   15      O      -3.7784492027     2.7086260187    -0.5662160712
   16      O       2.2123294258    -1.5226382431     0.5508979456
   17      O       2.5795842963     0.2745220301    -1.6761128898
   18      C       1.2424573073    -2.5059933006     0.0085993983
   19      C       5.4239310363     1.1378390936    -0.6035650623
   20      C       6.6300034946     1.3767536316     0.3899076142
   21      C       7.0157603055    -0.1034386573     0.7632131958
   22      C       5.9441603834    -0.9135887837    -0.0653401207
   23      O       5.7858680918    -0.1138090804    -1.3028900625
   24      H       4.0352191225     1.3597022291     1.1519259811
   25      H       4.6143505793    -0.8712769024     1.7431509354
   26      H       5.2424180625     1.9515611677    -1.3322190791
   27      H       7.4559434402     1.8935135677    -0.1242520260
   28      H       6.3298730951     1.9727949484     1.2664375621
   29      H       8.0339014798    -0.3527887931     0.4244960831
   30      H       6.9437533009    -0.3025995603     1.8444377445
   31      H       6.2081314727    -1.9598990205    -0.3143236289
   32      O      -1.5317432816    -1.5032173437     0.5868272450
   33      C      -3.1600750257     3.8498342682     0.1445050180
   34      C      -5.7039876211    -0.3242442299     0.3403578277
   35      C      -6.5655890191    -1.1805130621    -0.6694610487
   36      C      -5.5864599970    -2.3776760763    -0.9643106312
   37      C      -4.3550925651    -1.9960035258    -0.0544492990
   38      O      -4.9744051890    -1.3467184839     1.1242711721
   39      H      -4.9317798929     0.8149787541    -1.4368943161
   40      H      -3.4141799544    -0.9693934831    -1.8194253518
   41      H      -2.1149209520     3.6236745720     0.4392420810
   42      H      -6.2808671770     0.3386200281     1.0138878013
   43      H      -7.4915344909    -1.5278137656    -0.1842052384
   44      H      -6.8320990731    -0.6137053394    -1.5758537741
   45      H      -6.0163774349    -3.3400529873    -0.6443265174
   46      H      -5.3105232608    -2.4508971887    -2.0284551617
   47      H      -3.7057389736    -2.8358918111     0.2612272691
   48      H      -3.7298395014     4.1232778066     1.0558004887
   49      H      -3.1658615337     4.6957485952    -0.5672269836
   50      H       0.2320388485    -2.1542812532     0.3121834980
   51      H       1.4289628019    -3.5191360568     0.4179622091
   52      H       1.3077495850    -2.5570147097    -1.0968654493
   53      H       0.6845659770     1.0658979985    -1.4806257734
   54      H       0.2963458776     2.6943088488    -0.7688287206
   55      H      -0.0198454807     0.0292347629     0.8355423157
   56      H      -0.6900219858     1.6474524325     1.2771941490
 ----------------------------------------------------------------

   11   -1510.2904112526      2.22E-09 Convergence criterion met
 Total energy in the final basis set = -1510.29041125
 Final energy is   -1510.29041125264
 **  OPTIMIZATION CONVERGED  **

                    Orbital Energies (a.u.)
 --------------------------------------------------------------

 Alpha MOs
 -- Occupied --
-18.950 -18.933 -18.931 -18.926 -18.896 -18.890 -18.886 -18.876
-18.871 -18.868 -10.117 -10.101 -10.098 -10.094 -10.075 -10.070
-10.064 -10.062 -10.062 -10.060 -10.056 -10.046 -10.043 -10.039
-10.038 -10.036 -10.023 -10.022 -10.020 -10.019  -1.028  -1.014
 -1.007  -1.003  -0.973  -0.969  -0.953  -0.937  -0.933  -0.930
 -0.767  -0.763  -0.731  -0.723  -0.712  -0.707  -0.698  -0.664
 -0.652  -0.619  -0.599  -0.582  -0.549  -0.544  -0.540  -0.536
 -0.516  -0.508  -0.486  -0.477  -0.463  -0.460  -0.457  -0.450
 -0.440  -0.433  -0.429  -0.417  -0.413  -0.410  -0.404  -0.401
 -0.400  -0.387  -0.373  -0.368  -0.363  -0.360  -0.355  -0.351
 -0.346  -0.337  -0.334  -0.333  -0.330  -0.328  -0.325  -0.314
 -0.309  -0.309  -0.304  -0.303  -0.294  -0.289  -0.282  -0.276
 -0.271  -0.258  -0.253  -0.250  -0.245  -0.237  -0.233  -0.192
 -0.175  -0.174  -0.173  -0.169  -0.160  -0.150  -0.148  -0.146
 -0.143

          Ground-State Mulliken Net Atomic Charges

     Atom                 Charge (a.u.)
  ----------------------------------------
      1 O                    -0.220212
      2 C                     0.212354
      3 C                    -0.079873
      4 C                    -0.077253
      5 C                     0.223380
      6 O                    -0.169454
      7 C                    -0.054486
      8 C                    -0.055866
      9 O                    -0.172849
     10 C                     0.214122
     11 C                    -0.078952
     12 C                    -0.078637
     13 C                     0.211780
     14 O                    -0.209276
     15 O                    -0.170035
     16 O                    -0.177677
     17 O                    -0.213864
     18 C                    -0.143924
     19 C                     0.025864
     20 C                    -0.143767
     21 C                    -0.144113
     22 C                     0.024502
     23 O                    -0.186488
     24 H                     0.086873
     25 H                     0.084726
     26 H                     0.082870
     27 H                     0.077987
     28 H                     0.073372
     29 H                     0.078388
     30 H                     0.073233
     31 H                     0.091641
     32 O                    -0.209190
     33 C                    -0.128318
     34 C                     0.025496
     35 C                    -0.143688
     36 C                    -0.144254
     37 C                     0.024365
     38 O                    -0.186928
     39 H                     0.086600
     40 H                     0.087937
     41 H                     0.083423
     42 H                     0.084994
     43 H                     0.078753
     44 H                     0.073947
     45 H                     0.079283
     46 H                     0.073647
     47 H                     0.090804
     48 H                     0.089802
     49 H                     0.089154
     50 H                     0.106332
     51 H                     0.083081
     52 H                     0.085902
     53 H                     0.103831
     54 H                     0.084175
     55 H                     0.106325
     56 H                     0.090163
  ----------------------------------------
  Sum of atomic charges =     0.000000

                    Cartesian Multipole Moments
 -----------------------------------------------------------------
    Charge (ESU x 10^10)
                -0.0000
    Dipole Moment (Debye)
         X      -1.2760      Y       2.2721      Z      -0.0108
       Tot       2.6059
    Quadrupole Moments (Debye-Ang)
        XX    -147.7265     XY       7.4086     YY    -155.4473
        XZ      21.5340     YZ       0.0260     ZZ    -167.4701

 Total job time:  105.40s(wall), 5020.40s(cpu)
        *  Thank you very much for using Q-Chem.  Have a nice day.  *
