 Q-Chem 5.0, Q-Chem, Inc., Pleasanton, CA (2017)
 Q-Chem 5.0.1 for Intel X86 EM64T Linux

User input:
--------------------------------------------------------------
$molecule
0  1
O -3.9232988554 2.0745786297 0.8776749665
C -3.7345006729 1.5896966975 -0.2585301847
C -4.2732615161 0.233925431 -0.833407739
C -3.4716082368 -1.0471250958 -0.3442889957
C -2.3954708761 -0.7511440246 0.7603291734
O -1.534463813 0.2916292778 0.2912814844
C -0.4946540784 0.5872500435 1.3087731865
C 0.4055931063 1.7442259926 0.7419973782
O 1.8067944407 1.5141284814 1.1657924109
C 2.5334278764 0.8753843032 0.1002607126
C 4.0183277705 0.7088019061 0.5635905984
C 4.5405612008 -0.7866902097 0.4750100633
C 3.4613728449 -1.8455291265 0.0543420243
O 3.6401100833 -2.8400429116 -0.6805076025
O -3.0224588924 2.2574859453 -1.309707798
O 2.2269758125 -1.5524448141 0.7279112567
O 2.0494801103 0.6288199005 -1.0261496359
C 1.1538134696 -2.4622814952 0.2602990485
C 5.0064659875 1.4163271044 -0.462552094
C 6.4384413748 1.5061578198 0.2000400934
C 6.9366131238 0.0192627218 0.0576358024
C 5.6808607156 -0.6549276401 -0.6191797737
O 5.1702951987 0.3996075219 -1.5254774838
H 4.1129808731 1.1140802645 1.5857419952
H 4.9579107088 -1.1057031337 1.4487211013
H 4.6232836512 2.3635034722 -0.889299315
H 7.0792941447 2.2040334153 -0.361875825
H 6.3874992308 1.8399128479 1.2488460484
H 7.8141609332 -0.0501963993 -0.6045981959
H 7.1856091254 -0.4424568516 1.0262097852
H 5.8727167444 -1.5917223756 -1.1783135536
O -2.2555990291 -1.3344626897 1.8561326148
C -2.5129067149 3.5599383857 -0.8258888908
C -5.7333095058 -0.1177534774 -0.3102551811
C -6.3572632525 -1.1844701606 -1.2941370783
C -5.5448131047 -2.4729410525 -0.8957133225
C -4.6411388965 -1.9163128578 0.2730797558
O -5.4923001734 -0.8940697031 0.9265559694
H -4.2457486736 0.305098032 -1.9348222718
H -2.9725509671 -1.5481894971 -1.1946186519
H -1.9221577299 3.4476442815 0.1049089037
H -6.3693396679 0.7628016817 -0.0955846005
H -7.4332483112 -1.3083879811 -1.0923820259
H -6.2249215118 -0.9057623922 -2.3517202149
H -6.206365029 -3.2724591297 -0.5264950635
H -4.9431578255 -2.8691355373 -1.7294098974
H -4.2957347041 -2.6619076441 1.0156691755
H -3.3405331014 4.2727912369 -0.6305540534
H -1.8676745821 3.956732191 -1.6311515396
H 0.5503188636 -2.7594898902 1.1389774474
H 1.5998970588 -3.3522756461 -0.2268290086
H 0.5095704318 -1.9281479543 -0.4678225066
H 0.3500399251 1.7310848295 -0.3688269899
H 0.0966878031 2.7319317618 1.1365780522
H 0.1408550909 -0.3061754807 1.4896995949
H -0.9651784493 0.8729917534 2.2735832671
$end

$rem
JOBTYPE                   OPT
METHOD                    B3LYP
DFT_D                     d3_op
BASIS                     STO-3G
GEOM_OPT_MAX_CYCLES       100
GEOM_OPT_TOL_GRADIENT     300
GEOM_OPT_TOL_DISPLACEMENT 1200
GEOM_OPT_TOL_ENERGY       100
SYMMETRY                  False
THRESH                    12
SCF_CONVERGENCE           8
MAX_SUB_FILE_NUM          128
MEM_STATIC                400
MEM_TOTAL                 4000
$end
--------------------------------------------------------------

   16   -1510.2848767929      7.34E-09 Convergence criterion met
 Total energy in the final basis set = -1510.28487679
   14   -1510.2852604933      3.12E-09 Convergence criterion met
 Total energy in the final basis set = -1510.28526049
   14   -1510.2856213367      3.03E-09 Convergence criterion met
 Total energy in the final basis set = -1510.28562134
   14   -1510.2860110190      8.76E-09 Convergence criterion met
 Total energy in the final basis set = -1510.28601102
   14   -1510.2860836937      1.79E-09 Convergence criterion met
 Total energy in the final basis set = -1510.28608369
   14   -1510.2858363309      8.64E-09 Convergence criterion met
 Total energy in the final basis set = -1510.28583633
   14   -1510.2861468843      1.72E-09 Convergence criterion met
 Total energy in the final basis set = -1510.28614688
   14   -1510.2864170412      6.64E-09 Convergence criterion met
   11   -1510.3050005503      7.43E-09 Convergence criterion met
 Total energy in the final basis set = -1510.30500055
   11   -1510.3050040216      2.35E-09 Convergence criterion met
 Total energy in the final basis set = -1510.30500402
   11   -1510.3050071695      4.64E-09 Convergence criterion met
 Total energy in the final basis set = -1510.30500717
   11   -1510.3050092936      2.40E-09 Convergence criterion met
 Total energy in the final basis set = -1510.30500929
   10   -1510.3050127778      6.92E-09 Convergence criterion met
 Total energy in the final basis set = -1510.30501278
    9   -1510.3050134600      8.10E-09 Convergence criterion met
 Total energy in the final basis set = -1510.30501346

             Standard Nuclear Orientation (Angstroms)
    I     Atom           X                Y                Z
 ----------------------------------------------------------------
    1      O      -1.5648154016     1.2394337879     0.0908232333
    2      C      -1.8782586468     0.4419373526    -0.8236053343
    3      C      -3.0380831629    -0.6095561225    -0.7795149690
    4      C      -3.4840173805    -0.9770406932     0.6932151090
    5      C      -2.6283300957    -0.3069550025     1.8285946224
    6      O      -1.3643791433    -1.0012437172     1.9075221507
    7      C      -0.5224360222    -0.4263068682     2.9835571058
    8      C       0.2398271968     0.8749556791     2.5299765622
    9      O       1.6651737896     0.5487420584     2.2614460694
   10      C       2.0567621886     1.0322580899     0.9764194884
   11      C       3.5554852771     0.6658957695     0.7080592893
   12      C       3.7428955284    -0.3935392394    -0.4620386074
   13      C       2.3950266801    -0.9545321994    -1.0391701025
   14      O       2.0558850802    -1.0330215291    -2.2393308979
   15      O      -1.2370309947     0.3312397789    -2.0879291538
   16      O       1.5970010417    -1.3672934968     0.0684152488
   17      O       1.3091392454     1.7052517719     0.2289978981
   18      C       0.2844928986    -1.8993418989    -0.3715690224
   19      C       4.3248901370     1.9105402820     0.0864940124
   20      C       5.8765918776     1.6122176210     0.1210814576
   21      C       6.0229636940     0.6012309187    -1.0772407517
   22      C       4.5216043889     0.4657092111    -1.5401716393
   23      O       3.9791085472     1.8320225653    -1.3505364468
   24      H       4.0071325642     0.3130214381     1.6514018255
   25      H       4.3497258566    -1.2484554327    -0.1111842845
   26      H       4.0218926335     2.8904798943     0.5033960077
   27      H       6.4510782990     2.5357503320    -0.0538092492
   28      H       6.1906483021     1.1776674590     1.0835285655
   29      H       6.6389251267     1.0231168215    -1.8873319749
   30      H       6.4546141803    -0.3650027805    -0.7709606386
   31      H       4.3594768541     0.1260887002    -2.5817857277
   32      O      -2.9887802841     0.5676512694     2.6421887589
   33      C      -0.1723543539     1.3555404257    -2.2544167949
   34      C      -4.3846784551     0.0254212481    -1.3439320736
   35      C      -5.4294393616    -1.1362001068    -1.5782690846
   36      C      -5.8746256165    -1.4497762188    -0.1013127266
   37      C      -4.9743617926    -0.4358912515     0.7064606144
   38      O      -4.9212129660     0.7549097049    -0.1739665328
   39      H      -2.7366365576    -1.4984613948    -1.3604714798
   40      H      -3.4454406931    -2.0710896137     0.8441285565
   41      H       0.4165627994     1.4999680574    -1.3171969352
   42      H      -4.2403232403     0.7108551625    -2.2017408471
   43      H      -6.2732843534    -0.7758571740    -2.1878579255
   44      H      -4.9762204390    -2.0053928291    -2.0815618966
   45      H      -6.9417906330    -1.2250541880     0.0538887105
   46      H      -5.6875426446    -2.4962995713     0.1882197558
   47      H      -5.3429932077    -0.1544654419     1.7118735869
   48      H      -0.6198879963     2.3224198708    -2.5606079061
   49      H       0.4826726675     0.9784510889    -3.0609575390
   50      H       0.3526318450    -2.9940411441    -0.5329089782
   51      H      -0.0422914408    -1.4126294957    -1.3123679677
   52      H      -0.4271775982    -1.6703717084     0.4561046915
   53      H      -0.2277005269     1.2959535744     1.6069846795
   54      H       0.2066456780     1.6322186775     3.3410074094
   55      H       0.2112746958    -1.2151889608     3.2475248154
   56      H      -1.1578294737    -0.1939045233     3.8639301660
 ----------------------------------------------------------------

    9   -1510.3050143899      3.92E-09 Convergence criterion met
 Total energy in the final basis set = -1510.30501439
 Final energy is   -1510.30501438994
 **  OPTIMIZATION CONVERGED  **

                    Orbital Energies (a.u.)
 --------------------------------------------------------------

 Alpha MOs
 -- Occupied --
-18.935 -18.935 -18.933 -18.929 -18.888 -18.887 -18.880 -18.878
-18.876 -18.873 -10.104 -10.103 -10.102 -10.097 -10.071 -10.062
-10.060 -10.059 -10.057 -10.057 -10.039 -10.039 -10.038 -10.037
-10.037 -10.036 -10.021 -10.021 -10.020 -10.020  -1.017  -1.012
 -1.007  -1.005  -0.971  -0.970  -0.940  -0.937  -0.934  -0.933
 -0.765  -0.763  -0.727  -0.723  -0.711  -0.706  -0.695  -0.654
 -0.650  -0.616  -0.597  -0.579  -0.547  -0.543  -0.539  -0.536
 -0.512  -0.509  -0.479  -0.472  -0.462  -0.460  -0.454  -0.451
 -0.435  -0.430  -0.426  -0.414  -0.412  -0.408  -0.404  -0.397
 -0.391  -0.374  -0.371  -0.365  -0.363  -0.359  -0.355  -0.345
 -0.343  -0.342  -0.337  -0.333  -0.330  -0.327  -0.318  -0.311
 -0.309  -0.306  -0.304  -0.299  -0.293  -0.288  -0.281  -0.275
 -0.269  -0.257  -0.252  -0.241  -0.236  -0.235  -0.233  -0.189
 -0.175  -0.170  -0.166  -0.160  -0.158  -0.152  -0.150  -0.145
 -0.143

          Ground-State Mulliken Net Atomic Charges

     Atom                 Charge (a.u.)
  ----------------------------------------
      1 O                    -0.210248
      2 C                     0.216968
      3 C                    -0.079263
      4 C                    -0.081285
      5 C                     0.218473
      6 O                    -0.179078
      7 C                    -0.050120
      8 C                    -0.064894
      9 O                    -0.169877
     10 C                     0.220974
     11 C                    -0.077950
     12 C                    -0.078754
     13 C                     0.209957
     14 O                    -0.213669
     15 O                    -0.170579
     16 O                    -0.175857
     17 O                    -0.218721
     18 C                    -0.155980
     19 C                     0.025706
     20 C                    -0.144240
     21 C                    -0.143617
     22 C                     0.023303
     23 O                    -0.187571
     24 H                     0.086747
     25 H                     0.084646
     26 H                     0.084202
     27 H                     0.078297
     28 H                     0.073436
     29 H                     0.078344
     30 H                     0.073100
     31 H                     0.090309
     32 O                    -0.207690
     33 C                    -0.148907
     34 C                     0.025710
     35 C                    -0.143781
     36 C                    -0.143897
     37 C                     0.025280
     38 O                    -0.187239
     39 H                     0.087010
     40 H                     0.084202
     41 H                     0.121480
     42 H                     0.085092
     43 H                     0.078829
     44 H                     0.074220
     45 H                     0.078693
     46 H                     0.073026
     47 H                     0.089705
     48 H                     0.079692
     49 H                     0.091662
     50 H                     0.074506
     51 H                     0.094544
     52 H                     0.107939
     53 H                     0.123056
     54 H                     0.084617
     55 H                     0.095084
     56 H                     0.094408
  ----------------------------------------
  Sum of atomic charges =     0.000000

                    Cartesian Multipole Moments
 -----------------------------------------------------------------
    Charge (ESU x 10^10)
                -0.0000
    Dipole Moment (Debye)
         X       1.1859      Y      -2.8552      Z       0.8695
       Tot       3.2116
    Quadrupole Moments (Debye-Ang)
        XX    -144.0547     XY       9.7657     YY    -160.9087
        XZ       8.1474     YZ      -1.1053     ZZ    -160.8383

 Total job time:  183.70s(wall), 8760.52s(cpu)
        *  Thank you very much for using Q-Chem.  Have a nice day.  *
