 Q-Chem 5.0, Q-Chem, Inc., Pleasanton, CA (2017)
 Q-Chem 5.0.1 for Intel X86 EM64T Linux

User input:
--------------------------------------------------------------
$molecule
0  1
O -3.94934 -3.66094 2.70899
C -3.26408 -4.56952 2.26188
C -3.36658 -6.02376 2.66595
C -2.71309 -6.43098 3.99673
C -2.18471 -5.30711 4.86034
O -1.3387 -4.52046 4.13172
C -0.78559 -3.43771 4.88735
C 0.13524 -2.59893 4.00721
O 1.2527 -2.12811 4.77694
C 2.39061 -2.85629 4.65843
C 3.54366 -2.27801 5.44375
C 4.20693 -3.25001 6.43045
C 3.8739 -4.71596 6.23862
O 4.65403 -5.64539 6.38732
O -2.4393 -4.3042 1.21445
O 2.54749 -5.0218 6.27804
O 2.52751 -3.81304 3.90279
C 2.03207 -6.30123 6.24287
C 4.75204 -1.88927 4.56946
C 5.57327 -0.81685 5.2823
C 6.16123 -1.62431 6.42249
C 5.68213 -3.03082 6.03893
O 5.61198 -3.00065 4.63354
H 3.17978 -1.36291 5.96697
H 3.97347 -2.99916 7.48843
H 4.46659 -1.54698 3.55065
H 6.39523 -0.5312 4.58692
H 5.02052 0.09804 5.58607
H 7.26984 -1.54626 6.37083
H 5.80348 -1.34421 7.43707
H 6.35971 -3.79613 6.4767
O -2.55472 -5.06534 6.00436
C -2.25212 -3.05107 0.66992
C -4.81865 -6.46923 2.9168
C -4.93806 -7.98294 2.74671
C -4.21834 -8.46515 3.98939
C -3.91004 -7.12783 4.67182
O -4.99244 -6.30555 4.30454
H -2.93229 -6.61851 1.82959
H -1.85453 -7.11996 3.83332
H -1.84745 -2.35751 1.4373
H -5.55347 -5.94898 2.26382
H -6.01712 -8.24188 2.84029
H -4.54708 -8.38126 1.78579
H -4.93555 -9.05439 4.60325
H -3.29816 -9.06088 3.80529
H -3.75772 -7.28439 5.76211
H -3.21334 -2.65657 0.27665
H -1.5262 -3.12227 -0.16574
H 0.92455 -6.24836 6.28055
H 2.3922 -6.88529 7.11643
H 2.33334 -6.80706 5.30078
H 0.46296 -3.231 3.15177
H -0.41209 -1.76212 3.52506
H -0.1604 -3.90285 5.68396
H -1.54839 -2.78714 5.37124
$end

$opt
CONSTRAINT
tors           1           2           3           4     -78.394
tors           3           4           5           6     -53.353
tors           4           5           6           7    -179.437
tors           5           6           7           8    -179.472
tors           6           7           8           9    -144.001
tors           7           8           9          10     +97.801
tors           8           9          10          11    +177.533
tors           9          10          11          12    +125.239
tors          11          12          13          14    +142.558
ENDCONSTRAINT
$end

$rem
JOBTYPE                   OPT
METHOD                    B3LYP
DFT_D                     d3_op
BASIS                     STO-3G
GEOM_OPT_MAX_CYCLES       100
GEOM_OPT_TOL_GRADIENT     300
GEOM_OPT_TOL_DISPLACEMENT 1200
GEOM_OPT_TOL_ENERGY       100
SYMMETRY                  False
THRESH                    12
SCF_CONVERGENCE           8
MAX_SUB_FILE_NUM          128
MEM_STATIC                400
MEM_TOTAL                 4000
$end
--------------------------------------------------------------

   15   -1510.1541444948      6.16E-09 Convergence criterion met
 Total energy in the final basis set = -1510.15414449
   14   -1510.2228744583      5.75E-09 Convergence criterion met
 Total energy in the final basis set = -1510.22287446
   14   -1510.2595807424      5.03E-09 Convergence criterion met
 Total energy in the final basis set = -1510.25958074
   14   -1510.2753171682      4.35E-09 Convergence criterion met
 Total energy in the final basis set = -1510.27531717
   14   -1510.2802331638      3.54E-09 Convergence criterion met
 Total energy in the final basis set = -1510.28023316
    2   -1510.2802331638      1.21E-09 Convergence criterion met
 Total energy in the final basis set = -1510.28023316
   13   -1510.2817255131      3.23E-09 Convergence criterion met
 Total energy in the final basis set = -1510.28172551
   13   -1510.2824183028      8.29E-09 Convergence criterion met
   11   -1510.2848510135      9.85E-09 Convergence criterion met
 Total energy in the final basis set = -1510.28485101
    9   -1510.2848562583      9.08E-09 Convergence criterion met
 Total energy in the final basis set = -1510.28485626
    9   -1510.2848642176      5.19E-09 Convergence criterion met
 Total energy in the final basis set = -1510.28486422
   10   -1510.2848718400      8.09E-09 Convergence criterion met
 Total energy in the final basis set = -1510.28487184
    9   -1510.2848751870      2.41E-09 Convergence criterion met
 Total energy in the final basis set = -1510.28487519
    9   -1510.2848787352      4.95E-09 Convergence criterion met
 Total energy in the final basis set = -1510.28487874

             Standard Nuclear Orientation (Angstroms)
    I     Atom           X                Y                Z
 ----------------------------------------------------------------
    1      O      -3.9232988554     2.0745786297     0.8776749665
    2      C      -3.7345006729     1.5896966975    -0.2585301847
    3      C      -4.2732615161     0.2339254310    -0.8334077390
    4      C      -3.4716082368    -1.0471250958    -0.3442889957
    5      C      -2.3954708761    -0.7511440246     0.7603291734
    6      O      -1.5344638130     0.2916292778     0.2912814844
    7      C      -0.4946540784     0.5872500435     1.3087731865
    8      C       0.4055931063     1.7442259926     0.7419973782
    9      O       1.8067944407     1.5141284814     1.1657924109
   10      C       2.5334278764     0.8753843032     0.1002607126
   11      C       4.0183277705     0.7088019061     0.5635905984
   12      C       4.5405612008    -0.7866902097     0.4750100633
   13      C       3.4613728449    -1.8455291265     0.0543420243
   14      O       3.6401100833    -2.8400429116    -0.6805076025
   15      O      -3.0224588924     2.2574859453    -1.3097077980
   16      O       2.2269758125    -1.5524448141     0.7279112567
   17      O       2.0494801103     0.6288199005    -1.0261496359
   18      C       1.1538134696    -2.4622814952     0.2602990485
   19      C       5.0064659875     1.4163271044    -0.4625520940
   20      C       6.4384413748     1.5061578198     0.2000400934
   21      C       6.9366131238     0.0192627218     0.0576358024
   22      C       5.6808607156    -0.6549276401    -0.6191797737
   23      O       5.1702951987     0.3996075219    -1.5254774838
   24      H       4.1129808731     1.1140802645     1.5857419952
   25      H       4.9579107088    -1.1057031337     1.4487211013
   26      H       4.6232836512     2.3635034722    -0.8892993150
   27      H       7.0792941447     2.2040334153    -0.3618758250
   28      H       6.3874992308     1.8399128479     1.2488460484
   29      H       7.8141609332    -0.0501963993    -0.6045981959
   30      H       7.1856091254    -0.4424568516     1.0262097852
   31      H       5.8727167444    -1.5917223756    -1.1783135536
   32      O      -2.2555990291    -1.3344626897     1.8561326148
   33      C      -2.5129067149     3.5599383857    -0.8258888908
   34      C      -5.7333095058    -0.1177534774    -0.3102551811
   35      C      -6.3572632525    -1.1844701606    -1.2941370783
   36      C      -5.5448131047    -2.4729410525    -0.8957133225
   37      C      -4.6411388965    -1.9163128578     0.2730797558
   38      O      -5.4923001734    -0.8940697031     0.9265559694
   39      H      -4.2457486736     0.3050980320    -1.9348222718
   40      H      -2.9725509671    -1.5481894971    -1.1946186519
   41      H      -1.9221577299     3.4476442815     0.1049089037
   42      H      -6.3693396679     0.7628016817    -0.0955846005
   43      H      -7.4332483112    -1.3083879811    -1.0923820259
   44      H      -6.2249215118    -0.9057623922    -2.3517202149
   45      H      -6.2063650290    -3.2724591297    -0.5264950635
   46      H      -4.9431578255    -2.8691355373    -1.7294098974
   47      H      -4.2957347041    -2.6619076441     1.0156691755
   48      H      -3.3405331014     4.2727912369    -0.6305540534
   49      H      -1.8676745821     3.9567321910    -1.6311515396
   50      H       0.5503188636    -2.7594898902     1.1389774474
   51      H       1.5998970588    -3.3522756461    -0.2268290086
   52      H       0.5095704318    -1.9281479543    -0.4678225066
   53      H       0.3500399251     1.7310848295    -0.3688269899
   54      H       0.0966878031     2.7319317618     1.1365780522
   55      H       0.1408550909    -0.3061754807     1.4896995949
   56      H      -0.9651784493     0.8729917534     2.2735832671
 ----------------------------------------------------------------

    9   -1510.2848797337      3.27E-09 Convergence criterion met
 Total energy in the final basis set = -1510.28487973
 Final energy is   -1510.28487973370
 **  OPTIMIZATION CONVERGED  **

                    Orbital Energies (a.u.)
 --------------------------------------------------------------

 Alpha MOs
 -- Occupied --
-18.940 -18.938 -18.932 -18.930 -18.890 -18.886 -18.884 -18.880
-18.872 -18.868 -10.106 -10.102 -10.100 -10.095 -10.071 -10.070
-10.063 -10.062 -10.062 -10.060 -10.058 -10.057 -10.042 -10.040
-10.039 -10.035 -10.023 -10.022 -10.020 -10.019  -1.019  -1.017
 -1.008  -1.005  -0.973  -0.969  -0.943  -0.941  -0.934  -0.931
 -0.767  -0.763  -0.729  -0.724  -0.712  -0.705  -0.698  -0.664
 -0.662  -0.618  -0.597  -0.583  -0.548  -0.545  -0.540  -0.537
 -0.514  -0.510  -0.487  -0.473  -0.462  -0.455  -0.455  -0.448
 -0.445  -0.433  -0.429  -0.418  -0.413  -0.411  -0.409  -0.402
 -0.396  -0.383  -0.378  -0.368  -0.364  -0.357  -0.353  -0.349
 -0.347  -0.342  -0.336  -0.333  -0.331  -0.329  -0.327  -0.313
 -0.309  -0.307  -0.306  -0.299  -0.295  -0.287  -0.285  -0.275
 -0.273  -0.255  -0.253  -0.251  -0.249  -0.236  -0.233  -0.182
 -0.181  -0.173  -0.173  -0.165  -0.159  -0.154  -0.147  -0.146
 -0.143

          Ground-State Mulliken Net Atomic Charges

     Atom                 Charge (a.u.)
  ----------------------------------------
      1 O                    -0.217815
      2 C                     0.210758
      3 C                    -0.080104
      4 C                    -0.077908
      5 C                     0.211086
      6 O                    -0.173367
      7 C                    -0.050734
      8 C                    -0.054978
      9 O                    -0.173092
     10 C                     0.213894
     11 C                    -0.079073
     12 C                    -0.078205
     13 C                     0.216454
     14 O                    -0.208370
     15 O                    -0.168723
     16 O                    -0.172860
     17 O                    -0.217487
     18 C                    -0.137111
     19 C                     0.026072
     20 C                    -0.144108
     21 C                    -0.143604
     22 C                     0.024515
     23 O                    -0.186348
     24 H                     0.087421
     25 H                     0.086230
     26 H                     0.083510
     27 H                     0.078640
     28 H                     0.074039
     29 H                     0.079059
     30 H                     0.073635
     31 H                     0.091539
     32 O                    -0.209718
     33 C                    -0.128205
     34 C                     0.025303
     35 C                    -0.143379
     36 C                    -0.144639
     37 C                     0.024041
     38 O                    -0.187272
     39 H                     0.086025
     40 H                     0.085258
     41 H                     0.086555
     42 H                     0.084798
     43 H                     0.078041
     44 H                     0.073496
     45 H                     0.078358
     46 H                     0.072990
     47 H                     0.089695
     48 H                     0.086051
     49 H                     0.089405
     50 H                     0.090865
     51 H                     0.102707
     52 H                     0.089496
     53 H                     0.105615
     54 H                     0.085688
     55 H                     0.094419
     56 H                     0.091444
  ----------------------------------------
  Sum of atomic charges =    -0.000000

                    Cartesian Multipole Moments
 -----------------------------------------------------------------
    Charge (ESU x 10^10)
                 0.0000
    Dipole Moment (Debye)
         X       1.1252      Y       0.8248      Z      -0.3016
       Tot       1.4274
    Quadrupole Moments (Debye-Ang)
        XX    -150.4952     XY       6.5036     YY    -152.9794
        XZ      22.2834     YZ      -0.2320     ZZ    -168.9560

 Total job time:  96.21s(wall), 4581.82s(cpu)
        *  Thank you very much for using Q-Chem.  Have a nice day.  *
