 Q-Chem 5.0, Q-Chem, Inc., Pleasanton, CA (2017)
 Q-Chem 5.0.1 for Intel X86 EM64T Linux

User input:
--------------------------------------------------------------
$molecule
0  1
O -3.8884101053 2.0785232649 0.8998348562
C -3.7007354905 1.6051689744 -0.2414098955
C -4.2538613535 0.2626571553 -0.8344548548
C -3.4738436068 -1.0370342965 -0.3609505788
C -2.3783597411 -0.7778086623 0.7337180609
O -1.5333507042 0.2907480237 0.2955678331
C -0.4861229948 0.5572054692 1.3134975646
C 0.3999876865 1.743898329 0.7872465719
O 1.8058434834 1.5079491195 1.1926113599
C 2.5179646721 0.8709939963 0.1163229944
C 4.0074286413 0.6995274499 0.5631692212
C 4.528595194 -0.7956870843 0.4654447723
C 3.4509374848 -1.8586671753 0.0504102883
O 3.6351995947 -2.8566524359 -0.678568696
O -2.9856459548 2.2817566028 -1.2851602511
O 2.2155538715 -1.570993793 0.7239613877
O 2.0204250404 0.629588918 -1.0051034435
C 1.1499395115 -2.4937643936 0.2637231851
C 4.986341507 1.4101520865 -0.4699320632
C 6.4238840947 1.4996788458 0.1802718113
C 6.9210527569 0.0130085422 0.0320800906
C 5.6605927142 -0.6602208494 -0.6368686674
O 5.1421720624 0.3961600454 -1.5366196133
H 4.1128860149 1.1012761577 1.585645772
H 4.9541657718 -1.1168061902 1.4349528706
H 4.5987375758 2.3579574334 -0.891278184
H 7.0595872252 2.1978335395 -0.3871493643
H 6.3825442465 1.832875118 1.2296857598
H 7.7940449558 -0.055323612 -0.6362598623
H 7.1765863478 -0.4503711381 0.9981473351
H 5.8486639631 -1.5955819075 -1.1997031119
O -2.2141158651 -1.4062946677 1.8010477328
C -2.4749506046 3.5787501018 -0.7884401748
C -5.7197307087 -0.0726049832 -0.316537982
C -6.3578031227 -1.124335853 -1.3076073473
C -5.5685004452 -2.4282786906 -0.9128284691
C -4.6548360878 -1.8903978095 0.2569565996
O -5.4904413913 -0.859189764 0.9160854079
H -4.2237596636 0.3480242711 -1.9348005656
H -2.9941842961 -1.5415783965 -1.2204928615
H -1.8916130705 3.4585078165 0.1459507864
H -6.3435983462 0.8154411556 -0.0970454645
H -7.4363946314 -1.2313538887 -1.1102135612
H -6.217113534 -0.8426690977 -2.3633269948
H -6.2444890412 -3.2164314487 -0.5452080153
H -4.9742356223 -2.8332384501 -1.7475836383
H -4.3182166206 -2.6443563443 0.9952294427
H -3.3016658354 4.2930445179 -0.5943505999
H -1.8225567993 3.9791530598 -1.5861345212
H 0.5317512845 -2.7643190894 1.1407391622
H 1.6022846447 -3.3976828301 -0.1906737669
H 0.5179110218 -1.981656461 -0.4905005192
H 0.332482268 1.7777572128 -0.3222853527
H 0.0884101145 2.711490511 1.2266774489
H 0.1593461217 -0.3360855813 1.4539552051
H -0.9504255288 0.8007536722 2.2927561235
$end

$rem
JOBTYPE                   OPT
METHOD                    B3LYP
DFT_D                     d3_op
BASIS                     STO-3G
GEOM_OPT_MAX_CYCLES       100
GEOM_OPT_TOL_GRADIENT     300
GEOM_OPT_TOL_DISPLACEMENT 1200
GEOM_OPT_TOL_ENERGY       100
SYMMETRY                  False
THRESH                    12
SCF_CONVERGENCE           8
MAX_SUB_FILE_NUM          128
MEM_STATIC                400
MEM_TOTAL                 4000
$end
--------------------------------------------------------------

   16   -1510.2848089116      5.42E-09 Convergence criterion met
 Total energy in the final basis set = -1510.28480891
   14   -1510.2851213737      3.84E-09 Convergence criterion met
 Total energy in the final basis set = -1510.28512137
   14   -1510.2856074841      1.92E-09 Convergence criterion met
 Total energy in the final basis set = -1510.28560748
   14   -1510.2862178497      8.65E-09 Convergence criterion met
 Total energy in the final basis set = -1510.28621785
   14   -1510.2858072173      4.68E-09 Convergence criterion met
 Total energy in the final basis set = -1510.28580722
   14   -1510.2853267019      8.83E-09 Convergence criterion met
 Total energy in the final basis set = -1510.28532670
   14   -1510.2859651312      3.02E-09 Convergence criterion met
 Total energy in the final basis set = -1510.28596513
   14   -1510.2863713558      6.57E-09 Convergence criterion met
   13   -1510.2907744061      2.56E-09 Convergence criterion met
 Total energy in the final basis set = -1510.29077441
   13   -1510.2908353468      2.66E-09 Convergence criterion met
 Total energy in the final basis set = -1510.29083535
   12   -1510.2908297459      2.58E-09 Convergence criterion met
 Total energy in the final basis set = -1510.29082975
   11   -1510.2908398090      6.56E-09 Convergence criterion met
 Total energy in the final basis set = -1510.29083981
   11   -1510.2908422756      3.90E-09 Convergence criterion met
 Total energy in the final basis set = -1510.29084228
   10   -1510.2908415420      4.47E-09 Convergence criterion met
 Total energy in the final basis set = -1510.29084154

             Standard Nuclear Orientation (Angstroms)
    I     Atom           X                Y                Z
 ----------------------------------------------------------------
    1      O      -3.6341848904     1.3099807200     1.7801720810
    2      C      -4.0337639725     1.5888110860     0.6290086766
    3      C      -4.6096596377     0.6070921361    -0.4496696015
    4      C      -3.5847985115    -0.5253381188    -0.8819862086
    5      C      -2.1863193924    -0.4188050303    -0.1822230072
    6      O      -1.7062542646     0.9149092884    -0.3621845754
    7      C      -0.3918936487     1.1157584758     0.2968477655
    8      C       0.6832820468     1.4500344332    -0.7944925298
    9      O       2.0108924139     1.5035776567    -0.1403677780
   10      C       2.9063710075     0.5588051875    -0.7533769935
   11      C       4.2456944113     0.5910814000     0.0531853336
   12      C       4.5503299379    -0.7545711173     0.8402464236
   13      C       3.5202019612    -1.9125346511     0.5767085243
   14      O       3.7917946685    -3.0937428987     0.2730537465
   15      O      -4.0716015076     2.9164760587     0.0899443265
   16      O       2.1913697633    -1.4108118603     0.7477564388
   17      O       2.6323170848    -0.1057394784    -1.7764176501
   18      C       1.2053400864    -2.4677651328     0.4105120058
   19      C       5.5185268448     0.6686217806    -0.8980782972
   20      C       6.7495865978     1.1438266997    -0.0311568296
   21      C       7.0545441949    -0.1590802750     0.7987796075
   22      C       5.9589155260    -1.1456119132     0.2341319480
   23      O       5.8262487591    -0.7490702515    -1.1878921357
   24      H       4.1976175337     1.4496780314     0.7455031817
   25      H       4.6009303477    -0.5669126452     1.9288093392
   26      H       5.3550615844     1.2287753196    -1.8392991145
   27      H       7.5956583857     1.4144387860    -0.6827883196
   28      H       6.5035670298     2.0085363197     0.6058322789
   29      H       8.0653916859    -0.5436566819     0.5902724131
   30      H       6.9515058222    -0.0046272597     1.8848471686
   31      H       6.1888668738    -2.2260925597     0.3127744605
   32      O      -1.5747875231    -1.3289356264     0.4208852854
   33      C      -3.5189894994     3.8746723799     1.0743157508
   34      C      -5.7859572129    -0.2859092745     0.1433367984
   35      C      -6.5435423478    -0.9701111417    -1.0635786941
   36      C      -5.5226634250    -2.0995485840    -1.4650464450
   37      C      -4.3581019679    -1.8342707251    -0.4345102289
   38      O      -5.0704555226    -1.4069848657     0.7919895646
   39      H      -4.9419747520     1.2008263343    -1.3185923977
   40      H      -3.4194716693    -0.5021785837    -1.9752724346
   41      H      -2.4429064928     3.6840869320     1.2645891957
   42      H      -6.4338769482     0.2343599402     0.8750853796
   43      H      -7.5034586521    -1.3927499542    -0.7269378484
   44      H      -6.7360983075    -0.2611686423    -1.8844477422
   45      H      -5.9501774683    -3.1030653426    -1.3113665137
   46      H      -5.1825640193    -2.0163947623    -2.5097150054
   47      H      -3.6944985738    -2.6940336768    -0.2178111788
   48      H      -4.0595576252     3.8265821220     2.0414721626
   49      H      -3.6416196176     4.8786163200     0.6281158927
   50      H       0.1984452943    -1.9997834469     0.4726986531
   51      H       1.2704207758    -3.3147536301     1.1226908300
   52      H       1.3779464902    -2.8562055311    -0.6131340166
   53      H       0.7085447455     0.6654431352    -1.5833222572
   54      H       0.4687209511     2.4343453081    -1.2613064411
   55      H      -0.1040254843     0.1977687058     0.8501446504
   56      H      -0.4989437117     1.9575092746     1.0121410330
 ----------------------------------------------------------------

    9   -1510.2908414998      4.14E-09 Convergence criterion met
 Total energy in the final basis set = -1510.29084150
 Final energy is   -1510.29084149978
 **  OPTIMIZATION CONVERGED  **

                    Orbital Energies (a.u.)
 --------------------------------------------------------------

 Alpha MOs
 -- Occupied --
-18.947 -18.935 -18.930 -18.928 -18.895 -18.890 -18.885 -18.873
-18.871 -18.871 -10.116 -10.099 -10.099 -10.094 -10.074 -10.068
-10.066 -10.063 -10.062 -10.059 -10.055 -10.045 -10.042 -10.040
-10.036 -10.035 -10.023 -10.022 -10.019 -10.018  -1.026  -1.012
 -1.009  -1.003  -0.973  -0.968  -0.952  -0.935  -0.935  -0.930
 -0.768  -0.761  -0.730  -0.722  -0.713  -0.707  -0.697  -0.665
 -0.650  -0.619  -0.599  -0.582  -0.549  -0.543  -0.541  -0.535
 -0.515  -0.507  -0.485  -0.477  -0.465  -0.459  -0.456  -0.448
 -0.438  -0.433  -0.428  -0.417  -0.413  -0.411  -0.402  -0.400
 -0.399  -0.386  -0.373  -0.366  -0.363  -0.361  -0.356  -0.351
 -0.347  -0.335  -0.335  -0.333  -0.329  -0.326  -0.325  -0.314
 -0.308  -0.308  -0.304  -0.302  -0.293  -0.288  -0.283  -0.277
 -0.270  -0.259  -0.255  -0.248  -0.245  -0.237  -0.232  -0.192
 -0.177  -0.173  -0.172  -0.168  -0.158  -0.151  -0.147  -0.146
 -0.142

          Ground-State Mulliken Net Atomic Charges

     Atom                 Charge (a.u.)
  ----------------------------------------
      1 O                    -0.216957
      2 C                     0.210729
      3 C                    -0.078942
      4 C                    -0.077535
      5 C                     0.223693
      6 O                    -0.171612
      7 C                    -0.053047
      8 C                    -0.055552
      9 O                    -0.173910
     10 C                     0.215443
     11 C                    -0.079578
     12 C                    -0.078308
     13 C                     0.211672
     14 O                    -0.209656
     15 O                    -0.169067
     16 O                    -0.176225
     17 O                    -0.215980
     18 C                    -0.144219
     19 C                     0.025650
     20 C                    -0.143594
     21 C                    -0.144464
     22 C                     0.024131
     23 O                    -0.187089
     24 H                     0.086042
     25 H                     0.084624
     26 H                     0.083397
     27 H                     0.077882
     28 H                     0.073091
     29 H                     0.078269
     30 H                     0.072965
     31 H                     0.091494
     32 O                    -0.208960
     33 C                    -0.128152
     34 C                     0.025788
     35 C                    -0.143967
     36 C                    -0.143822
     37 C                     0.024638
     38 O                    -0.185910
     39 H                     0.087051
     40 H                     0.087292
     41 H                     0.085345
     42 H                     0.084037
     43 H                     0.078817
     44 H                     0.073997
     45 H                     0.079385
     46 H                     0.073654
     47 H                     0.090992
     48 H                     0.090026
     49 H                     0.089904
     50 H                     0.108919
     51 H                     0.083384
     52 H                     0.086401
     53 H                     0.100784
     54 H                     0.083366
     55 H                     0.105713
     56 H                     0.087967
  ----------------------------------------
  Sum of atomic charges =     0.000000

                    Cartesian Multipole Moments
 -----------------------------------------------------------------
    Charge (ESU x 10^10)
                -0.0000
    Dipole Moment (Debye)
         X      -1.4530      Y       3.2617      Z      -0.3046
       Tot       3.5836
    Quadrupole Moments (Debye-Ang)
        XX    -147.1693     XY       7.7311     YY    -158.7781
        XZ      18.4237     YZ       1.7500     ZZ    -163.6229

 Total job time:  155.28s(wall), 7401.55s(cpu)
        *  Thank you very much for using Q-Chem.  Have a nice day.  *
