 Q-Chem 5.0, Q-Chem, Inc., Pleasanton, CA (2017)
 Q-Chem 5.0.1 for Intel X86 EM64T Linux

User input:
--------------------------------------------------------------
$molecule
0  1
O -3.94934 -3.66094 2.70899
C -3.26408 -4.56952 2.26188
C -3.36658 -6.02376 2.66595
C -2.71309 -6.43098 3.99673
C -2.18471 -5.30711 4.86034
O -1.38616 -4.48618 4.11615
C -0.84573 -3.394 4.86737
C 0.02142 -2.517 3.97012
O 1.14486 -2.01725 4.71243
C 2.2898 -2.73371 4.59021
C 3.44772 -2.1258 5.34541
C 4.13853 -3.06968 6.34047
C 3.82092 -4.54313 6.18308
O 4.61181 -5.4604 6.34941
O -2.44552 -4.30589 1.20905
O 2.49879 -4.86387 6.24415
O 2.42515 -3.70335 3.85085
C 1.99921 -6.15025 6.24497
C 4.63669 -1.74011 4.44375
C 5.45662 -0.64435 5.12173
C 6.07334 -1.42243 6.26709
C 5.60431 -2.84155 5.91933
O 5.51056 -2.84003 4.51502
H 3.08075 -1.20493 5.85618
H 3.92111 -2.80049 7.39734
H 4.33035 -1.42126 3.42339
H 6.2633 -0.36245 4.40721
H 4.89772 0.26954 5.41716
H 7.17993 -1.333 6.19461
H 5.72991 -1.12635 7.28208
H 6.29816 -3.59022 6.3604
O -2.54092 -5.07957 6.01163
C -2.26965 -3.05572 0.65399
C -4.81848 -6.46976 2.91761
C -4.93764 -7.98329 2.74598
C -4.21572 -8.46679 3.98694
C -3.90849 -7.13027 4.67149
O -4.99156 -6.30813 4.3058
H -2.93291 -6.61884 1.82947
H -1.85206 -7.11595 3.82997
H -1.86797 -2.35269 1.4139
H -5.55403 -5.94903 2.26585
H -6.01656 -8.24223 2.84127
H -4.54856 -8.3809 1.784
H -4.93112 -9.0588 4.60022
H -3.29448 -9.06017 3.80056
H -3.75549 -7.28832 5.76144
H -3.23526 -2.67178 0.26103
H -1.5462 -3.12811 -0.1837
H 0.89167 -6.11099 6.29419
H 2.37631 -6.70897 7.12789
H 2.2965 -6.67447 5.31171
H 0.34937 -3.12242 3.09529
H -0.56893 -1.69257 3.51848
H -0.18416 -3.84641 5.64107
H -1.61435 -2.77297 5.38003
$end

$opt
CONSTRAINT
tors           1           2           3           4     -78.394
tors           3           4           5           6     -50.651
tors           4           5           6           7    -179.982
tors           5           6           7           8    -179.472
tors           6           7           8           9    -144.060
tors           7           8           9          10     +95.593
tors           8           9          10          11    +177.533
tors           9          10          11          12    +125.239
tors          11          12          13          14    +143.255
ENDCONSTRAINT
$end

$rem
JOBTYPE                   OPT
METHOD                    B3LYP
DFT_D                     d3_op
BASIS                     STO-3G
GEOM_OPT_MAX_CYCLES       100
GEOM_OPT_TOL_GRADIENT     300
GEOM_OPT_TOL_DISPLACEMENT 1200
GEOM_OPT_TOL_ENERGY       100
SYMMETRY                  False
THRESH                    12
SCF_CONVERGENCE           8
MAX_SUB_FILE_NUM          128
MEM_STATIC                400
MEM_TOTAL                 4000
$end
--------------------------------------------------------------

   15   -1510.1537727027      6.17E-09 Convergence criterion met
 Total energy in the final basis set = -1510.15377270
   14   -1510.2225782188      5.11E-09 Convergence criterion met
 Total energy in the final basis set = -1510.22257822
   13   -1510.2593117767      9.05E-09 Convergence criterion met
 Total energy in the final basis set = -1510.25931178
   13   -1510.2751001803      7.94E-09 Convergence criterion met
 Total energy in the final basis set = -1510.27510018
   13   -1510.2801288039      9.88E-09 Convergence criterion met
 Total energy in the final basis set = -1510.28012880
   12   -1510.2818850482      9.22E-09 Convergence criterion met
 Total energy in the final basis set = -1510.28188505
   12   -1510.2826259890      7.85E-09 Convergence criterion met
 Total energy in the final basis set = -1510.28262599
   12   -1510.2831631936      8.05E-09 Convergence criterion met
   11   -1510.2847820708      4.18E-09 Convergence criterion met
 Total energy in the final basis set = -1510.28478207
    9   -1510.2847854769      5.17E-09 Convergence criterion met
 Total energy in the final basis set = -1510.28478548
    9   -1510.2847925495      5.98E-09 Convergence criterion met
 Total energy in the final basis set = -1510.28479255
   11   -1510.2848010216      1.97E-09 Convergence criterion met
 Total energy in the final basis set = -1510.28480102
    9   -1510.2848079193      6.13E-09 Convergence criterion met
 Total energy in the final basis set = -1510.28480792
    9   -1510.2848139099      8.43E-09 Convergence criterion met
 Total energy in the final basis set = -1510.28481391

             Standard Nuclear Orientation (Angstroms)
    I     Atom           X                Y                Z
 ----------------------------------------------------------------
    1      O      -3.8884101053     2.0785232649     0.8998348562
    2      C      -3.7007354905     1.6051689744    -0.2414098955
    3      C      -4.2538613535     0.2626571553    -0.8344548548
    4      C      -3.4738436068    -1.0370342965    -0.3609505788
    5      C      -2.3783597411    -0.7778086623     0.7337180609
    6      O      -1.5333507042     0.2907480237     0.2955678331
    7      C      -0.4861229948     0.5572054692     1.3134975646
    8      C       0.3999876865     1.7438983290     0.7872465719
    9      O       1.8058434834     1.5079491195     1.1926113599
   10      C       2.5179646721     0.8709939963     0.1163229944
   11      C       4.0074286413     0.6995274499     0.5631692212
   12      C       4.5285951940    -0.7956870843     0.4654447723
   13      C       3.4509374848    -1.8586671753     0.0504102883
   14      O       3.6351995947    -2.8566524359    -0.6785686960
   15      O      -2.9856459548     2.2817566028    -1.2851602511
   16      O       2.2155538715    -1.5709937930     0.7239613877
   17      O       2.0204250404     0.6295889180    -1.0051034435
   18      C       1.1499395115    -2.4937643936     0.2637231851
   19      C       4.9863415070     1.4101520865    -0.4699320632
   20      C       6.4238840947     1.4996788458     0.1802718113
   21      C       6.9210527569     0.0130085422     0.0320800906
   22      C       5.6605927142    -0.6602208494    -0.6368686674
   23      O       5.1421720624     0.3961600454    -1.5366196133
   24      H       4.1128860149     1.1012761577     1.5856457720
   25      H       4.9541657718    -1.1168061902     1.4349528706
   26      H       4.5987375758     2.3579574334    -0.8912781840
   27      H       7.0595872252     2.1978335395    -0.3871493643
   28      H       6.3825442465     1.8328751180     1.2296857598
   29      H       7.7940449558    -0.0553236120    -0.6362598623
   30      H       7.1765863478    -0.4503711381     0.9981473351
   31      H       5.8486639631    -1.5955819075    -1.1997031119
   32      O      -2.2141158651    -1.4062946677     1.8010477328
   33      C      -2.4749506046     3.5787501018    -0.7884401748
   34      C      -5.7197307087    -0.0726049832    -0.3165379820
   35      C      -6.3578031227    -1.1243358530    -1.3076073473
   36      C      -5.5685004452    -2.4282786906    -0.9128284691
   37      C      -4.6548360878    -1.8903978095     0.2569565996
   38      O      -5.4904413913    -0.8591897640     0.9160854079
   39      H      -4.2237596636     0.3480242711    -1.9348005656
   40      H      -2.9941842961    -1.5415783965    -1.2204928615
   41      H      -1.8916130705     3.4585078165     0.1459507864
   42      H      -6.3435983462     0.8154411556    -0.0970454645
   43      H      -7.4363946314    -1.2313538887    -1.1102135612
   44      H      -6.2171135340    -0.8426690977    -2.3633269948
   45      H      -6.2444890412    -3.2164314487    -0.5452080153
   46      H      -4.9742356223    -2.8332384501    -1.7475836383
   47      H      -4.3182166206    -2.6443563443     0.9952294427
   48      H      -3.3016658354     4.2930445179    -0.5943505999
   49      H      -1.8225567993     3.9791530598    -1.5861345212
   50      H       0.5317512845    -2.7643190894     1.1407391622
   51      H       1.6022846447    -3.3976828301    -0.1906737669
   52      H       0.5179110218    -1.9816564610    -0.4905005192
   53      H       0.3324822680     1.7777572128    -0.3222853527
   54      H       0.0884101145     2.7114905110     1.2266774489
   55      H       0.1593461217    -0.3360855813     1.4539552051
   56      H      -0.9504255288     0.8007536722     2.2927561235
 ----------------------------------------------------------------

    9   -1510.2848147587      2.41E-09 Convergence criterion met
 Total energy in the final basis set = -1510.28481476
 Final energy is   -1510.28481475870
 **  OPTIMIZATION CONVERGED  **

                    Orbital Energies (a.u.)
 --------------------------------------------------------------

 Alpha MOs
 -- Occupied --
-18.940 -18.938 -18.932 -18.929 -18.890 -18.886 -18.884 -18.880
-18.872 -18.867 -10.106 -10.102 -10.100 -10.095 -10.072 -10.070
-10.063 -10.062 -10.062 -10.060 -10.058 -10.057 -10.042 -10.040
-10.039 -10.035 -10.023 -10.022 -10.020 -10.019  -1.019  -1.017
 -1.008  -1.004  -0.972  -0.969  -0.943  -0.941  -0.934  -0.931
 -0.766  -0.763  -0.729  -0.724  -0.712  -0.705  -0.698  -0.664
 -0.662  -0.618  -0.597  -0.583  -0.548  -0.545  -0.540  -0.537
 -0.514  -0.510  -0.487  -0.474  -0.462  -0.455  -0.454  -0.448
 -0.445  -0.433  -0.429  -0.418  -0.413  -0.410  -0.409  -0.402
 -0.397  -0.383  -0.378  -0.368  -0.364  -0.357  -0.353  -0.349
 -0.347  -0.342  -0.336  -0.333  -0.330  -0.329  -0.327  -0.313
 -0.309  -0.307  -0.306  -0.299  -0.295  -0.287  -0.285  -0.275
 -0.273  -0.255  -0.253  -0.251  -0.249  -0.236  -0.233  -0.182
 -0.181  -0.173  -0.172  -0.164  -0.159  -0.153  -0.146  -0.146
 -0.143

          Ground-State Mulliken Net Atomic Charges

     Atom                 Charge (a.u.)
  ----------------------------------------
      1 O                    -0.218306
      2 C                     0.211237
      3 C                    -0.080118
      4 C                    -0.077966
      5 C                     0.211330
      6 O                    -0.172616
      7 C                    -0.050756
      8 C                    -0.054404
      9 O                    -0.173043
     10 C                     0.213648
     11 C                    -0.079214
     12 C                    -0.078215
     13 C                     0.216200
     14 O                    -0.208730
     15 O                    -0.168959
     16 O                    -0.172868
     17 O                    -0.217100
     18 C                    -0.136986
     19 C                     0.026091
     20 C                    -0.144101
     21 C                    -0.143621
     22 C                     0.024491
     23 O                    -0.186406
     24 H                     0.087344
     25 H                     0.086156
     26 H                     0.083464
     27 H                     0.078624
     28 H                     0.074033
     29 H                     0.079037
     30 H                     0.073625
     31 H                     0.091568
     32 O                    -0.210491
     33 C                    -0.128302
     34 C                     0.025347
     35 C                    -0.143487
     36 C                    -0.144540
     37 C                     0.023951
     38 O                    -0.187427
     39 H                     0.086014
     40 H                     0.085287
     41 H                     0.086589
     42 H                     0.084731
     43 H                     0.078016
     44 H                     0.073506
     45 H                     0.078339
     46 H                     0.072977
     47 H                     0.089842
     48 H                     0.085811
     49 H                     0.089240
     50 H                     0.091692
     51 H                     0.102433
     52 H                     0.089344
     53 H                     0.105053
     54 H                     0.086251
     55 H                     0.094980
     56 H                     0.091404
  ----------------------------------------
  Sum of atomic charges =     0.000000

                    Cartesian Multipole Moments
 -----------------------------------------------------------------
    Charge (ESU x 10^10)
                 0.0000
    Dipole Moment (Debye)
         X       1.1083      Y       0.8572      Z      -0.2756
       Tot       1.4280
    Quadrupole Moments (Debye-Ang)
        XX    -150.3089     XY       6.4542     YY    -153.1973
        XZ      22.0019     YZ      -0.1321     ZZ    -168.6996

 Total job time:  87.34s(wall), 4157.10s(cpu)
        *  Thank you very much for using Q-Chem.  Have a nice day.  *
