 Q-Chem 5.0, Q-Chem, Inc., Pleasanton, CA (2017)
 Q-Chem 5.0.1 for Intel X86 EM64T Linux

User input:
--------------------------------------------------------------
$molecule
0  1
O -3.94934 -3.66094 2.70899
C -3.26408 -4.56952 2.26188
C -3.36658 -6.02376 2.66595
C -2.1637 -6.92746 2.34928
C -0.92277 -6.23941 1.8251
O -0.63306 -5.15209 2.59919
C 0.68431 -5.19345 3.15783
C 1.11262 -3.79744 3.59809
O 1.86186 -3.87822 4.82079
C 1.55493 -4.9265 5.62456
C 0.38395 -4.64595 6.53601
C -0.5631 -5.83433 6.75764
C -0.02839 -7.19117 6.3456
O -0.70699 -8.18527 6.13151
O -2.61645 -4.31392 1.09144
O 1.24863 -7.48789 6.70238
O 2.48884 -5.62983 5.9697
C 1.85731 -8.7204 6.56239
C 0.81803 -4.32064 7.97756
C -0.28965 -3.54629 8.69122
C -1.31304 -4.64383 8.88827
C -0.54859 -5.84111 8.30881
O 0.79238 -5.56192 8.6299
H -0.16984 -3.7709 6.12765
H -1.61195 -5.64909 6.48669
H 1.77648 -3.7586 8.02598
H 0.10077 -3.24084 9.68835
H -0.65456 -2.64828 8.14768
H -1.46492 -4.78704 9.98148
H -2.29292 -4.47905 8.39054
H -0.9575 -6.78758 8.72918
O -0.28728 -6.57125 0.83477
C -2.50909 -3.06947 0.50526
C -3.45856 -6.23637 4.17495
C -4.14247 -7.5664 4.48775
C -3.0795 -8.54716 4.03499
C -1.93935 -7.57744 3.68545
O -2.13669 -6.49427 4.54051
H -4.31343 -6.39269 2.21125
H -2.41482 -7.70541 1.59368
H -1.98286 -2.37051 1.1901
H -3.9637 -5.40547 4.714
H -4.22833 -7.62627 5.59677
H -5.14698 -7.71186 4.0357
H -2.81302 -9.1975 4.8964
H -3.36011 -9.17847 3.16414
H -0.95034 -8.0835 3.71101
H -3.51687 -2.67108 0.26079
H -1.92351 -3.15928 -0.43249
H 2.90198 -8.65282 6.92896
H 1.87145 -9.01795 5.49206
H 1.31924 -9.48647 7.16046
H 1.62688 -3.21635 2.8038
H 0.1918 -3.23096 3.85801
H 1.45435 -5.53673 2.42992
H 0.61033 -6.02449 3.88218
$end

$opt
CONSTRAINT
tors           1           2           3           4    -161.053
tors           3           4           5           6     +47.368
tors           4           5           6           7    +123.158
tors           5           6           7           8    +161.053
tors           6           7           8           9    +142.105
tors           7           8           9          10     -28.421
tors           8           9          10          11     -85.263
tors           9          10          11          12    +142.105
tors          11          12          13          14    -161.053
ENDCONSTRAINT
$end

$rem
JOBTYPE                   OPT
METHOD                    B3LYP
DFT_D                     d3_op
BASIS                     STO-3G
GEOM_OPT_MAX_CYCLES       100
GEOM_OPT_TOL_GRADIENT     300
GEOM_OPT_TOL_DISPLACEMENT 1200
GEOM_OPT_TOL_ENERGY       100
SYMMETRY                  False
THRESH                    12
SCF_CONVERGENCE           8
MAX_SUB_FILE_NUM          128
MEM_STATIC                400
MEM_TOTAL                 4000
$end
--------------------------------------------------------------

   15   -1510.0665093626      7.66E-09 Convergence criterion met
 Total energy in the final basis set = -1510.06650936
   15   -1510.1420824847      2.58E-09 Convergence criterion met
 Total energy in the final basis set = -1510.14208248
   15   -1510.1927214219      2.43E-09 Convergence criterion met
 Total energy in the final basis set = -1510.19272142
   14   -1510.2183183340      8.47E-09 Convergence criterion met
 Total energy in the final basis set = -1510.21831833
   14   -1510.2313414992      4.93E-09 Convergence criterion met
 Total energy in the final basis set = -1510.23134150
   14   -1510.2374600847      5.51E-09 Convergence criterion met
 Total energy in the final basis set = -1510.23746008
   14   -1510.2405428590      3.19E-09 Convergence criterion met
 Total energy in the final basis set = -1510.24054286
   13   -1510.2419078788      4.76E-09 Convergence criterion met
   10   -1510.2452120358      5.33E-09 Convergence criterion met
 Total energy in the final basis set = -1510.24521204
   10   -1510.2452414286      9.45E-09 Convergence criterion met
 Total energy in the final basis set = -1510.24524143
   10   -1510.2452486275      8.16E-09 Convergence criterion met
 Total energy in the final basis set = -1510.24524863
    9   -1510.2452672456      6.91E-09 Convergence criterion met
 Total energy in the final basis set = -1510.24526725
   10   -1510.2452703070      9.39E-09 Convergence criterion met
 Total energy in the final basis set = -1510.24527031
    9   -1510.2452722686      7.68E-09 Convergence criterion met
 Total energy in the final basis set = -1510.24527227

             Standard Nuclear Orientation (Angstroms)
    I     Atom           X                Y                Z
 ----------------------------------------------------------------
    1      O      -3.7316492676     0.7019844120     2.1957931820
    2      C      -3.6675782282     0.2796173003     1.0218030560
    3      C      -3.1466092021    -1.1167853805     0.5406711248
    4      C      -2.7563699688    -1.1734588737    -0.9906616850
    5      C      -2.5845059102     0.2511808720    -1.6466995211
    6      O      -1.7599653015     1.0842675856    -0.7855083755
    7      C      -0.5666483908     1.6044162326    -1.4906262346
    8      C      -0.1254186920     2.8243107840    -0.5898336901
    9      O       1.3111570105     3.0816920379    -0.3860280421
   10      C       2.1660687931     1.9085151844    -0.4621485835
   11      C       2.2816698892     1.1155654262     0.8997647846
   12      C       2.3331580889    -0.4726210999     0.8487206151
   13      C       1.9270428732    -1.2938765983    -0.4260303281
   14      O       1.6294065153    -2.5099655719    -0.4044601345
   15      O      -4.2455513991     0.9530190984    -0.1083274828
   16      O       1.8729725381    -0.4934361310    -1.6152669020
   17      O       2.9574533916     1.7935284374    -1.4212585147
   18      C       1.6897073209    -1.3445914335    -2.8151834440
   19      C       3.7233204900     1.4197226011     1.5089793783
   20      C       3.7667204474     0.9377470365     3.0139735132
   21      C       3.9454205850    -0.6152755052     2.8367387628
   22      C       3.8532104785    -0.7435171762     1.2669997651
   23      O       4.5820161471     0.4517184313     0.7910719059
   24      H       1.4703967557     1.4522425071     1.5684847369
   25      H       1.6704044420    -0.8662990424     1.6409839937
   26      H       4.0794846187     2.4540564346     1.3374271262
   27      H       4.6229064829     1.3889995672     3.5400232252
   28      H       2.8427893082     1.2002592463     3.5537915190
   29      H       4.9348197946    -0.9487933857     3.1890492984
   30      H       3.1682393817    -1.2003190110     3.3536236188
   31      H       4.2925269674    -1.6659570808     0.8399990010
   32      O      -2.9449223482     0.5789310628    -2.7964882370
   33      C      -4.6367559436     2.3363880814     0.2406099974
   34      C      -1.7924392663    -1.5739445551     1.2345029576
   35      C      -1.7128853031    -3.1461375546     1.1330209876
   36      C      -1.4365953819    -3.3292307989    -0.4055110608
   37      C      -1.3165812172    -1.8295764902    -0.8809898938
   38      O      -0.7411272883    -1.1295724066     0.2917543088
   39      H      -3.9472099725    -1.8487005345     0.7591871918
   40      H      -3.4626938650    -1.7740739860    -1.5896167928
   41      H      -3.8662209886     3.0409805786    -0.1332484479
   42      H      -1.6268372093    -1.1436396354     2.2414645123
   43      H      -0.8737675312    -3.5261285595     1.7373356424
   44      H      -2.6418408687    -3.6366686326     1.4647640433
   45      H      -0.4834533899    -3.8527298254    -0.5834083611
   46      H      -2.2480742799    -3.8645253235    -0.9243537334
   47      H      -0.6852851801    -1.6785936075    -1.7740121348
   48      H      -4.7280997064     2.4341835414     1.3410865702
   49      H      -5.6041090357     2.5496794394    -0.2518186039
   50      H       0.8432678477    -0.9458422315    -3.4068663037
   51      H       1.4879740776    -2.3895201087    -2.5041483732
   52      H       2.6117943001    -1.3018210769    -3.4281755603
   53      H      -0.5365491762     3.7706136020    -0.9996305404
   54      H      -0.6179656956     2.6465492904     0.3974494302
   55      H      -0.8021371986     1.9216410320    -2.5291626902
   56      H       0.2392280813     0.8271391928    -1.5215269882
 ----------------------------------------------------------------

    9   -1510.2452726250      3.72E-09 Convergence criterion met
 Total energy in the final basis set = -1510.24527262
 Final energy is   -1510.24527262497
 **  OPTIMIZATION CONVERGED  **

                    Orbital Energies (a.u.)
 --------------------------------------------------------------

 Alpha MOs
 -- Occupied --
-18.945 -18.940 -18.899 -18.894 -18.893 -18.891 -18.891 -18.885
-18.877 -18.876 -10.109 -10.106 -10.099 -10.099 -10.065 -10.065
-10.064 -10.063 -10.063 -10.062 -10.061 -10.059 -10.043 -10.039
-10.037 -10.035 -10.023 -10.022 -10.021 -10.021  -1.020  -1.015
 -0.998  -0.995  -0.975  -0.972  -0.945  -0.939  -0.931  -0.923
 -0.767  -0.761  -0.727  -0.721  -0.710  -0.706  -0.691  -0.664
 -0.664  -0.610  -0.600  -0.583  -0.550  -0.544  -0.540  -0.538
 -0.517  -0.513  -0.487  -0.474  -0.472  -0.455  -0.444  -0.440
 -0.436  -0.434  -0.428  -0.417  -0.416  -0.412  -0.411  -0.398
 -0.389  -0.380  -0.376  -0.372  -0.364  -0.357  -0.353  -0.351
 -0.346  -0.339  -0.337  -0.333  -0.331  -0.324  -0.317  -0.315
 -0.313  -0.309  -0.308  -0.303  -0.300  -0.295  -0.291  -0.275
 -0.272  -0.259  -0.253  -0.241  -0.235  -0.231  -0.218  -0.182
 -0.180  -0.165  -0.162  -0.160  -0.152  -0.148  -0.146  -0.143
 -0.140

          Ground-State Mulliken Net Atomic Charges

     Atom                 Charge (a.u.)
  ----------------------------------------
      1 O                    -0.211793
      2 C                     0.219333
      3 C                    -0.078257
      4 C                    -0.078656
      5 C                     0.221749
      6 O                    -0.197342
      7 C                    -0.058770
      8 C                    -0.045592
      9 O                    -0.200010
     10 C                     0.221272
     11 C                    -0.080706
     12 C                    -0.077843
     13 C                     0.219683
     14 O                    -0.219513
     15 O                    -0.165354
     16 O                    -0.167164
     17 O                    -0.171974
     18 C                    -0.136259
     19 C                     0.026303
     20 C                    -0.144709
     21 C                    -0.142387
     22 C                     0.025893
     23 O                    -0.185046
     24 H                     0.082939
     25 H                     0.090089
     26 H                     0.085625
     27 H                     0.078805
     28 H                     0.074696
     29 H                     0.078429
     30 H                     0.074548
     31 H                     0.084054
     32 O                    -0.207853
     33 C                    -0.131771
     34 C                     0.025749
     35 C                    -0.142223
     36 C                    -0.145459
     37 C                     0.023232
     38 O                    -0.192721
     39 H                     0.086147
     40 H                     0.084450
     41 H                     0.090187
     42 H                     0.086545
     43 H                     0.079858
     44 H                     0.073536
     45 H                     0.088080
     46 H                     0.073338
     47 H                     0.079708
     48 H                     0.101249
     49 H                     0.091066
     50 H                     0.085694
     51 H                     0.100407
     52 H                     0.091797
     53 H                     0.085196
     54 H                     0.078074
     55 H                     0.084601
     56 H                     0.089069
  ----------------------------------------
  Sum of atomic charges =     0.000000

                    Cartesian Multipole Moments
 -----------------------------------------------------------------
    Charge (ESU x 10^10)
                 0.0000
    Dipole Moment (Debye)
         X      -1.6866      Y      -1.9317      Z       1.7410
       Tot       3.0995
    Quadrupole Moments (Debye-Ang)
        XX    -164.3345     XY      -2.8045     YY    -157.0339
        XZ       4.6042     YZ       4.5108     ZZ    -160.7520

 Total job time:  120.38s(wall), 5744.01s(cpu)
        *  Thank you very much for using Q-Chem.  Have a nice day.  *
