 Q-Chem 5.0, Q-Chem, Inc., Pleasanton, CA (2017)
 Q-Chem 5.0.1 for Intel X86 EM64T Linux

User input:
--------------------------------------------------------------
$molecule
0  1
O -3.7316492676 0.701984412 2.195793182
C -3.6675782282 0.2796173003 1.021803056
C -3.1466092021 -1.1167853805 0.5406711248
C -2.7563699688 -1.1734588737 -0.990661685
C -2.5845059102 0.251180872 -1.6466995211
O -1.7599653015 1.0842675856 -0.7855083755
C -0.5666483908 1.6044162326 -1.4906262346
C -0.125418692 2.824310784 -0.5898336901
O 1.3111570105 3.0816920379 -0.3860280421
C 2.1660687931 1.9085151844 -0.4621485835
C 2.2816698892 1.1155654262 0.8997647846
C 2.3331580889 -0.4726210999 0.8487206151
C 1.9270428732 -1.2938765983 -0.4260303281
O 1.6294065153 -2.5099655719 -0.4044601345
O -4.2455513991 0.9530190984 -0.1083274828
O 1.8729725381 -0.493436131 -1.615266902
O 2.9574533916 1.7935284374 -1.4212585147
C 1.6897073209 -1.3445914335 -2.815183444
C 3.72332049 1.4197226011 1.5089793783
C 3.7667204474 0.9377470365 3.0139735132
C 3.945420585 -0.6152755052 2.8367387628
C 3.8532104785 -0.7435171762 1.2669997651
O 4.5820161471 0.4517184313 0.7910719059
H 1.4703967557 1.4522425071 1.5684847369
H 1.670404442 -0.8662990424 1.6409839937
H 4.0794846187 2.4540564346 1.3374271262
H 4.6229064829 1.3889995672 3.5400232252
H 2.8427893082 1.2002592463 3.553791519
H 4.9348197946 -0.9487933857 3.1890492984
H 3.1682393817 -1.200319011 3.3536236188
H 4.2925269674 -1.6659570808 0.839999001
O -2.9449223482 0.5789310628 -2.796488237
C -4.6367559436 2.3363880814 0.2406099974
C -1.7924392663 -1.5739445551 1.2345029576
C -1.7128853031 -3.1461375546 1.1330209876
C -1.4365953819 -3.3292307989 -0.4055110608
C -1.3165812172 -1.8295764902 -0.8809898938
O -0.7411272883 -1.1295724066 0.2917543088
H -3.9472099725 -1.8487005345 0.7591871918
H -3.462693865 -1.774073986 -1.5896167928
H -3.8662209886 3.0409805786 -0.1332484479
H -1.6268372093 -1.1436396354 2.2414645123
H -0.8737675312 -3.5261285595 1.7373356424
H -2.6418408687 -3.6366686326 1.4647640433
H -0.4834533899 -3.8527298254 -0.5834083611
H -2.2480742799 -3.8645253235 -0.9243537334
H -0.6852851801 -1.6785936075 -1.7740121348
H -4.7280997064 2.4341835414 1.3410865702
H -5.6041090357 2.5496794394 -0.2518186039
H 0.8432678477 -0.9458422315 -3.4068663037
H 1.4879740776 -2.3895201087 -2.5041483732
H 2.6117943001 -1.3018210769 -3.4281755603
H -0.5365491762 3.770613602 -0.9996305404
H -0.6179656956 2.6465492904 0.3974494302
H -0.8021371986 1.921641032 -2.5291626902
H 0.2392280813 0.8271391928 -1.5215269882
$end

$rem
JOBTYPE                   OPT
METHOD                    B3LYP
DFT_D                     d3_op
BASIS                     STO-3G
GEOM_OPT_MAX_CYCLES       100
GEOM_OPT_TOL_GRADIENT     300
GEOM_OPT_TOL_DISPLACEMENT 1200
GEOM_OPT_TOL_ENERGY       100
SYMMETRY                  False
THRESH                    12
SCF_CONVERGENCE           8
MAX_SUB_FILE_NUM          128
MEM_STATIC                400
MEM_TOTAL                 4000
$end
--------------------------------------------------------------

   16   -1510.2451511950      5.72E-09 Convergence criterion met
 Total energy in the final basis set = -1510.24515120
   14   -1510.2476004924      4.34E-09 Convergence criterion met
 Total energy in the final basis set = -1510.24760049
   14   -1510.2533901085      9.96E-09 Convergence criterion met
 Total energy in the final basis set = -1510.25339011
   13   -1510.2593602799      7.67E-09 Convergence criterion met
 Total energy in the final basis set = -1510.25936028
   13   -1510.2649883353      4.59E-09 Convergence criterion met
 Total energy in the final basis set = -1510.26498834
   13   -1510.2699001119      2.71E-09 Convergence criterion met
 Total energy in the final basis set = -1510.26990011
   14   -1510.2731049120      4.76E-09 Convergence criterion met
 Total energy in the final basis set = -1510.27310491
   13   -1510.2767932635      6.96E-09 Convergence criterion met
   10   -1510.2923210580      7.31E-09 Convergence criterion met
 Total energy in the final basis set = -1510.29232106
   11   -1510.2923323029      2.64E-09 Convergence criterion met
 Total energy in the final basis set = -1510.29233230
   12   -1510.2923504977      3.05E-09 Convergence criterion met
 Total energy in the final basis set = -1510.29235050
   11   -1510.2923525846      4.92E-09 Convergence criterion met
 Total energy in the final basis set = -1510.29235258
   10   -1510.2923539557      6.14E-09 Convergence criterion met
 Total energy in the final basis set = -1510.29235396
    9   -1510.2923554227      3.81E-09 Convergence criterion met
 Total energy in the final basis set = -1510.29235542

             Standard Nuclear Orientation (Angstroms)
    I     Atom           X                Y                Z
 ----------------------------------------------------------------
    1      O      -1.4285947193     0.9385336569     2.0780804837
    2      C      -2.3533980788     0.3665606438     1.4601602022
    3      C      -2.5636773353    -1.1766583256     1.2382777426
    4      C      -2.2782545097    -1.6331940270    -0.2579268620
    5      C      -2.1210095501    -0.4493963873    -1.2666802525
    6      O      -1.1036259016     0.4324061372    -0.7784851472
    7      C      -1.0092594520     1.6520522648    -1.6127079426
    8      C      -0.2828900013     2.7552732887    -0.7499208397
    9      O       1.0716374271     3.0717529927    -1.2337822745
   10      C       2.1871149975     2.3364026331    -0.6773676893
   11      C       1.9595756106     1.2194828754     0.4198206120
   12      C       1.6582226475    -0.2519389684    -0.0853837437
   13      C       1.4384518253    -0.4982426426    -1.6057582656
   14      O       0.8749752618    -1.5033577954    -2.1134660753
   15      O      -3.4612247970     1.0388308564     0.8441695139
   16      O       2.0017027500     0.5517061920    -2.3873464477
   17      O       3.3182462392     2.7200251049    -1.0456556341
   18      C       1.8374830979     0.2946138581    -3.8372195454
   19      C       3.3301533032     0.9832769787     1.1905748013
   20      C       3.0200870582     0.1965557053     2.5264203102
   21      C       2.7760385762    -1.2572201048     1.9772283049
   22      C       2.9605567821    -1.0213758877     0.4277150351
   23      O       4.0329227442    -0.0089744361     0.3473414301
   24      H       1.1724218985     1.5327362250     1.1272532066
   25      H       0.7685425727    -0.6713175588     0.4382916180
   26      H       3.9461737071     1.8962969301     1.3017296546
   27      H       3.8861240978     0.2341496530     3.2060484479
   28      H       2.1411871877     0.6064136510     3.0491065653
   29      H       3.5294545676    -1.9662023586     2.3559461249
   30      H       1.7675288502    -1.6423115828     2.2014312418
   31      H       3.2251057682    -1.9226000320    -0.1590186468
   32      O      -2.7623767018    -0.2602742606    -2.3221009058
   33      C      -3.3617705268     2.5029340657     1.0413275971
   34      C      -1.4684562563    -2.0062970173     2.0131631657
   35      C      -1.8285517187    -3.5438984774     1.9402215314
   36      C      -1.3738942915    -3.9089283766     0.4741677606
   37      C      -0.9479972954    -2.4953053150    -0.0699663408
   38      O      -0.2961317809    -1.8916847110     1.1175418618
   39      H      -3.5932056108    -1.4392784607     1.5422985010
   40      H      -3.1011542116    -2.2652787607    -0.6349212790
   41      H      -3.3404005741     2.9995898586     0.0519017436
   42      H      -1.2250147360    -1.6149458646     3.0199320144
   43      H      -1.2604022662    -4.1106242043     2.6946062285
   44      H      -2.9040574019    -3.7182587140     2.1036739291
   45      H      -0.5093720641    -4.5920861352     0.4825086980
   46      H      -2.1804575425    -4.3655629174    -0.1209432628
   47      H      -0.2416095469    -2.4319506105    -0.9365912246
   48      H      -2.4392432598     2.7403298117     1.6082480601
   49      H      -4.2508546371     2.8511828747     1.6028441551
   50      H       1.3692802748     1.1850962789    -4.2993508000
   51      H       1.2021891158    -0.6030154957    -3.9806566714
   52      H       2.8348944048     0.1290655080    -4.2897615956
   53      H      -0.8443440267     3.7076374734    -0.8487076103
   54      H      -0.3196649854     2.4436715794     0.3149575664
   55      H      -2.0252221617     1.9834250983    -1.9152395240
   56      H      -0.4247498840     1.4523284697    -2.5367651136
 ----------------------------------------------------------------

    9   -1510.2923561191      2.77E-09 Convergence criterion met
 Total energy in the final basis set = -1510.29235612
 Final energy is   -1510.29235611908
 **  OPTIMIZATION CONVERGED  **

                    Orbital Energies (a.u.)
 --------------------------------------------------------------

 Alpha MOs
 -- Occupied --
-18.943 -18.941 -18.941 -18.919 -18.907 -18.885 -18.885 -18.877
-18.876 -18.857 -10.112 -10.108 -10.104 -10.089 -10.077 -10.076
-10.072 -10.069 -10.061 -10.055 -10.049 -10.048 -10.047 -10.043
-10.028 -10.025 -10.025 -10.013 -10.009 -10.005  -1.026  -1.018
 -1.015  -0.992  -0.985  -0.960  -0.947  -0.946  -0.939  -0.923
 -0.773  -0.750  -0.733  -0.718  -0.710  -0.704  -0.694  -0.672
 -0.660  -0.615  -0.595  -0.590  -0.554  -0.545  -0.538  -0.528
 -0.522  -0.504  -0.495  -0.482  -0.471  -0.459  -0.454  -0.443
 -0.439  -0.435  -0.421  -0.419  -0.415  -0.412  -0.409  -0.400
 -0.392  -0.386  -0.385  -0.377  -0.370  -0.363  -0.358  -0.356
 -0.351  -0.341  -0.336  -0.331  -0.328  -0.320  -0.315  -0.311
 -0.307  -0.305  -0.303  -0.299  -0.295  -0.291  -0.286  -0.278
 -0.268  -0.259  -0.258  -0.242  -0.239  -0.228  -0.219  -0.188
 -0.184  -0.178  -0.171  -0.164  -0.161  -0.159  -0.156  -0.134
 -0.133

          Ground-State Mulliken Net Atomic Charges

     Atom                 Charge (a.u.)
  ----------------------------------------
      1 O                    -0.219849
      2 C                     0.216623
      3 C                    -0.077821
      4 C                    -0.081480
      5 C                     0.212731
      6 O                    -0.179458
      7 C                    -0.053401
      8 C                    -0.050706
      9 O                    -0.175824
     10 C                     0.215566
     11 C                    -0.086316
     12 C                    -0.099622
     13 C                     0.214827
     14 O                    -0.228709
     15 O                    -0.174153
     16 O                    -0.162686
     17 O                    -0.203563
     18 C                    -0.134700
     19 C                     0.027334
     20 C                    -0.145267
     21 C                    -0.146025
     22 C                     0.025183
     23 O                    -0.189230
     24 H                     0.081827
     25 H                     0.122835
     26 H                     0.086505
     27 H                     0.074781
     28 H                     0.073618
     29 H                     0.072604
     30 H                     0.083264
     31 H                     0.078131
     32 O                    -0.207468
     33 C                    -0.136595
     34 C                     0.027011
     35 C                    -0.144181
     36 C                    -0.143018
     37 C                     0.011481
     38 O                    -0.191793
     39 H                     0.088301
     40 H                     0.087558
     41 H                     0.083743
     42 H                     0.088687
     43 H                     0.079468
     44 H                     0.074947
     45 H                     0.080104
     46 H                     0.076156
     47 H                     0.114276
     48 H                     0.099350
     49 H                     0.087823
     50 H                     0.089200
     51 H                     0.102336
     52 H                     0.091974
     53 H                     0.087337
     54 H                     0.093400
     55 H                     0.091127
     56 H                     0.091759
  ----------------------------------------
  Sum of atomic charges =    -0.000000

                    Cartesian Multipole Moments
 -----------------------------------------------------------------
    Charge (ESU x 10^10)
                -0.0000
    Dipole Moment (Debye)
         X      -4.1553      Y      -1.5169      Z       2.0855
       Tot       4.8905
    Quadrupole Moments (Debye-Ang)
        XX    -171.7994     XY      -8.5134     YY    -155.8777
        XZ      -2.8670     YZ       0.0144     ZZ    -156.4893

 Total job time:  131.28s(wall), 6263.04s(cpu)
        *  Thank you very much for using Q-Chem.  Have a nice day.  *
