 Q-Chem 5.0, Q-Chem, Inc., Pleasanton, CA (2017)
 Q-Chem 5.0.1 for Intel X86 EM64T Linux

User input:
--------------------------------------------------------------
$molecule
0  1
O 1.5478586195 1.0402008783 2.2239247216
C 2.5529849087 0.4394718231 1.7812344944
C 3.5812318687 1.020940773 0.7464681238
C 4.2011939866 0.0793765372 -0.3733958288
C 3.7012977102 -1.4062409411 -0.675277892
O 2.3696142831 -1.8689191926 -0.4493716532
C 1.3010450032 -0.8425861176 -0.5406236559
C 0.0689874679 -1.5361497241 -1.2269610077
O -1.2210735684 -0.8273916332 -1.0090708062
C -1.4534955885 -0.4565118667 0.3547264332
C -2.5459051036 0.6679531236 0.4064373115
C -3.6074977169 0.6764210016 -0.7642375141
C -3.6793543196 -0.6595197284 -1.5840093983
O -3.8520031044 -0.7767738552 -2.8162945341
O 2.9401741061 -0.878323925 2.1585814272
O -3.6772678265 -1.7597954081 -0.6630465298
O -0.8529484776 -0.93067055 1.3462584872
C -3.7288013305 -3.0375546995 -1.4054207428
C -3.4760446589 0.617720023 1.6919159033
C -3.9896837963 2.0859286977 1.9550810846
C -4.9843111614 2.2680149376 0.7481805045
C -4.9446782337 0.8294805161 0.0901386268
O -4.6990948938 -0.0796232735 1.2330798033
H -1.9848346062 1.622514547 0.3981953599
H -3.4530686844 1.5125809167 -1.4674634162
H -3.024296494 0.0970369515 2.5588487406
H -4.5163780151 2.1402331797 2.9212496641
H -3.172426673 2.824976669 1.9535526621
H -6.0028536064 2.506483174 1.0931619911
H -4.6587350817 3.0503178793 0.0437167764
H -5.86610093 0.5350774757 -0.4490608548
O 4.5371421094 -2.2620770541 -1.0509446846
C 1.901199853 -1.4754031149 3.0362655654
C 2.9467710082 2.18760161 -0.1270884281
C 4.1040409012 3.1648762962 -0.5539861085
C 4.8744792416 2.2726556019 -1.5982310244
C 3.9567379521 0.991076121 -1.6587726981
O 2.5941974788 1.534154142 -1.4156435647
H 4.4178043878 1.431162045 1.3429851724
H 5.2841772563 -0.0455385072 -0.1981378288
H 0.8917921112 -1.3964510508 2.5763342354
H 2.0522530992 2.6534777304 0.3320409378
H 3.6900450932 4.0700809811 -1.026590337
H 4.7320902225 3.4647490483 0.2998223889
H 4.9245769378 2.7573892462 -2.5860397667
H 5.8980968105 2.026431394 -1.2734375759
H 3.9850151965 0.4403866504 -2.6193331985
H 1.8843194155 -0.9833037028 4.0300129208
H 2.1821697122 -2.5377180788 3.1536946243
H -3.7835314451 -3.8337447584 -0.6403602296
H -2.8195061755 -3.1815251283 -2.0248119276
H -4.6175541901 -3.0940037859 -2.0665563117
H 0.1824841582 -1.5796319049 -2.3287784489
H -0.000785688 -2.5773749391 -0.8378969727
H 1.64394271 0.0906720579 -1.0599762102
H 0.9695293705 -0.5881818421 0.4815794322
$end

$rem
JOBTYPE                   OPT
METHOD                    B3LYP
DFT_D                     d3_op
BASIS                     STO-3G
GEOM_OPT_MAX_CYCLES       100
GEOM_OPT_TOL_GRADIENT     300
GEOM_OPT_TOL_DISPLACEMENT 1200
GEOM_OPT_TOL_ENERGY       100
SYMMETRY                  False
THRESH                    12
SCF_CONVERGENCE           8
MAX_SUB_FILE_NUM          128
MEM_STATIC                400
MEM_TOTAL                 4000
$end
--------------------------------------------------------------

   16   -1510.2663976885      6.09E-09 Convergence criterion met
 Total energy in the final basis set = -1510.26639769
   13   -1510.2687353325      8.33E-09 Convergence criterion met
 Total energy in the final basis set = -1510.26873533
   14   -1510.2712263177      4.17E-09 Convergence criterion met
 Total energy in the final basis set = -1510.27122632
   14   -1510.2729738612      3.33E-09 Convergence criterion met
 Total energy in the final basis set = -1510.27297386
   13   -1510.2744332910      7.02E-09 Convergence criterion met
 Total energy in the final basis set = -1510.27443329
   13   -1510.2760483513      8.28E-09 Convergence criterion met
 Total energy in the final basis set = -1510.27604835
   13   -1510.2770467462      8.00E-09 Convergence criterion met
 Total energy in the final basis set = -1510.27704675
   13   -1510.2782015018      4.47E-09 Convergence criterion met
   13   -1510.2864909145      3.57E-09 Convergence criterion met
 Total energy in the final basis set = -1510.28649091
   11   -1510.2866050799      9.71E-09 Convergence criterion met
 Total energy in the final basis set = -1510.28660508
   11   -1510.2865942805      9.11E-09 Convergence criterion met
 Total energy in the final basis set = -1510.28659428
   11   -1510.2866035806      5.66E-09 Convergence criterion met
 Total energy in the final basis set = -1510.28660358
   10   -1510.2866064859      6.38E-09 Convergence criterion met
 Total energy in the final basis set = -1510.28660649
    9   -1510.2866047338      6.61E-09 Convergence criterion met
 Total energy in the final basis set = -1510.28660473

             Standard Nuclear Orientation (Angstroms)
    I     Atom           X                Y                Z
 ----------------------------------------------------------------
    1      O      -3.1968658042    -1.2335466535     2.7420356040
    2      C      -3.7367935171    -0.7369723107     1.7308480939
    3      C      -3.3910783562    -1.0111361390     0.2231306051
    4      C      -2.7630565251     0.2563306994    -0.5072365547
    5      C      -2.8470975939     1.6119043433     0.3198394384
    6      O      -2.3380373919     1.7154381691     1.6609739646
    7      C      -1.0867612813     0.9780036953     1.9429214742
    8      C       0.1839001027     1.7966181638     1.4603131370
    9      O       0.8413055525     1.1091381955     0.3240573488
   10      C       1.7220108682     0.0743413080     0.8115575629
   11      C       2.0628395914    -0.8810314783    -0.3829281826
   12      C       2.5444031362    -0.1387213483    -1.6966442255
   13      C       2.6791258535     1.4106474669    -1.5086588666
   14      O       2.2158447358     2.3099311950    -2.2418773164
   15      O      -4.8089260760     0.2082392651     1.7525032774
   16      O       3.4712835809     1.6462385702    -0.3364059018
   17      O       2.0584952996    -0.0489707888     2.0062543574
   18      C       3.5467695536     3.0968773560    -0.0571436835
   19      C       3.3060111876    -1.8060585529    -0.0687922921
   20      C       3.2776848437    -3.0201427620    -1.0772007146
   21      C       3.7260166021    -2.3127709189    -2.4106961761
   22      C       3.9617136465    -0.8313981002    -1.9101371117
   23      O       4.4645333910    -1.0048768120    -0.5297949253
   24      H       1.1462907623    -1.4758294946    -0.5661817230
   25      H       1.8640093457    -0.3191478520    -2.5471593509
   26      H       3.4130286507    -2.0646267572     1.0026411174
   27      H       3.9973980328    -3.7954860965    -0.7697692459
   28      H       2.2768911767    -3.4749588656    -1.1513777509
   29      H       4.6643019256    -2.7390919814    -2.7999160327
   30      H       2.9603249674    -2.3677232617    -3.2012149582
   31      H       4.6763790598    -0.2386693596    -2.5135223501
   32      O      -3.4941741983     2.5893956813    -0.1204165535
   33      C      -5.0675495270     0.6549710072     3.1403944680
   34      C      -2.2294326262    -2.0684359233     0.0574414919
   35      C      -2.1639166562    -2.5307147490    -1.4494714353
   36      C      -1.5054972051    -1.2717010578    -2.1347190283
   37      C      -1.3331177474    -0.3026607984    -0.9069483553
   38      O      -1.0006091507    -1.2453679579     0.1973860334
   39      H      -4.3146655619    -1.3315994250    -0.2912371636
   40      H      -3.3389574755     0.4788725722    -1.4231248903
   41      H      -4.2152522377     1.2563351348     3.5187496384
   42      H      -2.2352125546    -2.8778373377     0.8135308954
   43      H      -1.5274791788    -3.4242062664    -1.5511005487
   44      H      -3.1620414883    -2.7602939833    -1.8552279108
   45      H      -0.5239619271    -1.5185853913    -2.5703809179
   46      H      -2.1398655348    -0.8367423185    -2.9231018896
   47      H      -0.5228281848     0.4547055966    -0.9633542232
   48      H      -5.2364533665    -0.2023862600     3.8229481784
   49      H      -5.9746009765     1.2850171598     3.0960152869
   50      H       4.1880581005     3.2025011647     0.8370492017
   51      H       2.5425621185     3.5184039487     0.1543117850
   52      H       3.9929758013     3.6555826192    -0.9048636751
   53      H      -0.1248501832     2.7944630702     1.0872787696
   54      H       0.9066210841     1.9138419625     2.2943225958
   55      H      -1.0607339087    -0.0376932341     1.4592110923
   56      H      -1.0635836189     0.8678372824     3.0450245540
 ----------------------------------------------------------------

    9   -1510.2866040212      2.66E-09 Convergence criterion met
 Total energy in the final basis set = -1510.28660402
 Final energy is   -1510.28660402122
 **  OPTIMIZATION CONVERGED  **

                    Orbital Energies (a.u.)
 --------------------------------------------------------------

 Alpha MOs
 -- Occupied --
-18.938 -18.932 -18.932 -18.921 -18.917 -18.887 -18.881 -18.880
-18.874 -18.872 -10.105 -10.103 -10.098 -10.098 -10.076 -10.066
-10.066 -10.063 -10.062 -10.061 -10.057 -10.049 -10.047 -10.042
-10.038 -10.035 -10.035 -10.033 -10.022 -10.020  -1.018  -1.016
 -1.005  -0.999  -0.992  -0.970  -0.941  -0.941  -0.934  -0.931
 -0.774  -0.764  -0.733  -0.726  -0.716  -0.707  -0.693  -0.664
 -0.658  -0.613  -0.604  -0.587  -0.560  -0.551  -0.545  -0.537
 -0.520  -0.510  -0.486  -0.481  -0.474  -0.463  -0.451  -0.446
 -0.438  -0.433  -0.423  -0.417  -0.415  -0.411  -0.409  -0.407
 -0.388  -0.382  -0.376  -0.369  -0.369  -0.360  -0.357  -0.351
 -0.349  -0.345  -0.341  -0.339  -0.331  -0.327  -0.324  -0.321
 -0.313  -0.311  -0.307  -0.305  -0.295  -0.291  -0.290  -0.284
 -0.274  -0.260  -0.257  -0.250  -0.247  -0.234  -0.232  -0.189
 -0.180  -0.175  -0.171  -0.160  -0.160  -0.153  -0.149  -0.145
 -0.143

          Ground-State Mulliken Net Atomic Charges

     Atom                 Charge (a.u.)
  ----------------------------------------
      1 O                    -0.212281
      2 C                     0.208924
      3 C                    -0.082230
      4 C                    -0.086154
      5 C                     0.206945
      6 O                    -0.182671
      7 C                    -0.075417
      8 C                    -0.058311
      9 O                    -0.184661
     10 C                     0.221783
     11 C                    -0.082333
     12 C                    -0.080605
     13 C                     0.212315
     14 O                    -0.214674
     15 O                    -0.168902
     16 O                    -0.167456
     17 O                    -0.208073
     18 C                    -0.127681
     19 C                     0.024682
     20 C                    -0.143587
     21 C                    -0.144039
     22 C                     0.026139
     23 O                    -0.185779
     24 H                     0.092675
     25 H                     0.081212
     26 H                     0.091200
     27 H                     0.078166
     28 H                     0.072056
     29 H                     0.078130
     30 H                     0.071993
     31 H                     0.082741
     32 O                    -0.197815
     33 C                    -0.128360
     34 C                     0.024614
     35 C                    -0.143547
     36 C                    -0.143182
     37 C                     0.010843
     38 O                    -0.191295
     39 H                     0.089248
     40 H                     0.089786
     41 H                     0.095124
     42 H                     0.093067
     43 H                     0.079075
     44 H                     0.077901
     45 H                     0.076284
     46 H                     0.079709
     47 H                     0.107143
     48 H                     0.090042
     49 H                     0.092842
     50 H                     0.092264
     51 H                     0.086868
     52 H                     0.089328
     53 H                     0.090884
     54 H                     0.096084
     55 H                     0.112613
     56 H                     0.086377
  ----------------------------------------
  Sum of atomic charges =    -0.000000

                    Cartesian Multipole Moments
 -----------------------------------------------------------------
    Charge (ESU x 10^10)
                -0.0000
    Dipole Moment (Debye)
         X      -0.7992      Y      -2.6727      Z      -1.5735
       Tot       3.2028
    Quadrupole Moments (Debye-Ang)
        XX    -162.7591     XY       9.9524     YY    -159.1209
        XZ      -4.7592     YZ      10.9464     ZZ    -160.2268

 Total job time:  119.23s(wall), 5689.87s(cpu)
        *  Thank you very much for using Q-Chem.  Have a nice day.  *
