 Q-Chem 5.0, Q-Chem, Inc., Pleasanton, CA (2017)
 Q-Chem 5.0.1 for Intel X86 EM64T Linux

User input:
--------------------------------------------------------------
$molecule
0  1
O -3.94934 -3.66094 2.70899
C -3.26408 -4.56952 2.26188
C -3.36658 -6.02376 2.66595
C -2.05424 -6.81773 2.77194
C -0.77335 -6.02476 2.63554
O -0.97412 -4.74229 3.06027
C -1.99552 -4.63265 4.05725
C -1.60355 -3.58979 5.09886
O -2.76698 -3.16036 5.82334
C -3.8443 -2.84499 5.06237
C -5.13688 -2.84601 5.84332
C -4.99171 -2.51478 7.3358
C -3.67278 -1.89356 7.74954
O -3.07397 -2.12819 8.78922
O -2.56172 -4.3199 1.11791
O -3.24229 -0.83525 7.00494
O -3.69448 -1.94579 4.24001
C -2.10142 -0.10588 7.26628
C -6.16812 -1.76998 5.42219
C -7.57085 -2.20443 5.84756
C -7.4777 -2.02789 7.34846
C -6.07413 -1.42508 7.46553
O -5.92067 -0.68555 6.27883
H -5.59654 -3.84278 5.66122
H -5.19027 -3.37682 8.01026
H -6.16205 -1.54817 4.33284
H -8.28387 -1.44883 5.44609
H -7.88021 -3.2157 5.50617
H -8.24735 -1.28856 7.6634
H -7.57749 -2.96041 7.94513
H -5.97668 -0.84886 8.41258
O 0.11335 -6.30013 1.84187
C -2.43824 -3.07581 0.53512
C -4.21384 -6.73135 3.78186
C -4.63927 -8.13617 3.32636
C -3.32075 -8.89457 3.4624
C -2.38933 -7.7765 3.95313
O -3.27364 -7.0613 4.78661
H -3.86543 -6.36669 1.73031
H -1.96838 -7.47706 1.87617
H -1.94991 -2.37126 1.24208
H -5.08999 -6.1237 4.09443
H -5.358 -8.55025 4.06865
H -5.10355 -8.16445 2.31733
H -3.43073 -9.64147 4.28067
H -2.97329 -9.41446 2.54385
H -1.47825 -8.19403 4.4321
H -3.43775 -2.68627 0.24646
H -1.81104 -3.1616 -0.37565
H -1.99512 0.68871 6.49974
H -1.20906 -0.76646 7.22283
H -2.17067 0.36934 8.26794
H -0.78787 -3.88133 5.80494
H -1.21252 -2.70797 4.54383
H -1.6644 -5.43092 4.76093
H -2.94084 -4.92245 4.51164
$end

$opt
CONSTRAINT
tors           1           2           3           4    -142.105
tors           3           4           5           6     +28.421
tors           4           5           6           7     +28.421
tors           5           6           7           8    +142.105
tors           6           7           8           9    +161.053
tors           7           8           9          10     -47.368
tors           8           9          10          11    +161.053
tors           9          10          11          12     +28.421
tors          11          12          13          14    -142.105
ENDCONSTRAINT
$end

$rem
JOBTYPE                   OPT
METHOD                    B3LYP
DFT_D                     d3_op
BASIS                     STO-3G
GEOM_OPT_MAX_CYCLES       100
GEOM_OPT_TOL_GRADIENT     300
GEOM_OPT_TOL_DISPLACEMENT 1200
GEOM_OPT_TOL_ENERGY       100
SYMMETRY                  False
THRESH                    12
SCF_CONVERGENCE           8
MAX_SUB_FILE_NUM          128
MEM_STATIC                400
MEM_TOTAL                 4000
$end
--------------------------------------------------------------

   16   -1509.9305600431      4.31E-09 Convergence criterion met
 Total energy in the final basis set = -1509.93056004
   14   -1510.0221946330      9.82E-09 Convergence criterion met
 Total energy in the final basis set = -1510.02219463
   14   -1510.0882203880      2.97E-09 Convergence criterion met
 Total energy in the final basis set = -1510.08822039
    2   -1510.0882203880      4.63E-09 Convergence criterion met
 Total energy in the final basis set = -1510.08822039
   14   -1510.1361253026      3.52E-09 Convergence criterion met
 Total energy in the final basis set = -1510.13612530
    2   -1510.1361253024      4.30E-09 Convergence criterion met
 Total energy in the final basis set = -1510.13612530
   14   -1510.1698470953      4.25E-09 Convergence criterion met
 Total energy in the final basis set = -1510.16984710
   14   -1510.1937438147      3.88E-09 Convergence criterion met
   10   -1510.2664769119      7.57E-09 Convergence criterion met
 Total energy in the final basis set = -1510.26647691
   10   -1510.2664869507      7.40E-09 Convergence criterion met
 Total energy in the final basis set = -1510.26648695
    9   -1510.2664935640      9.60E-09 Convergence criterion met
 Total energy in the final basis set = -1510.26649356
    9   -1510.2664963083      5.82E-09 Convergence criterion met
 Total energy in the final basis set = -1510.26649631
    9   -1510.2664980217      4.35E-09 Convergence criterion met
 Total energy in the final basis set = -1510.26649802
    9   -1510.2665024829      3.73E-09 Convergence criterion met
 Total energy in the final basis set = -1510.26650248

             Standard Nuclear Orientation (Angstroms)
    I     Atom           X                Y                Z
 ----------------------------------------------------------------
    1      O       1.5478586195     1.0402008783     2.2239247216
    2      C       2.5529849087     0.4394718231     1.7812344944
    3      C       3.5812318687     1.0209407730     0.7464681238
    4      C       4.2011939866     0.0793765372    -0.3733958288
    5      C       3.7012977102    -1.4062409411    -0.6752778920
    6      O       2.3696142831    -1.8689191926    -0.4493716532
    7      C       1.3010450032    -0.8425861176    -0.5406236559
    8      C       0.0689874679    -1.5361497241    -1.2269610077
    9      O      -1.2210735684    -0.8273916332    -1.0090708062
   10      C      -1.4534955885    -0.4565118667     0.3547264332
   11      C      -2.5459051036     0.6679531236     0.4064373115
   12      C      -3.6074977169     0.6764210016    -0.7642375141
   13      C      -3.6793543196    -0.6595197284    -1.5840093983
   14      O      -3.8520031044    -0.7767738552    -2.8162945341
   15      O       2.9401741061    -0.8783239250     2.1585814272
   16      O      -3.6772678265    -1.7597954081    -0.6630465298
   17      O      -0.8529484776    -0.9306705500     1.3462584872
   18      C      -3.7288013305    -3.0375546995    -1.4054207428
   19      C      -3.4760446589     0.6177200230     1.6919159033
   20      C      -3.9896837963     2.0859286977     1.9550810846
   21      C      -4.9843111614     2.2680149376     0.7481805045
   22      C      -4.9446782337     0.8294805161     0.0901386268
   23      O      -4.6990948938    -0.0796232735     1.2330798033
   24      H      -1.9848346062     1.6225145470     0.3981953599
   25      H      -3.4530686844     1.5125809167    -1.4674634162
   26      H      -3.0242964940     0.0970369515     2.5588487406
   27      H      -4.5163780151     2.1402331797     2.9212496641
   28      H      -3.1724266730     2.8249766690     1.9535526621
   29      H      -6.0028536064     2.5064831740     1.0931619911
   30      H      -4.6587350817     3.0503178793     0.0437167764
   31      H      -5.8661009300     0.5350774757    -0.4490608548
   32      O       4.5371421094    -2.2620770541    -1.0509446846
   33      C       1.9011998530    -1.4754031149     3.0362655654
   34      C       2.9467710082     2.1876016100    -0.1270884281
   35      C       4.1040409012     3.1648762962    -0.5539861085
   36      C       4.8744792416     2.2726556019    -1.5982310244
   37      C       3.9567379521     0.9910761210    -1.6587726981
   38      O       2.5941974788     1.5341541420    -1.4156435647
   39      H       4.4178043878     1.4311620450     1.3429851724
   40      H       5.2841772563    -0.0455385072    -0.1981378288
   41      H       0.8917921112    -1.3964510508     2.5763342354
   42      H       2.0522530992     2.6534777304     0.3320409378
   43      H       3.6900450932     4.0700809811    -1.0265903370
   44      H       4.7320902225     3.4647490483     0.2998223889
   45      H       4.9245769378     2.7573892462    -2.5860397667
   46      H       5.8980968105     2.0264313940    -1.2734375759
   47      H       3.9850151965     0.4403866504    -2.6193331985
   48      H       1.8843194155    -0.9833037028     4.0300129208
   49      H       2.1821697122    -2.5377180788     3.1536946243
   50      H      -3.7835314451    -3.8337447584    -0.6403602296
   51      H      -2.8195061755    -3.1815251283    -2.0248119276
   52      H      -4.6175541901    -3.0940037859    -2.0665563117
   53      H       0.1824841582    -1.5796319049    -2.3287784489
   54      H      -0.0007856880    -2.5773749391    -0.8378969727
   55      H       1.6439427100     0.0906720579    -1.0599762102
   56      H       0.9695293705    -0.5881818421     0.4815794322
 ----------------------------------------------------------------

    9   -1510.2665030611      2.05E-09 Convergence criterion met
 Total energy in the final basis set = -1510.26650306
 Final energy is   -1510.26650306109
 **  OPTIMIZATION CONVERGED  **

                    Orbital Energies (a.u.)
 --------------------------------------------------------------

 Alpha MOs
 -- Occupied --
-18.939 -18.938 -18.924 -18.924 -18.918 -18.887 -18.882 -18.876
-18.866 -18.864 -10.109 -10.106 -10.097 -10.092 -10.075 -10.074
-10.071 -10.059 -10.058 -10.057 -10.056 -10.047 -10.044 -10.043
-10.038 -10.035 -10.033 -10.032 -10.020 -10.018  -1.017  -1.015
 -1.001  -0.999  -0.991  -0.969  -0.943  -0.940  -0.929  -0.926
 -0.773  -0.763  -0.731  -0.724  -0.717  -0.707  -0.696  -0.660
 -0.654  -0.611  -0.606  -0.588  -0.556  -0.550  -0.542  -0.536
 -0.523  -0.510  -0.488  -0.478  -0.472  -0.461  -0.450  -0.442
 -0.438  -0.433  -0.426  -0.417  -0.414  -0.409  -0.406  -0.405
 -0.390  -0.379  -0.374  -0.370  -0.364  -0.362  -0.352  -0.349
 -0.346  -0.343  -0.337  -0.332  -0.329  -0.324  -0.322  -0.320
 -0.314  -0.312  -0.308  -0.305  -0.294  -0.289  -0.288  -0.278
 -0.276  -0.258  -0.256  -0.247  -0.244  -0.233  -0.232  -0.189
 -0.179  -0.168  -0.166  -0.164  -0.159  -0.151  -0.143  -0.142
 -0.141

          Ground-State Mulliken Net Atomic Charges

     Atom                 Charge (a.u.)
  ----------------------------------------
      1 O                    -0.217802
      2 C                     0.208453
      3 C                    -0.084220
      4 C                    -0.083163
      5 C                     0.209503
      6 O                    -0.173197
      7 C                    -0.085926
      8 C                    -0.048608
      9 O                    -0.171614
     10 C                     0.223263
     11 C                    -0.077831
     12 C                    -0.078211
     13 C                     0.215620
     14 O                    -0.218794
     15 O                    -0.166619
     16 O                    -0.168599
     17 O                    -0.215283
     18 C                    -0.127306
     19 C                     0.025775
     20 C                    -0.142500
     21 C                    -0.144877
     22 C                     0.025454
     23 O                    -0.185844
     24 H                     0.084854
     25 H                     0.085280
     26 H                     0.090174
     27 H                     0.078095
     28 H                     0.073657
     29 H                     0.077904
     30 H                     0.073428
     31 H                     0.082532
     32 O                    -0.205882
     33 C                    -0.134576
     34 C                     0.023445
     35 C                    -0.141851
     36 C                    -0.143735
     37 C                     0.023333
     38 O                    -0.187620
     39 H                     0.087382
     40 H                     0.090864
     41 H                     0.108042
     42 H                     0.093481
     43 H                     0.080985
     44 H                     0.077320
     45 H                     0.081571
     46 H                     0.078459
     47 H                     0.087462
     48 H                     0.085209
     49 H                     0.092154
     50 H                     0.089827
     51 H                     0.085691
     52 H                     0.088400
     53 H                     0.090646
     54 H                     0.089837
     55 H                     0.108413
     56 H                     0.087544
  ----------------------------------------
  Sum of atomic charges =     0.000000

                    Cartesian Multipole Moments
 -----------------------------------------------------------------
    Charge (ESU x 10^10)
                 0.0000
    Dipole Moment (Debye)
         X       1.0321      Y       3.5273      Z       0.5391
       Tot       3.7145
    Quadrupole Moments (Debye-Ang)
        XX    -158.0754     XY      10.8051     YY    -156.3152
        XZ      -0.3734     YZ      -1.2487     ZZ    -164.1226

 Total job time:  93.63s(wall), 4465.12s(cpu)
        *  Thank you very much for using Q-Chem.  Have a nice day.  *
