 Q-Chem 5.0, Q-Chem, Inc., Pleasanton, CA (2017)
 Q-Chem 5.0.1 for Intel X86 EM64T Linux

User input:
--------------------------------------------------------------
$molecule
0  1
O 2.0003757429 -2.7770245859 -1.5921511842
C 1.2670289167 -1.8021061669 -1.3303885933
C 1.5351443157 -0.2747909747 -1.5169209002
C 2.3103886116 0.442482396 -0.3369736906
C 3.187249231 -0.501549544 0.5751808466
O 3.5158376155 0.0866112197 1.8626838799
C 2.5565045025 -0.0458798563 2.9715218215
C 0.9801822344 -0.1890217775 2.8041721217
O 0.6003680941 -0.8315591852 1.5320199229
C -0.8109811005 -0.5453481131 1.2265261748
C -1.1577255112 0.8019730457 0.47750165
C -2.5952195442 0.7613914121 -0.2049568965
C -3.2747833012 -0.6589932422 -0.2428311772
O -2.8856932156 -1.6556846589 -0.8900353809
O -0.0666676642 -1.9086501328 -0.8088333007
O -4.4532231313 -0.6453465048 0.5689661179
O -1.6918310436 -1.363325462 1.5709397539
C -5.0563647673 -1.996057831 0.5992108703
C -1.3854804942 2.0207616132 1.48552945
C -1.4642236503 3.3558367118 0.6398498261
C -2.9296585994 3.2758044831 0.0738256529
C -3.3797671692 1.8648979855 0.6199037357
O -2.7653780636 1.8113520096 1.9666218589
H -0.3681837465 1.035010275 -0.2508475951
H -2.4915712797 1.0804316471 -1.2590061358
H -0.6864269656 2.0674795407 2.3400422517
H -1.3269848242 4.2311882966 1.2941566568
H -0.7004825973 3.3860650946 -0.1542624154
H -3.565388317 4.0735403075 0.4899498523
H -2.9673098352 3.3295686217 -1.0259700269
H -4.4713749652 1.6965741046 0.6851797304
O 3.7697778637 -1.5341868363 0.1895630939
C -0.4250795736 -3.3230248905 -0.5591716455
C 2.4426301845 0.1028561886 -2.7691882823
C 2.0019037914 1.5482759895 -3.2256185825
C 2.5376987818 2.4054946214 -2.0193810989
C 3.3370898905 1.3164727856 -1.1930850037
O 3.7914038902 0.3411865766 -2.2083666
H 0.5428531131 0.1905093849 -1.6387551862
H 1.6544011572 1.0661906988 0.291093879
H 0.1299045282 -3.7273869271 0.3121960834
H 2.4831407729 -0.6690873245 -3.5624053966
H 2.5066426684 1.821164507 -4.1659634683
H 0.9129489788 1.63740834 -3.3673192083
H 3.206427536 3.2139837538 -2.3549588449
H 1.7239866774 2.8476558167 -1.422199379
H 4.1957903944 1.7066539783 -0.6130512239
H -0.213152733 -3.9529474042 -1.4460670894
H -1.5117150448 -3.3119895408 -0.3514272024
H -5.9148452327 -1.9289218779 1.2922855008
H -4.3336935831 -2.7505427299 0.9711217141
H -5.4130260049 -2.3104914714 -0.4032693527
H 0.6163892066 -0.7853164514 3.6726861124
H 0.5324749851 0.8213943747 2.8909440507
H 2.7250026235 0.8491637068 3.6087284946
H 2.8838422172 -0.9289040693 3.569781963
$end

$rem
JOBTYPE                   OPT
METHOD                    B3LYP
DFT_D                     d3_op
BASIS                     STO-3G
GEOM_OPT_MAX_CYCLES       100
GEOM_OPT_TOL_GRADIENT     300
GEOM_OPT_TOL_DISPLACEMENT 1200
GEOM_OPT_TOL_ENERGY       100
SYMMETRY                  False
THRESH                    12
SCF_CONVERGENCE           8
MAX_SUB_FILE_NUM          128
MEM_STATIC                400
MEM_TOTAL                 4000
$end
--------------------------------------------------------------

   16   -1510.2294790460      4.48E-09 Convergence criterion met
 Total energy in the final basis set = -1510.22947905
   14   -1510.2030512789      7.90E-09 Convergence criterion met
 Total energy in the final basis set = -1510.20305128
   15   -1510.2232659922      6.60E-09 Convergence criterion met
 Total energy in the final basis set = -1510.22326599
   15   -1510.2334561927      9.70E-09 Convergence criterion met
 Total energy in the final basis set = -1510.23345619
   15   -1510.2314603940      2.84E-09 Convergence criterion met
 Total energy in the final basis set = -1510.23146039
   14   -1510.2387589837      2.16E-09 Convergence criterion met
 Total energy in the final basis set = -1510.23875898
   14   -1510.2446595784      8.80E-09 Convergence criterion met
 Total energy in the final basis set = -1510.24465958
   13   -1510.2491261704      8.07E-09 Convergence criterion met
    9   -1510.3007701010      8.27E-09 Convergence criterion met
 Total energy in the final basis set = -1510.30077010
   10   -1510.3007698955      4.99E-09 Convergence criterion met
 Total energy in the final basis set = -1510.30076990
   10   -1510.3007684785      9.99E-09 Convergence criterion met
 Total energy in the final basis set = -1510.30076848
   10   -1510.3007680120      9.05E-09 Convergence criterion met
 Total energy in the final basis set = -1510.30076801
    9   -1510.3007683804      8.53E-09 Convergence criterion met
 Total energy in the final basis set = -1510.30076838
    9   -1510.3007689440      3.80E-09 Convergence criterion met
 Total energy in the final basis set = -1510.30076894

             Standard Nuclear Orientation (Angstroms)
    I     Atom           X                Y                Z
 ----------------------------------------------------------------
    1      O       2.1489742110     2.0521602094     1.9111133787
    2      C       1.5638155152     0.9626325956     1.7351325232
    3      C       2.2358964497    -0.4489477052     1.5490381849
    4      C       2.4193782991    -0.8993420546     0.0427633620
    5      C       1.8585009631     0.1447692400    -0.9750276622
    6      O       2.2117480903    -0.2580108662    -2.3038128849
    7      C       1.3801620648     0.4933964199    -3.2752705119
    8      C       0.0062590518    -0.2663362782    -3.4456441818
    9      O      -0.3925588937    -0.8305542628    -2.1346419442
   10      C      -1.3294807333     0.0242452840    -1.4637673303
   11      C      -1.6083295130    -0.5665793202    -0.0416173999
   12      C      -2.9283062915     0.0211333334     0.5994229958
   13      C      -3.3848320137     1.3692975719    -0.0537752220
   14      O      -2.9236132295     2.4990932330     0.2457443248
   15      O       0.1378921879     0.7828295456     1.8306543823
   16      O      -4.4598050729     1.1540724629    -0.9658174377
   17      O      -1.8265645390     1.0498745581    -1.9797474765
   18      C      -4.8117125882     2.4279214331    -1.6336435526
   19      C      -2.0050467709    -2.0916828004    -0.1659810126
   20      C      -2.1662748937    -2.7171079011     1.2772045656
   21      C      -3.5855056439    -2.1779861695     1.6940778209
   22      C      -3.9071556935    -1.2252357373     0.4772473201
   23      O      -3.3950990633    -1.9966817447    -0.6800545863
   24      H      -0.7402431795    -0.3341041174     0.6214610126
   25      H      -2.7385592488     0.2444225799     1.6638627650
   26      H      -1.3692335570    -2.6656994576    -0.8673541273
   27      H      -2.1445313531    -3.8173726582     1.2312295845
   28      H      -1.3694751601    -2.3744899698     1.9569247596
   29      H      -4.3247732989    -2.9934781644     1.7460240338
   30      H      -3.5758116723    -1.6449199920     2.6581111213
   31      H      -4.9741826097    -0.9697442357     0.3316901072
   32      O       1.2092549590     1.1805108938    -0.7004712248
   33      C      -0.5403356099     2.0921011466     2.0239394345
   34      C       3.7484543026    -0.4184401005     2.0291673362
   35      C       4.2461995872    -1.9059922040     2.2132745928
   36      C       4.4233230018    -2.3564346328     0.7158664714
   37      C       3.9985843946    -1.0420003435    -0.0491023604
   38      O       4.4823312714     0.0468073460     0.8281690102
   39      H       1.6396514400    -1.1919899692     2.1076951282
   40      H       1.9168934023    -1.8633944142    -0.1594273922
   41      H       0.2090608769     2.9013843026     1.9266725748
   42      H       3.9403227221     0.2606347151     2.8820507513
   43      H       5.2039220127    -1.9260712591     2.7570617957
   44      H       3.5163505074    -2.5236663035     2.7605587982
   45      H       5.4712896045    -2.6105308025     0.4906751335
   46      H       3.7866748700    -3.2153903113     0.4499045890
   47      H       4.4015710321    -0.9339156824    -1.0747405491
   48      H      -0.9692072621     2.1157729896     3.0456922913
   49      H      -1.3618313018     2.2183811299     1.2747995997
   50      H      -5.6684756526     2.2001038727    -2.2940699652
   51      H      -3.9617860155     2.8045259308    -2.2386868075
   52      H      -5.1005417378     3.2085140846    -0.9005692579
   53      H      -0.7760558060     0.4281326426    -3.8194850900
   54      H       0.1207109903    -1.1271734243    -4.1343281830
   55      H       1.9364161394     0.5192125785    -4.2328623993
   56      H       1.2035470387     1.5247207647    -2.9036719693
 ----------------------------------------------------------------

    9   -1510.3007691295      2.46E-09 Convergence criterion met
 Total energy in the final basis set = -1510.30076913
 Final energy is   -1510.30076912953
 **  OPTIMIZATION CONVERGED  **

                    Orbital Energies (a.u.)
 --------------------------------------------------------------

 Alpha MOs
 -- Occupied --
-18.941 -18.939 -18.932 -18.921 -18.888 -18.887 -18.887 -18.882
-18.866 -18.864 -10.109 -10.106 -10.097 -10.093 -10.078 -10.076
-10.062 -10.059 -10.058 -10.056 -10.055 -10.042 -10.036 -10.029
-10.027 -10.024 -10.022 -10.021 -10.018 -10.017  -1.028  -1.014
 -1.004  -0.997  -0.971  -0.966  -0.949  -0.940  -0.930  -0.924
 -0.765  -0.759  -0.729  -0.722  -0.714  -0.705  -0.695  -0.656
 -0.644  -0.620  -0.597  -0.577  -0.546  -0.543  -0.538  -0.534
 -0.517  -0.507  -0.487  -0.476  -0.467  -0.457  -0.454  -0.443
 -0.435  -0.432  -0.426  -0.421  -0.407  -0.406  -0.404  -0.397
 -0.392  -0.380  -0.372  -0.369  -0.363  -0.357  -0.352  -0.348
 -0.337  -0.335  -0.331  -0.329  -0.328  -0.325  -0.322  -0.315
 -0.312  -0.307  -0.306  -0.299  -0.296  -0.284  -0.276  -0.275
 -0.273  -0.261  -0.251  -0.246  -0.238  -0.235  -0.228  -0.193
 -0.177  -0.171  -0.166  -0.162  -0.161  -0.147  -0.146  -0.145
 -0.137

          Ground-State Mulliken Net Atomic Charges

     Atom                 Charge (a.u.)
  ----------------------------------------
      1 O                    -0.213303
      2 C                     0.218893
      3 C                    -0.082308
      4 C                    -0.078852
      5 C                     0.218436
      6 O                    -0.170684
      7 C                    -0.053963
      8 C                    -0.053783
      9 O                    -0.176962
     10 C                     0.219032
     11 C                    -0.091639
     12 C                    -0.083951
     13 C                     0.220130
     14 O                    -0.220856
     15 O                    -0.182215
     16 O                    -0.166412
     17 O                    -0.208778
     18 C                    -0.126915
     19 C                     0.020971
     20 C                    -0.145056
     21 C                    -0.142188
     22 C                     0.023532
     23 O                    -0.192973
     24 H                     0.114065
     25 H                     0.084275
     26 H                     0.085631
     27 H                     0.075725
     28 H                     0.073736
     29 H                     0.076450
     30 H                     0.073161
     31 H                     0.087544
     32 O                    -0.208821
     33 C                    -0.152482
     34 C                     0.025837
     35 C                    -0.144305
     36 C                    -0.143635
     37 C                     0.025032
     38 O                    -0.187427
     39 H                     0.081722
     40 H                     0.088326
     41 H                     0.096909
     42 H                     0.088513
     43 H                     0.078563
     44 H                     0.072850
     45 H                     0.078615
     46 H                     0.073333
     47 H                     0.088346
     48 H                     0.071020
     49 H                     0.109815
     50 H                     0.088985
     51 H                     0.095190
     52 H                     0.088539
     53 H                     0.101658
     54 H                     0.089294
     55 H                     0.091736
     56 H                     0.101646
  ----------------------------------------
  Sum of atomic charges =     0.000000

                    Cartesian Multipole Moments
 -----------------------------------------------------------------
    Charge (ESU x 10^10)
                 0.0000
    Dipole Moment (Debye)
         X      -0.4125      Y      -3.0436      Z      -0.4816
       Tot       3.1089
    Quadrupole Moments (Debye-Ang)
        XX    -161.5534     XY     -11.4979     YY    -163.7689
        XZ      -4.6544     YZ      -7.6235     ZZ    -147.4141

 Total job time:  173.01s(wall), 8259.66s(cpu)
        *  Thank you very much for using Q-Chem.  Have a nice day.  *
