 Q-Chem 5.0, Q-Chem, Inc., Pleasanton, CA (2017)
 Q-Chem 5.0.1 for Intel X86 EM64T Linux

User input:
--------------------------------------------------------------
$molecule
0  1
O 0.7836458819 -1.4771893497 -1.0190092379
C 0.4253800145 -0.8017349547 0.1352956955
C -1.0771635187 -1.0968510883 0.5406719956
C -2.1972528344 -0.5592721773 -0.4428960715
C -1.7528852975 0.2759146045 -1.7134498797
O -2.6308800495 1.3813118007 -2.0436423116
C -2.7119543275 2.5134409758 -1.0964222667
C -2.0146948238 2.3679303729 0.303669215
O -0.6417432808 1.838843727 0.1116310148
C 0.2567572639 2.9337668945 -0.1656814406
C 1.4277654334 3.0124088178 0.8160149777
C 1.3694329071 2.9376282605 2.160927199
C 0.1829048808 2.5141676243 3.0262945754
O -1.0512731563 2.5913488041 2.8288263686
O 1.1843892342 -0.0855615146 0.8451928447
O 0.7553751027 1.9772188709 4.2253449753
O 0.0959918531 3.7410603679 -1.1134366982
C -0.3113957424 1.4596607499 5.1052869848
C 3.388236144 -1.1245487384 -1.1517125672
C 4.1916364308 -1.7861642744 -2.3304858187
C 4.9463826331 -3.0097535868 -1.6797055488
C 4.4251017395 -2.9787478819 -0.2379258266
O 3.7107171673 -1.8815420131 0.0315055935
H 2.3780723018 3.3316967358 0.3628808183
H 2.2933788457 3.117538511 2.7327275368
H 1.8636896361 -1.28334889 -1.1521851276
H 3.5245162489 -2.128010696 -3.1449821534
H 4.8967684061 -1.0576922748 -2.7654611923
H 4.7079886501 -3.9674613064 -2.1808747951
H 6.0522163474 -2.8897256875 -1.6928867027
H 4.4741982861 -3.7539370478 0.5430990016
O -0.9481950961 -0.1019016419 -2.5879973605
C 3.5047420631 0.3862093328 -0.8726839633
C -1.3904611406 -2.6476357619 0.5431812549
C -2.7596690223 -2.9001034913 1.3000251354
C -3.8018062921 -2.4532200102 0.2079764039
C -2.8324218192 -1.948944805 -0.9320680826
O -1.7165820338 -2.9138018436 -0.873840399
H -1.2267047774 -0.6607060582 1.5444559195
H -2.9662706104 0.0045142292 0.1076944952
H 2.9260606035 0.9455019688 -1.6222063691
H -0.5459473131 -3.2833390279 0.8754017036
H -2.8718007163 -3.9651618084 1.5573437525
H -2.8376313058 -2.3076449568 2.2267455386
H -4.406083571 -3.3018850649 -0.1526156685
H -4.4818082216 -1.661217016 0.5618512895
H -3.2603088931 -1.9282791641 -1.9527064494
H 4.5449584359 0.7609728047 -0.9068430683
H 3.0124362471 0.5406373038 0.1075996953
H 0.2080197669 0.94138014 5.9311068866
H -0.9696224385 0.7464311326 4.569187192
H -0.9367150193 2.2808024957 5.5132067074
H -2.0053011926 3.3606668567 0.7994702315
H -2.5255115755 1.6569670158 0.9797509324
H -3.7933122604 2.7356715335 -0.9242920644
H -2.2629962217 3.3981411341 -1.6024417875
$end

$rem
JOBTYPE                   OPT
METHOD                    B3LYP
DFT_D                     d3_op
BASIS                     STO-3G
GEOM_OPT_MAX_CYCLES       100
GEOM_OPT_TOL_GRADIENT     300
GEOM_OPT_TOL_DISPLACEMENT 1200
GEOM_OPT_TOL_ENERGY       100
SYMMETRY                  False
THRESH                    12
SCF_CONVERGENCE           8
MAX_SUB_FILE_NUM          128
MEM_STATIC                400
MEM_TOTAL                 4000
$end
--------------------------------------------------------------

   19   -1510.0731715981      3.27E-09 Convergence criterion met
 Total energy in the final basis set = -1510.07317160
   16   -1510.0697608531      5.20E-09 Convergence criterion met
 Total energy in the final basis set = -1510.06976085
   15   -1510.0808437330      8.43E-09 Convergence criterion met
 Total energy in the final basis set = -1510.08084373
   17   -1510.0574574753      2.83E-09 Convergence criterion met
 Total energy in the final basis set = -1510.05745748
   17   -1509.8829611806      9.73E-09 Convergence criterion met
 Total energy in the final basis set = -1509.88296118
   17   -1510.0593209983      3.42E-09 Convergence criterion met
 Total energy in the final basis set = -1510.05932100
   17   -1510.0750295947      3.79E-09 Convergence criterion met
 Total energy in the final basis set = -1510.07502959
   16   -1510.0854653448      6.00E-09 Convergence criterion met
   12   -1510.1199369784      6.13E-09 Convergence criterion met
 Total energy in the final basis set = -1510.11993698
   12   -1510.1199361482      6.99E-09 Convergence criterion met
 Total energy in the final basis set = -1510.11993615
   10   -1510.1199292321      9.77E-09 Convergence criterion met
 Total energy in the final basis set = -1510.11992923
   10   -1510.1199270737      7.22E-09 Convergence criterion met
 Total energy in the final basis set = -1510.11992707
   10   -1510.1199272144      7.22E-09 Convergence criterion met
 Total energy in the final basis set = -1510.11992721
   10   -1510.1199247513      6.03E-09 Convergence criterion met
 Total energy in the final basis set = -1510.11992475

             Standard Nuclear Orientation (Angstroms)
    I     Atom           X                Y                Z
 ----------------------------------------------------------------
    1      O      -1.9889556455    -0.7369227151    -0.7190012630
    2      C      -0.7865335985    -0.0900915128    -0.9220707345
    3      C       0.3718891172    -1.1143050114    -1.2568388890
    4      C       1.2824404975    -1.5134334998    -0.0248885730
    5      C       0.7551541587    -0.9480524739     1.3520650810
    6      O       1.4465289591    -1.3501609240     2.5597604943
    7      C       2.9002115346    -1.5184544709     2.3771564927
    8      C       3.5973842926    -0.1112100911     2.1981443286
    9      O       2.7301060174     0.7587150520     1.3670540349
   10      C       2.2324089126     1.8480856658     2.1687588781
   11      C       1.3023514043     2.7711518980     1.3994557370
   12      C       1.0670874076     2.8850511688     0.0729882976
   13      C       1.6309012760     2.0891403667    -1.1081137120
   14      O       2.3919268279     1.0938526945    -1.1429678688
   15      O      -0.6231245274     1.1701811034    -0.9612409148
   16      O       1.2165761788     2.8049532446    -2.2948880036
   17      O       2.5441550995     2.0075620503     3.3768830125
   18      C       1.6747687234     2.0797463351    -3.4967670887
   19      C      -3.6133244352     1.1260237244     0.1261030069
   20      C      -4.8405025245     0.4750628870     0.8460786742
   21      C      -5.9020647473     0.3035994031    -0.3036858680
   22      C      -5.3830679666     1.2895702101    -1.3509780173
   23      O      -4.1498357501     1.7295109165    -1.0658204270
   24      H       0.7834246996     3.4699519643     2.0731576269
   25      H       0.3664876887     3.6694221857    -0.2558605952
   26      H      -2.7037222390     0.0617525681    -0.3920313039
   27      H      -4.5727877268    -0.4911798791     1.3037705709
   28      H      -5.2299547918     1.1388057451     1.6411893810
   29      H      -5.8888514916    -0.7289795210    -0.7092802323
   30      H      -6.9378798542     0.5281526435     0.0094780245
   31      H      -5.7679057689     1.4915580484    -2.3631725930
   32      O      -0.3126168059    -0.3132747022     1.4992958684
   33      C      -2.6907548188     2.0983071283     0.8840989919
   34      C      -0.1527370739    -2.5357031585    -1.7200244282
   35      C       1.0175735596    -3.2653914579    -2.4909253570
   36      C       1.9740913775    -3.6427120598    -1.2989777325
   37      C       1.1516116238    -3.0983995951    -0.0633030755
   38      O      -0.2581015400    -3.3075103301    -0.4591043197
   39      H       1.0072520151    -0.6500877055    -2.0309015889
   40      H       2.3118418282    -1.1585470255    -0.1976203065
   41      H      -2.3870038362     1.6098374232     1.8224843357
   42      H      -1.1293106646    -2.5168309352    -2.2400169058
   43      H       0.6422795479    -4.1648119237    -3.0048334557
   44      H       1.4990400528    -2.6082896898    -3.2323953105
   45      H       2.1126063156    -4.7328901842    -1.2199676025
   46      H       2.9641762809    -3.1661175074    -1.3817216439
   47      H       1.3568818064    -3.6048712183     0.8997899684
   48      H      -3.1772408654     3.0605745920     1.1209018681
   49      H      -1.7811940215     2.2465664726     0.2711196735
   50      H       1.4440367829     2.7324801665    -4.3588012863
   51      H       1.1398921706     1.1144980726    -3.6168135734
   52      H       2.7644263166     1.8732808010    -3.4661990250
   53      H       3.7288190432     0.3865028876     3.1830285016
   54      H       4.5730481438    -0.2234811618     1.6824164977
   55      H       3.1505416319    -2.1877004812     1.5297131138
   56      H       3.2659880760    -1.9918074450     3.3111721045
 ----------------------------------------------------------------

   10   -1510.1199245913      6.43E-09 Convergence criterion met
 Total energy in the final basis set = -1510.11992459
 Final energy is   -1510.11992459125
 **  OPTIMIZATION CONVERGED  **

                    Orbital Energies (a.u.)
 --------------------------------------------------------------

 Alpha MOs
 -- Occupied --
-19.077 -18.932 -18.916 -18.910 -18.873 -18.871 -18.868 -18.851
-18.851 -18.814 -10.099 -10.089 -10.088 -10.077 -10.069 -10.061
-10.060 -10.056 -10.050 -10.049 -10.042 -10.034 -10.019 -10.018
-10.017 -10.012 -10.011 -10.008 -10.007  -9.996  -1.086  -1.009
 -0.991  -0.988  -0.960  -0.953  -0.933  -0.923  -0.913  -0.876
 -0.762  -0.745  -0.739  -0.729  -0.705  -0.700  -0.689  -0.655
 -0.639  -0.605  -0.589  -0.587  -0.573  -0.532  -0.526  -0.522
 -0.507  -0.503  -0.480  -0.472  -0.463  -0.455  -0.442  -0.438
 -0.425  -0.423  -0.416  -0.410  -0.404  -0.398  -0.393  -0.384
 -0.382  -0.380  -0.365  -0.359  -0.353  -0.350  -0.346  -0.344
 -0.338  -0.337  -0.333  -0.327  -0.322  -0.319  -0.316  -0.314
 -0.309  -0.306  -0.301  -0.296  -0.289  -0.284  -0.282  -0.265
 -0.256  -0.243  -0.240  -0.232  -0.227  -0.218  -0.200  -0.177
 -0.157  -0.155  -0.154  -0.137  -0.132  -0.130  -0.127  -0.108
 -0.105

          Ground-State Mulliken Net Atomic Charges

     Atom                 Charge (a.u.)
  ----------------------------------------
      1 O                    -0.243856
      2 C                     0.202512
      3 C                    -0.082516
      4 C                    -0.084383
      5 C                     0.218221
      6 O                    -0.177239
      7 C                    -0.049611
      8 C                    -0.061937
      9 O                    -0.160256
     10 C                     0.208071
     11 C                    -0.089551
     12 C                    -0.062367
     13 C                     0.220954
     14 O                    -0.221882
     15 O                    -0.252668
     16 O                    -0.169911
     17 O                    -0.208793
     18 C                    -0.127794
     19 C                     0.011679
     20 C                    -0.149649
     21 C                    -0.148546
     22 C                     0.042954
     23 O                    -0.079307
     24 H                     0.092047
     25 H                     0.098359
     26 H                     0.177683
     27 H                     0.093344
     28 H                     0.078609
     29 H                     0.094982
     30 H                     0.092379
     31 H                     0.105665
     32 O                    -0.198033
     33 C                    -0.242845
     34 C                     0.024232
     35 C                    -0.144041
     36 C                    -0.144592
     37 C                     0.019885
     38 O                    -0.190231
     39 H                     0.079997
     40 H                     0.094941
     41 H                     0.091251
     42 H                     0.084664
     43 H                     0.073732
     44 H                     0.071578
     45 H                     0.074420
     46 H                     0.071198
     47 H                     0.078027
     48 H                     0.066930
     49 H                     0.110846
     50 H                     0.085449
     51 H                     0.081233
     52 H                     0.085283
     53 H                     0.103762
     54 H                     0.084687
     55 H                     0.080558
     56 H                     0.089873
  ----------------------------------------
  Sum of atomic charges =    -0.000000

                    Cartesian Multipole Moments
 -----------------------------------------------------------------
    Charge (ESU x 10^10)
                -0.0000
    Dipole Moment (Debye)
         X      -2.4811      Y      -0.3980      Z      -2.4814
       Tot       3.5316
    Quadrupole Moments (Debye-Ang)
        XX    -123.3278     XY     -13.5377     YY    -161.0925
        XZ       3.4883     YZ      -1.8212     ZZ    -159.1005

 Total job time:  209.18s(wall), 9974.65s(cpu)
        *  Thank you very much for using Q-Chem.  Have a nice day.  *
