 Q-Chem 5.0, Q-Chem, Inc., Pleasanton, CA (2017)
 Q-Chem 5.0.1 for Intel X86 EM64T Linux

User input:
--------------------------------------------------------------
$molecule
0  1
O -2.5723705966 -2.0028790064 -0.3236855739
C -3.4363029336 -1.5405737575 0.4550004346
C -3.9277099935 -0.0585560455 0.6264865957
C -2.7976199192 1.0568594034 0.7415339837
C -1.3550549865 0.4536032019 0.5738434921
O -0.5752310792 0.7645463347 1.7210620887
C 0.4888497258 0.2774234313 2.6963625837
C 1.5898463692 1.398214266 2.5253669957
O 2.4613499906 1.7443153721 1.367776315
C 2.1758145711 1.5043950338 -0.0361913601
C 1.6763283538 0.1105386944 -0.6991963921
C 3.0596539686 -0.7040201064 -0.9869231371
C 4.4015211745 0.1127942688 -1.0664573312
O 5.0494728745 0.7634598851 -0.2187754405
O -4.1800930672 -2.3481925974 1.3839395617
O 4.8243200811 -0.0946762933 -2.423974358
O 2.5621840514 2.4256102245 -0.7953917251
C 6.1151386187 0.5612664557 -2.7172761514
C 1.0902815628 -1.0705521545 0.2332860309
C 0.7741207502 -2.411215667 -0.5340984978
C 2.2096795816 -3.0154455581 -0.7562291353
C 3.0730911861 -1.9274952338 0.0070872328
O 2.2199758775 -1.4588247107 1.1162868171
H 1.0916134545 0.3177087977 -1.6162148374
H 2.975110968 -1.1108135396 -2.0101159701
H 0.24379628 -0.8078344867 0.8455566693
H 0.2110013244 -3.0541096085 0.1658171865
H 0.1612924802 -2.2657119342 -1.4393908391
H 2.2920487392 -4.0303452814 -0.3403335574
H 2.5207092076 -3.0411304077 -1.8126109704
H 4.0872362908 -2.2227627144 0.3535413013
O -0.9855453732 0.065500998 -0.5545483789
C -3.7816288429 -3.7703792616 1.2511767284
C -4.6626360744 0.388938049 -0.711108219
C -5.5211451758 1.6810850989 -0.4283038583
C -4.395848755 2.7786062092 -0.3192170652
C -3.1053873448 1.9128463437 -0.571818597
O -3.5507553287 0.8909724887 -1.5484477231
H -4.5997570718 -0.02663963 1.5013829485
H -2.8886951111 1.6414965039 1.673849298
H -3.3522238532 -4.1187047 2.2115959741
H -5.2003430215 -0.435295963 -1.2204912118
H -6.1889087426 1.8737358066 -1.2829079457
H -6.129177517 1.5918398782 0.4861046556
H -4.4969984344 3.5471537124 -1.1012919886
H -4.3688579729 3.2732840752 0.664287079
H -2.2266794491 2.4573895439 -0.9704525494
H -3.0298833775 -3.8491680252 0.4395315344
H -4.6781836356 -4.3733758639 1.0100674273
H 6.2820683752 0.4032190234 -3.8013880336
H 6.9467635785 0.0975751758 -2.1451334423
H 6.0753574922 1.647393853 -2.4922882426
H 1.0424202831 2.3414962169 2.7891291419
H 2.3404886899 1.2216492577 3.3253558472
H 0.8588059271 -0.7666374948 2.5711845475
H 0.0447616012 0.3791747623 3.7144410679
$end

$rem
JOBTYPE                   OPT
METHOD                    B3LYP
DFT_D                     d3_op
BASIS                     STO-3G
GEOM_OPT_MAX_CYCLES       100
GEOM_OPT_TOL_GRADIENT     300
GEOM_OPT_TOL_DISPLACEMENT 1200
GEOM_OPT_TOL_ENERGY       100
SYMMETRY                  False
THRESH                    12
SCF_CONVERGENCE           8
MAX_SUB_FILE_NUM          128
MEM_STATIC                400
MEM_TOTAL                 4000
$end
--------------------------------------------------------------

   16   -1510.1418174777      9.90E-09 Convergence criterion met
 Total energy in the final basis set = -1510.14181748
   15   -1510.1545426550      8.29E-09 Convergence criterion met
 Total energy in the final basis set = -1510.15454266
   14   -1510.1793863801      7.86E-09 Convergence criterion met
 Total energy in the final basis set = -1510.17938638
   15   -1510.2008554830      2.93E-09 Convergence criterion met
 Total energy in the final basis set = -1510.20085548
   15   -1510.2164800713      2.82E-09 Convergence criterion met
 Total energy in the final basis set = -1510.21648007
   14   -1510.2270392585      7.32E-09 Convergence criterion met
 Total energy in the final basis set = -1510.22703926
   15   -1510.2360468426      3.82E-09 Convergence criterion met
 Total energy in the final basis set = -1510.23604684
   15   -1510.2432909681      3.27E-09 Convergence criterion met
    9   -1510.3018565981      8.44E-09 Convergence criterion met
 Total energy in the final basis set = -1510.30185660
   11   -1510.3018557969      2.84E-09 Convergence criterion met
 Total energy in the final basis set = -1510.30185580
    9   -1510.3018568330      7.38E-09 Convergence criterion met
 Total energy in the final basis set = -1510.30185683
    9   -1510.3018582561      7.69E-09 Convergence criterion met
 Total energy in the final basis set = -1510.30185826
    9   -1510.3018603421      5.72E-09 Convergence criterion met
 Total energy in the final basis set = -1510.30186034
    9   -1510.3018616073      7.47E-09 Convergence criterion met
 Total energy in the final basis set = -1510.30186161

             Standard Nuclear Orientation (Angstroms)
    I     Atom           X                Y                Z
 ----------------------------------------------------------------
    1      O       3.2937952447    -2.0353697411     0.6302697200
    2      C       3.5696145303    -0.9873220684     0.0071359306
    3      C       3.1562212617     0.4800131761     0.3954376596
    4      C       2.1096326557     1.1500241958    -0.5885093647
    5      C       1.6420350601     0.1701805886    -1.7124841265
    6      O       1.0297361721     0.9228705869    -2.7652633448
    7      C       0.5070855020     0.0181710167    -3.8189510244
    8      C      -1.0119961028    -0.3134542280    -3.5770568722
    9      O      -1.1620847590    -1.1231486567    -2.3450335722
   10      C      -1.4331552150    -0.2754896826    -1.2263084353
   11      C      -1.3094844735    -1.0924914286     0.0969519955
   12      C      -2.0638480502    -0.4165103622     1.3162859467
   13      C      -2.8232810704     0.9069878787     0.9496727786
   14      O      -3.9842931375     1.0251557425     0.5039828167
   15      O       4.4564213057    -0.9139575139    -1.1206390391
   16      O      -1.9803522817     2.0189400725     1.3002086390
   17      O      -1.6678657719     0.9536006786    -1.3217899277
   18      C      -2.6245812626     3.2825544320     0.8801294507
   19      C      -2.0106549280    -2.5119179724     0.0420869775
   20      C      -1.4723319368    -3.3721594606     1.2511848920
   21      C      -2.2289044380    -2.7042389258     2.4589356966
   22      C      -3.0608999319    -1.5830393910     1.7180865918
   23      O      -3.4104618589    -2.2088002969     0.4213329110
   24      H      -0.2268382122    -1.1576492609     0.3340197013
   25      H      -1.3367542270    -0.1872260219     2.1152955780
   26      H      -1.9685683103    -3.0000779448    -0.9507331902
   27      H      -1.7585651581    -4.4289272561     1.1291571988
   28      H      -0.3763206078    -3.3096740130     1.3462220512
   29      H      -2.9023455142    -3.4185097273     2.9587058713
   30      H      -1.5417567306    -2.2791178625     3.2076333089
   31      H      -3.9770432396    -1.2458592215     2.2400626109
   32      O       1.7603100501    -1.0766756786    -1.7139995325
   33      C       4.8270769830    -2.2758743712    -1.5660789244
   34      C       2.3480626075     0.4902776163     1.7581833976
   35      C       2.3444681927     1.9583576814     2.3325924479
   36      C       1.3347969023     2.6624385205     1.3514227121
   37      C       0.9155292339     1.4644038206     0.4182634714
   38      O       0.9453999504     0.2912067077     1.3231952607
   39      H       4.0750413947     1.0906307382     0.4544041311
   40      H       2.4998500033     2.0714701375    -1.0555061208
   41      H       4.3065868279    -2.5094022582    -2.5168335374
   42      H       2.6482389410    -0.3089373987     2.4633898527
   43      H       1.9709847107     1.9656688690     3.3691232688
   44      H       3.3472646673     2.4141169343     2.3151847458
   45      H       0.4480376258     3.0411482676     1.8838669798
   46      H       1.7934938842     3.4886570934     0.7853893898
   47      H      -0.0844677076     1.5679195955    -0.0526487609
   48      H       4.5314904971    -3.0141182721    -0.7934003910
   49      H       5.9214636004    -2.3035610048    -1.7300167207
   50      H      -1.9600709638     4.0967252059     1.2233192967
   51      H      -3.6286040933     3.4036728074     1.3355167284
   52      H      -2.7292108652     3.3297526743    -0.2232942544
   53      H      -1.5959372622     0.6268790896    -3.4826506551
   54      H      -1.3971551334    -0.9253311628    -4.4180205526
   55      H       1.0938094791    -0.9250307715    -3.8297418102
   56      H       0.6218918421     0.5538999756    -4.7835088964
 ----------------------------------------------------------------

    9   -1510.3018626193      7.87E-09 Convergence criterion met
 Total energy in the final basis set = -1510.30186262
 Final energy is   -1510.30186261932
 **  OPTIMIZATION CONVERGED  **

                    Orbital Energies (a.u.)
 --------------------------------------------------------------

 Alpha MOs
 -- Occupied --
-18.945 -18.943 -18.921 -18.918 -18.890 -18.888 -18.882 -18.877
-18.866 -18.858 -10.109 -10.105 -10.094 -10.085 -10.080 -10.078
-10.059 -10.054 -10.053 -10.052 -10.050 -10.049 -10.041 -10.036
-10.026 -10.022 -10.020 -10.017 -10.010 -10.009  -1.028  -1.015
 -1.001  -0.995  -0.973  -0.960  -0.948  -0.943  -0.928  -0.921
 -0.764  -0.754  -0.729  -0.719  -0.709  -0.703  -0.692  -0.655
 -0.652  -0.621  -0.595  -0.576  -0.545  -0.539  -0.536  -0.528
 -0.512  -0.506  -0.488  -0.470  -0.461  -0.456  -0.450  -0.443
 -0.431  -0.429  -0.421  -0.419  -0.407  -0.405  -0.402  -0.399
 -0.398  -0.383  -0.371  -0.365  -0.358  -0.357  -0.352  -0.345
 -0.342  -0.341  -0.336  -0.330  -0.325  -0.322  -0.316  -0.312
 -0.306  -0.303  -0.300  -0.296  -0.291  -0.280  -0.274  -0.271
 -0.268  -0.257  -0.251  -0.242  -0.242  -0.238  -0.222  -0.200
 -0.174  -0.165  -0.163  -0.162  -0.160  -0.150  -0.148  -0.137
 -0.134

          Ground-State Mulliken Net Atomic Charges

     Atom                 Charge (a.u.)
  ----------------------------------------
      1 O                    -0.219150
      2 C                     0.216832
      3 C                    -0.081038
      4 C                    -0.079493
      5 C                     0.210978
      6 O                    -0.169250
      7 C                    -0.053160
      8 C                    -0.053128
      9 O                    -0.167340
     10 C                     0.214055
     11 C                    -0.084163
     12 C                    -0.083282
     13 C                     0.211144
     14 O                    -0.217545
     15 O                    -0.177820
     16 O                    -0.174615
     17 O                    -0.217167
     18 C                    -0.129202
     19 C                     0.023842
     20 C                    -0.143576
     21 C                    -0.143624
     22 C                     0.024712
     23 O                    -0.190897
     24 H                     0.108676
     25 H                     0.093465
     26 H                     0.088204
     27 H                     0.075819
     28 H                     0.079593
     29 H                     0.075433
     30 H                     0.074274
     31 H                     0.083391
     32 O                    -0.208328
     33 C                    -0.134826
     34 C                     0.024610
     35 C                    -0.143871
     36 C                    -0.143839
     37 C                     0.018051
     38 O                    -0.195379
     39 H                     0.084974
     40 H                     0.088606
     41 H                     0.083567
     42 H                     0.088746
     43 H                     0.077826
     44 H                     0.073069
     45 H                     0.083431
     46 H                     0.072639
     47 H                     0.102364
     48 H                     0.100811
     49 H                     0.082855
     50 H                     0.083677
     51 H                     0.087299
     52 H                     0.090839
     53 H                     0.102931
     54 H                     0.092267
     55 H                     0.100414
     56 H                     0.091302
  ----------------------------------------
  Sum of atomic charges =    -0.000000

                    Cartesian Multipole Moments
 -----------------------------------------------------------------
    Charge (ESU x 10^10)
                -0.0000
    Dipole Moment (Debye)
         X       2.8423      Y       1.6226      Z      -0.9356
       Tot       3.4039
    Quadrupole Moments (Debye-Ang)
        XX    -168.2281     XY       0.9843     YY    -156.4058
        XZ      -2.1493     YZ       3.2873     ZZ    -145.0385

 Total job time:  172.85s(wall), 8253.34s(cpu)
        *  Thank you very much for using Q-Chem.  Have a nice day.  *
