 Q-Chem 5.0, Q-Chem, Inc., Pleasanton, CA (2017)
 Q-Chem 5.0.1 for Intel X86 EM64T Linux

User input:
--------------------------------------------------------------
$molecule
0  1
O -3.94934 -3.66094 2.70899
C -3.26408 -4.56952 2.26188
C -3.36658 -6.02376 2.66595
C -3.85957 -6.32399 4.09097
C -4.36389 -5.14454 4.89263
O -3.4791 -4.1082 4.80005
C -3.88881 -2.95054 5.53571
C -3.4468 -3.06869 6.99063
O -3.86033 -1.90494 7.72381
C -3.01542 -0.84597 7.66176
C -1.69384 -1.18486 7.01428
C -0.70085 -0.01721 6.92014
C -1.01503 1.18857 7.78273
O -0.2696 1.67356 8.62159
O -2.23088 -4.25714 1.43646
O -2.01211 1.98997 7.31153
O -3.37602 0.1998 8.1649
C -2.34787 3.21933 7.84152
C -0.77453 -2.09453 7.93911
C 0.17571 -2.90359 7.05556
C 1.0781 -1.79879 6.54975
C 0.59843 -0.64241 7.4375
O 0.13104 -1.25028 8.60031
H -1.73615 -1.59428 5.99336
H -0.60014 0.36003 5.87728
H -1.3173 -2.74956 8.65448
H 0.76122 -3.55251 7.74678
H -0.27387 -3.54019 6.26405
H 2.13319 -2.0848 6.75486
H 0.94952 -1.536 5.47702
H 1.40626 0.11025 7.57328
O -5.47822 -5.07451 5.40132
C -1.94309 -2.98026 1.00173
C -4.48248 -6.7319 1.86269
C -4.20864 -8.23374 1.80689
C -4.49497 -8.62439 3.24122
C -5.01678 -7.29099 3.79024
O -5.62397 -6.67346 2.6838
H -2.40472 -6.52266 2.40694
H -3.04687 -6.77959 4.69837
H -1.7203 -2.32155 1.86837
H -4.60369 -6.3309 0.83198
H -4.99549 -8.67766 1.15525
H -3.20931 -8.53207 1.42337
H -5.29329 -9.39937 3.2414
H -3.61568 -8.98096 3.82047
H -5.66812 -7.47041 4.67348
H -2.80151 -2.56943 0.42822
H -1.05392 -3.01306 0.33929
H -3.1965 3.64337 7.2667
H -1.48542 3.9161 7.77133
H -2.65496 3.10639 8.90321
H -4.05772 -3.90025 7.39959
H -2.45703 -3.50736 7.09578
H -4.98198 -2.74706 5.46167
H -3.45666 -2.07696 5.01885
$end

$opt
CONSTRAINT
tors           1           2           3           4     -28.421
tors           3           4           5           6     -47.368
tors           4           5           6           7    -180.000
tors           5           6           7           8     +85.263
tors           6           7           8           9    -180.000
tors           7           8           9          10     -85.263
tors           8           9          10          11      -9.474
tors           9          10          11          12    -180.000
tors          11          12          13          14    +123.158
ENDCONSTRAINT
$end

$rem
JOBTYPE                   OPT
METHOD                    B3LYP
DFT_D                     d3_op
BASIS                     STO-3G
GEOM_OPT_MAX_CYCLES       100
GEOM_OPT_TOL_GRADIENT     300
GEOM_OPT_TOL_DISPLACEMENT 1200
GEOM_OPT_TOL_ENERGY       100
SYMMETRY                  False
THRESH                    12
SCF_CONVERGENCE           8
MAX_SUB_FILE_NUM          128
MEM_STATIC                400
MEM_TOTAL                 4000
$end
--------------------------------------------------------------

   15   -1510.1090095502      9.69E-09 Convergence criterion met
 Total energy in the final basis set = -1510.10900955
   14   -1510.1838336655      3.97E-09 Convergence criterion met
 Total energy in the final basis set = -1510.18383367
   14   -1510.2242024501      2.65E-09 Convergence criterion met
 Total energy in the final basis set = -1510.22420245
   14   -1510.2450536702      4.96E-09 Convergence criterion met
 Total energy in the final basis set = -1510.24505367
   13   -1510.2538794612      5.65E-09 Convergence criterion met
 Total energy in the final basis set = -1510.25387946
   13   -1510.2584838485      4.84E-09 Convergence criterion met
 Total energy in the final basis set = -1510.25848385
   13   -1510.2613183801      3.08E-09 Convergence criterion met
 Total energy in the final basis set = -1510.26131838
   13   -1510.2636036784      3.92E-09 Convergence criterion met
   12   -1510.2722058388      8.55E-09 Convergence criterion met
 Total energy in the final basis set = -1510.27220584
   11   -1510.2723509448      6.06E-09 Convergence criterion met
 Total energy in the final basis set = -1510.27235094
   11   -1510.2725063073      9.37E-09 Convergence criterion met
 Total energy in the final basis set = -1510.27250631
   11   -1510.2725581058      6.50E-09 Convergence criterion met
 Total energy in the final basis set = -1510.27255811
   10   -1510.2725897916      8.92E-09 Convergence criterion met
 Total energy in the final basis set = -1510.27258979
   10   -1510.2725968252      4.46E-09 Convergence criterion met
 Total energy in the final basis set = -1510.27259683

             Standard Nuclear Orientation (Angstroms)
    I     Atom           X                Y                Z
 ----------------------------------------------------------------
    1      O      -3.0229894166     0.2930136874     2.2514787291
    2      C      -3.4702745224     1.1185794864     1.4260334360
    3      C      -4.2626752306     0.8158222240     0.1073427559
    4      C      -3.9012256227    -0.5869772391    -0.5292281049
    5      C      -2.5951375014    -1.2592156364     0.0212604866
    6      O      -1.5502892176    -0.2731958003     0.0339533763
    7      C      -0.2903930043    -0.8560833702     0.5465674734
    8      C       0.5116620069    -1.5688559395    -0.6115827425
    9      O       1.7715904747    -2.1516958563    -0.0986789695
   10      C       2.9009860184    -1.2679971390    -0.0337178349
   11      C       2.8393689160     0.1656589664    -0.6938856806
   12      C       4.2023414695     0.9449916546    -0.4882597668
   13      C       5.1810585944     0.3153206048     0.5751720924
   14      O       6.3614304355    -0.0471628416     0.3886188493
   15      O      -3.3752300523     2.5391889487     1.5754763612
   16      O       4.5669756135     0.4678659384     1.8678130100
   17      O       3.9427008422    -1.7405825513     0.4799856869
   18      C       5.4354938573    -0.1311769160     2.9033615701
   19      C       2.8746216574     0.0020841255    -2.2885950761
   20      C       2.6443943556     1.4181555024    -2.9541751347
   21      C       4.0624868634     2.0761720657    -2.7738028332
   22      C       4.8061542891     0.9556569580    -1.9492271278
   23      O       4.2965595711    -0.2967773802    -2.5529130106
   24      H       1.9699252110     0.7443663317    -0.3398537572
   25      H       3.9850591564     1.9749084929    -0.1495372189
   26      H       2.2461535586    -0.8120451530    -2.6962160398
   27      H       2.3802681061     1.3045178553    -4.0174951908
   28      H       1.8447393608     1.9857113942    -2.4512700143
   29      H       4.5586871623     2.2337985451    -3.7447054376
   30      H       4.0217178982     3.0363148506    -2.2353070040
   31      H       5.9129752744     0.9778584081    -1.9790781196
   32      O      -2.4417578416    -2.4508771747     0.3607040585
   33      C      -2.6786563665     2.8680814504     2.8406658412
   34      C      -5.7863841871     0.5560567380     0.4918735363
   35      C      -6.6497435105     0.4364917799    -0.8269646575
   36      C      -6.2972689093    -1.0249193659    -1.2966277460
   37      C      -5.2131450212    -1.4259421560    -0.2232921284
   38      O      -5.7432970955    -0.8252400180     1.0230269933
   39      H      -4.1389945296     1.6535363228    -0.6003073172
   40      H      -3.7661165988    -0.4720370472    -1.6215017278
   41      H      -1.6438770734     2.4685719084     2.8512329100
   42      H      -6.1875001520     1.2535560961     1.2528918532
   43      H      -7.7218790572     0.5424286674    -0.5975505817
   44      H      -6.3721396644     1.2006502161    -1.5708926838
   45      H      -7.1718450859    -1.6911032726    -1.2246072327
   46      H      -5.9068507015    -1.0626468473    -2.3261117614
   47      H      -5.0338282170    -2.5107829298    -0.0893700857
   48      H      -3.2189162727     2.4650545499     3.7215212768
   49      H      -2.6498252105     3.9718135620     2.8961220498
   50      H       4.9448501977     0.0716572073     3.8732304345
   51      H       6.4503778789     0.3167453153     2.8981953001
   52      H       5.5327140549    -1.2270969484     2.7598578092
   53      H      -0.0803344029    -2.4348759525    -0.9721373880
   54      H       0.6575846314    -0.8661665977    -1.4526255491
   55      H      -0.4955846712    -1.5910301701     1.3530443722
   56      H       0.2950086080    -0.0099706596     0.9586301009
 ----------------------------------------------------------------

    9   -1510.2725996241      6.56E-09 Convergence criterion met
 Total energy in the final basis set = -1510.27259962
 Final energy is   -1510.27259962409
 **  OPTIMIZATION CONVERGED  **

                    Orbital Energies (a.u.)
 --------------------------------------------------------------

 Alpha MOs
 -- Occupied --
-18.946 -18.939 -18.939 -18.914 -18.892 -18.892 -18.889 -18.884
-18.878 -18.857 -10.110 -10.108 -10.103 -10.089 -10.083 -10.079
-10.069 -10.068 -10.066 -10.063 -10.060 -10.051 -10.046 -10.044
-10.043 -10.035 -10.027 -10.025 -10.024 -10.023  -1.022  -1.016
 -1.012  -0.994  -0.976  -0.975  -0.948  -0.943  -0.939  -0.921
 -0.769  -0.766  -0.730  -0.726  -0.717  -0.709  -0.706  -0.668
 -0.652  -0.622  -0.603  -0.595  -0.552  -0.548  -0.542  -0.541
 -0.519  -0.516  -0.489  -0.478  -0.470  -0.461  -0.457  -0.456
 -0.443  -0.436  -0.432  -0.417  -0.414  -0.411  -0.404  -0.401
 -0.399  -0.394  -0.380  -0.366  -0.364  -0.363  -0.354  -0.351
 -0.349  -0.345  -0.337  -0.333  -0.330  -0.327  -0.325  -0.319
 -0.316  -0.314  -0.309  -0.305  -0.300  -0.292  -0.280  -0.278
 -0.272  -0.264  -0.257  -0.249  -0.242  -0.239  -0.238  -0.196
 -0.182  -0.171  -0.163  -0.160  -0.157  -0.156  -0.149  -0.148
 -0.138

          Ground-State Mulliken Net Atomic Charges

     Atom                 Charge (a.u.)
  ----------------------------------------
      1 O                    -0.212278
      2 C                     0.213676
      3 C                    -0.077527
      4 C                    -0.079512
      5 C                     0.215998
      6 O                    -0.177291
      7 C                    -0.051844
      8 C                    -0.053105
      9 O                    -0.162730
     10 C                     0.215382
     11 C                    -0.083923
     12 C                    -0.080223
     13 C                     0.218452
     14 O                    -0.219228
     15 O                    -0.170882
     16 O                    -0.181157
     17 O                    -0.188825
     18 C                    -0.128785
     19 C                     0.022043
     20 C                    -0.145360
     21 C                    -0.143004
     22 C                     0.024392
     23 O                    -0.187602
     24 H                     0.080973
     25 H                     0.082035
     26 H                     0.079789
     27 H                     0.078606
     28 H                     0.072213
     29 H                     0.079211
     30 H                     0.074093
     31 H                     0.093547
     32 O                    -0.208872
     33 C                    -0.128541
     34 C                     0.025329
     35 C                    -0.144580
     36 C                    -0.142844
     37 C                     0.024628
     38 O                    -0.187783
     39 H                     0.087122
     40 H                     0.083082
     41 H                     0.088356
     42 H                     0.083287
     43 H                     0.079101
     44 H                     0.073764
     45 H                     0.079383
     46 H                     0.073098
     47 H                     0.092251
     48 H                     0.090452
     49 H                     0.090580
     50 H                     0.084951
     51 H                     0.086319
     52 H                     0.092048
     53 H                     0.097885
     54 H                     0.085176
     55 H                     0.104095
     56 H                     0.084580
  ----------------------------------------
  Sum of atomic charges =    -0.000000

                    Cartesian Multipole Moments
 -----------------------------------------------------------------
    Charge (ESU x 10^10)
                -0.0000
    Dipole Moment (Debye)
         X      -3.5650      Y       4.5886      Z      -1.9273
       Tot       6.1219
    Quadrupole Moments (Debye-Ang)
        XX    -176.6557     XY       5.4627     YY    -163.5373
        XZ      11.4959     YZ       4.6718     ZZ    -154.2412

 Total job time:  59.09s(wall), 2808.96s(cpu)
        *  Thank you very much for using Q-Chem.  Have a nice day.  *
