 Q-Chem 5.0, Q-Chem, Inc., Pleasanton, CA (2017)
 Q-Chem 5.0.1 for Intel X86 EM64T Linux

User input:
--------------------------------------------------------------
$molecule
0  1
O -3.0229894166 0.2930136874 2.2514787291
C -3.4702745224 1.1185794864 1.426033436
C -4.2626752306 0.815822224 0.1073427559
C -3.9012256227 -0.5869772391 -0.5292281049
C -2.5951375014 -1.2592156364 0.0212604866
O -1.5502892176 -0.2731958003 0.0339533763
C -0.2903930043 -0.8560833702 0.5465674734
C 0.5116620069 -1.5688559395 -0.6115827425
O 1.7715904747 -2.1516958563 -0.0986789695
C 2.9009860184 -1.267997139 -0.0337178349
C 2.839368916 0.1656589664 -0.6938856806
C 4.2023414695 0.9449916546 -0.4882597668
C 5.1810585944 0.3153206048 0.5751720924
O 6.3614304355 -0.0471628416 0.3886188493
O -3.3752300523 2.5391889487 1.5754763612
O 4.5669756135 0.4678659384 1.86781301
O 3.9427008422 -1.7405825513 0.4799856869
C 5.4354938573 -0.131176916 2.9033615701
C 2.8746216574 0.0020841255 -2.2885950761
C 2.6443943556 1.4181555024 -2.9541751347
C 4.0624868634 2.0761720657 -2.7738028332
C 4.8061542891 0.955656958 -1.9492271278
O 4.2965595711 -0.2967773802 -2.5529130106
H 1.969925211 0.7443663317 -0.3398537572
H 3.9850591564 1.9749084929 -0.1495372189
H 2.2461535586 -0.812045153 -2.6962160398
H 2.3802681061 1.3045178553 -4.0174951908
H 1.8447393608 1.9857113942 -2.4512700143
H 4.5586871623 2.2337985451 -3.7447054376
H 4.0217178982 3.0363148506 -2.235307004
H 5.9129752744 0.9778584081 -1.9790781196
O -2.4417578416 -2.4508771747 0.3607040585
C -2.6786563665 2.8680814504 2.8406658412
C -5.7863841871 0.556056738 0.4918735363
C -6.6497435105 0.4364917799 -0.8269646575
C -6.2972689093 -1.0249193659 -1.296627746
C -5.2131450212 -1.425942156 -0.2232921284
O -5.7432970955 -0.825240018 1.0230269933
H -4.1389945296 1.6535363228 -0.6003073172
H -3.7661165988 -0.4720370472 -1.6215017278
H -1.6438770734 2.4685719084 2.85123291
H -6.187500152 1.2535560961 1.2528918532
H -7.7218790572 0.5424286674 -0.5975505817
H -6.3721396644 1.2006502161 -1.5708926838
H -7.1718450859 -1.6911032726 -1.2246072327
H -5.9068507015 -1.0626468473 -2.3261117614
H -5.033828217 -2.5107829298 -0.0893700857
H -3.2189162727 2.4650545499 3.7215212768
H -2.6498252105 3.971813562 2.8961220498
H 4.9448501977 0.0716572073 3.8732304345
H 6.4503778789 0.3167453153 2.8981953001
H 5.5327140549 -1.2270969484 2.7598578092
H -0.0803344029 -2.4348759525 -0.972137388
H 0.6575846314 -0.8661665977 -1.4526255491
H -0.4955846712 -1.5910301701 1.3530443722
H 0.295008608 -0.0099706596 0.9586301009
$end

$rem
JOBTYPE                   OPT
METHOD                    B3LYP
DFT_D                     d3_op
BASIS                     STO-3G
GEOM_OPT_MAX_CYCLES       100
GEOM_OPT_TOL_GRADIENT     300
GEOM_OPT_TOL_DISPLACEMENT 1200
GEOM_OPT_TOL_ENERGY       100
SYMMETRY                  False
THRESH                    12
SCF_CONVERGENCE           8
MAX_SUB_FILE_NUM          128
MEM_STATIC                400
MEM_TOTAL                 4000
$end
--------------------------------------------------------------

   16   -1510.2725146490      7.85E-09 Convergence criterion met
 Total energy in the final basis set = -1510.27251465
   14   -1510.2741734331      2.39E-09 Convergence criterion met
 Total energy in the final basis set = -1510.27417343
   13   -1510.2752032163      6.80E-09 Convergence criterion met
 Total energy in the final basis set = -1510.27520322
   14   -1510.2755445594      1.89E-09 Convergence criterion met
 Total energy in the final basis set = -1510.27554456
   13   -1510.2761927686      9.61E-09 Convergence criterion met
 Total energy in the final basis set = -1510.27619277
   13   -1510.2766789630      7.28E-09 Convergence criterion met
 Total energy in the final basis set = -1510.27667896
   13   -1510.2768792478      6.99E-09 Convergence criterion met
 Total energy in the final basis set = -1510.27687925
   14   -1510.2772314445      1.84E-09 Convergence criterion met
   12   -1510.2857973584      6.41E-09 Convergence criterion met
 Total energy in the final basis set = -1510.28579736
   13   -1510.2857939493      6.76E-09 Convergence criterion met
 Total energy in the final basis set = -1510.28579395
   12   -1510.2858401460      6.81E-09 Convergence criterion met
 Total energy in the final basis set = -1510.28584015
   12   -1510.2858287944      3.58E-09 Convergence criterion met
 Total energy in the final basis set = -1510.28582879
   11   -1510.2858331708      6.03E-09 Convergence criterion met
 Total energy in the final basis set = -1510.28583317
    9   -1510.2858370209      9.17E-09 Convergence criterion met
 Total energy in the final basis set = -1510.28583702

             Standard Nuclear Orientation (Angstroms)
    I     Atom           X                Y                Z
 ----------------------------------------------------------------
    1      O      -2.9264600518     1.9014845735     1.0143722635
    2      C      -3.0522659506     1.8361147095    -0.2308894640
    3      C      -2.6313980009     0.6390374871    -1.1452716141
    4      C      -1.9308494210    -0.5151408383    -0.3232193208
    5      C      -1.6786544392    -0.1839512727     1.1929609334
    6      O      -0.4957860905     0.6503615033     1.2568689850
    7      C      -0.1428665574     0.9594372134     2.6613226665
    8      C       1.1437581366     0.1819480183     3.1402466828
    9      O       2.4241635002     0.7689261003     2.6842220585
   10      C       2.8584950206     0.4252940643     1.3549577524
   11      C       1.9694284623    -0.5319869577     0.4865719471
   12      C       2.3475164617    -0.4944626958    -1.0493687828
   13      C       3.5387200693     0.4678842756    -1.4172860728
   14      O       4.6970726448     0.1464570579    -1.7558169729
   15      O      -3.6355145900     2.8559179193    -1.0362459197
   16      O       3.0161360297     1.8058574486    -1.4632636861
   17      O       3.9414378082     0.9291254977     0.9772840500
   18      C       4.1099399918     2.7577503269    -1.7529581813
   19      C       2.2439727866    -2.0647502267     0.8198757360
   20      C       1.0631342529    -2.9229050132     0.2142943568
   21      C       1.4124710115    -2.8720302923    -1.3197081045
   22      C       2.7360642172    -2.0074064906    -1.3053644731
   23      O       3.3962663494    -2.4082533607    -0.0410198985
   24      H       0.9108708725    -0.2301921110     0.6400973654
   25      H       1.4707750062    -0.1897223871    -1.6492753947
   26      H       2.4854569235    -2.2814422546     1.8784467960
   27      H       1.0992444078    -3.9536610331     0.6012466178
   28      H       0.0744668963    -2.4955315253     0.4440963889
   29      H       1.6098810709    -3.8783851465    -1.7218065805
   30      H       0.6183376608    -2.4028547734    -1.9228973536
   31      H       3.4208983290    -2.1621867203    -2.1613490040
   32      O      -2.2491714595    -0.6628764775     2.1940902690
   33      C      -4.0696154231     3.9914772953    -0.1873922802
   34      C      -3.9039454021    -0.1320434663    -1.7081840654
   35      C      -3.4222628502    -1.1373477977    -2.8283825453
   36      C      -2.7872728744    -2.2855795829    -1.9583094326
   37      C      -2.9722332314    -1.6985883749    -0.5057200854
   38      O      -4.2812956704    -1.0082640002    -0.5768425535
   39      H      -1.9913614684     1.0157896686    -1.9633063006
   40      H      -0.9550860806    -0.7636868364    -0.7760193703
   41      H      -3.2090745191     4.4630519478     0.3296330818
   42      H      -4.7454448195     0.5292852913    -1.9926721702
   43      H      -4.2800427467    -1.5002239416    -3.4161888783
   44      H      -2.6953397042    -0.6706322890    -3.5120498522
   45      H      -3.3454463241    -3.2292482717    -2.0663821693
   46      H      -1.7288375529    -2.4721018983    -2.2010626238
   47      H      -2.9706491933    -2.4371495022     0.3193809247
   48      H      -4.8086210854     3.6697127705     0.5744431903
   49      H      -4.5357186690     4.7219383642    -0.8738066164
   50      H       3.6391652253     3.7553550034    -1.8276118143
   51      H       4.6235094294     2.5164703117    -2.7062951678
   52      H       4.8630229477     2.7630226587    -0.9381864273
   53      H       1.1860928213     0.2683375878     4.2464629670
   54      H       1.0466743409    -0.8936086713     2.8875962535
   55      H      -0.9963587130     0.6628835547     3.3094545527
   56      H       0.0302202304     2.0531134722     2.7321821316
 ----------------------------------------------------------------

    9   -1510.2858376456      3.75E-09 Convergence criterion met
 Total energy in the final basis set = -1510.28583765
 Final energy is   -1510.28583764560
 **  OPTIMIZATION CONVERGED  **

                    Orbital Energies (a.u.)
 --------------------------------------------------------------

 Alpha MOs
 -- Occupied --
-18.955 -18.944 -18.932 -18.913 -18.898 -18.897 -18.888 -18.886
-18.876 -18.854 -10.117 -10.113 -10.098 -10.084 -10.082 -10.077
-10.076 -10.071 -10.069 -10.061 -10.055 -10.052 -10.049 -10.049
-10.030 -10.029 -10.028 -10.023 -10.022 -10.020  -1.031  -1.020
 -1.005  -0.991  -0.981  -0.968  -0.954  -0.949  -0.935  -0.918
 -0.776  -0.759  -0.735  -0.723  -0.721  -0.710  -0.703  -0.676
 -0.650  -0.623  -0.598  -0.593  -0.556  -0.548  -0.545  -0.538
 -0.523  -0.511  -0.494  -0.481  -0.472  -0.466  -0.455  -0.448
 -0.441  -0.435  -0.428  -0.424  -0.418  -0.415  -0.405  -0.398
 -0.397  -0.395  -0.388  -0.374  -0.370  -0.360  -0.356  -0.351
 -0.348  -0.345  -0.343  -0.337  -0.328  -0.326  -0.323  -0.317
 -0.316  -0.312  -0.309  -0.307  -0.304  -0.291  -0.285  -0.277
 -0.268  -0.268  -0.256  -0.245  -0.243  -0.238  -0.232  -0.196
 -0.188  -0.172  -0.167  -0.167  -0.158  -0.155  -0.147  -0.142
 -0.134

          Ground-State Mulliken Net Atomic Charges

     Atom                 Charge (a.u.)
  ----------------------------------------
      1 O                    -0.205017
      2 C                     0.217266
      3 C                    -0.077412
      4 C                    -0.082003
      5 C                     0.220340
      6 O                    -0.178204
      7 C                    -0.056462
      8 C                    -0.051157
      9 O                    -0.170841
     10 C                     0.212026
     11 C                    -0.106025
     12 C                    -0.080575
     13 C                     0.216348
     14 O                    -0.216927
     15 O                    -0.165652
     16 O                    -0.178488
     17 O                    -0.196817
     18 C                    -0.128635
     19 C                     0.020885
     20 C                    -0.145142
     21 C                    -0.144047
     22 C                     0.024833
     23 O                    -0.186264
     24 H                     0.103360
     25 H                     0.076170
     26 H                     0.078291
     27 H                     0.078112
     28 H                     0.068100
     29 H                     0.078261
     30 H                     0.066003
     31 H                     0.089115
     32 O                    -0.209081
     33 C                    -0.127735
     34 C                     0.025388
     35 C                    -0.143963
     36 C                    -0.143577
     37 C                     0.024586
     38 O                    -0.187812
     39 H                     0.090070
     40 H                     0.083841
     41 H                     0.092291
     42 H                     0.087813
     43 H                     0.080585
     44 H                     0.074973
     45 H                     0.080523
     46 H                     0.072912
     47 H                     0.089762
     48 H                     0.093691
     49 H                     0.094599
     50 H                     0.084234
     51 H                     0.085209
     52 H                     0.093268
     53 H                     0.094300
     54 H                     0.085016
     55 H                     0.105338
     56 H                     0.094325
  ----------------------------------------
  Sum of atomic charges =    -0.000000

                    Cartesian Multipole Moments
 -----------------------------------------------------------------
    Charge (ESU x 10^10)
                -0.0000
    Dipole Moment (Debye)
         X      -4.4680      Y       0.7348      Z      -1.5105
       Tot       4.7733
    Quadrupole Moments (Debye-Ang)
        XX    -187.8324     XY      -4.6920     YY    -149.2654
        XZ       6.1161     YZ      -0.3359     ZZ    -154.6037

 Total job time:  142.08s(wall), 6766.19s(cpu)
        *  Thank you very much for using Q-Chem.  Have a nice day.  *
