 Q-Chem 5.0, Q-Chem, Inc., Pleasanton, CA (2017)
 Q-Chem 5.0.1 for Intel X86 EM64T Linux

User input:
--------------------------------------------------------------
$molecule
0  1
O 3.4348652083 -1.5290750434 0.7178038041
C 4.4804504742 -1.1015955335 0.1625090016
C 4.5571572691 0.1910687337 -0.7017481154
C 3.10362907 0.7367577246 -0.9727788185
C 2.0065775023 0.0844253096 -0.0123273628
O 1.1771801061 -0.9276238853 -0.6875836906
C 0.0776266034 -0.1962838572 -1.3514201791
C -1.0785165851 -1.2183116938 -1.6605587302
O -2.3023371381 -0.7005179301 -1.0044979402
C -2.8395011826 -1.6714250509 -0.1015516939
C -4.3393483854 -1.3243377834 0.1994860567
C -4.5885228472 0.0268553649 1.0041229678
C -3.3927502202 0.623758834 1.8297507029
O -3.4472258713 0.859118546 3.0602310148
O 5.7490573092 -1.7303463569 0.251881357
O -2.2466928617 0.8792035779 1.0190547471
O -2.2235660164 -2.6890867573 0.2889793854
C -1.1438823482 1.4441431052 1.8425244999
C -5.0729843329 -0.9619072054 -1.1649758697
C -6.6304314822 -0.8391915081 -0.9156711908
C -6.7289745264 0.5893488796 -0.2609677738
C -5.1988319528 0.9597654404 -0.1382427013
O -4.6387340826 0.4341561531 -1.4011748496
H -4.79100302 -2.1874957509 0.7192413381
H -5.3695996559 -0.1594953913 1.7629937109
H -4.7856822755 -1.6042628033 -2.0197777261
H -7.1793560345 -0.8874938029 -1.8694043315
H -7.0057130602 -1.6362705294 -0.2537638547
H -7.2414666483 1.3013162076 -0.9279448401
H -7.2446220965 0.5814773209 0.7124090335
H -4.9743474246 2.0386248872 -0.0317320351
O 1.6730873392 0.5684604025 1.0934502855
C 5.655456723 -2.955528972 1.0851796802
C 5.2444651014 1.4454999902 -0.001192137
C 5.6513968537 2.4445639784 -1.154781771
C 4.2371334642 2.9753536135 -1.5973716687
C 3.2921429241 2.2544674165 -0.5554382624
O 4.1254055034 2.1422690642 0.6672012821
H 5.087192577 -0.054160876 -1.6399653058
H 2.7970339794 0.6002205542 -2.0238982725
H 4.9424054668 -3.6856168741 0.6510950557
H 6.0451679291 1.1955388803 0.7217767842
H 6.2780974621 3.2565846191 -0.7525401121
H 6.1975283142 1.9446255519 -1.9706691683
H 4.163717848 4.0694505554 -1.4935517077
H 3.9872879974 2.7021206809 -2.6352622104
H 2.3475153862 2.7840719109 -0.3258867666
H 5.334520976 -2.7171664197 2.1195402033
H 6.6721920026 -3.3890842217 1.0995464847
H -1.0512717366 2.5270950396 1.6248535359
H -0.1891098525 0.9327891295 1.5759649818
H -1.3764220254 1.3104952195 2.9170385054
H -1.2771537234 -1.2948911076 -2.7498789596
H -0.8250606016 -2.2159037455 -1.2394677449
H 0.4296451207 0.2882674386 -2.2920641589
H -0.3547310799 0.5960679328 -0.701329117
$end

$rem
JOBTYPE                   OPT
METHOD                    B3LYP
DFT_D                     d3_op
BASIS                     STO-3G
GEOM_OPT_MAX_CYCLES       100
GEOM_OPT_TOL_GRADIENT     300
GEOM_OPT_TOL_DISPLACEMENT 1200
GEOM_OPT_TOL_ENERGY       100
SYMMETRY                  False
THRESH                    12
SCF_CONVERGENCE           8
MAX_SUB_FILE_NUM          128
MEM_STATIC                400
MEM_TOTAL                 4000
$end
--------------------------------------------------------------

   16   -1510.2558290025      6.18E-09 Convergence criterion met
 Total energy in the final basis set = -1510.25582900
   15   -1510.2286802021      2.56E-09 Convergence criterion met
 Total energy in the final basis set = -1510.22868020
   15   -1510.2589869823      2.37E-09 Convergence criterion met
 Total energy in the final basis set = -1510.25898698
   15   -1510.2585133681      3.75E-09 Convergence criterion met
 Total energy in the final basis set = -1510.25851337
   14   -1510.2621707759      6.72E-09 Convergence criterion met
 Total energy in the final basis set = -1510.26217078
   15   -1510.2647410648      2.42E-09 Convergence criterion met
 Total energy in the final basis set = -1510.26474106
   14   -1510.2668686642      9.37E-09 Convergence criterion met
 Total energy in the final basis set = -1510.26686866
   14   -1510.2696394128      9.32E-09 Convergence criterion met
   11   -1510.2983162981      6.02E-09 Convergence criterion met
 Total energy in the final basis set = -1510.29831630
   11   -1510.2983296999      7.02E-09 Convergence criterion met
 Total energy in the final basis set = -1510.29832970
   11   -1510.2983281669      5.83E-09 Convergence criterion met
 Total energy in the final basis set = -1510.29832817
   11   -1510.2983311679      5.09E-09 Convergence criterion met
 Total energy in the final basis set = -1510.29833117
   11   -1510.2983355515      3.11E-09 Convergence criterion met
 Total energy in the final basis set = -1510.29833555
    9   -1510.2983368839      6.50E-09 Convergence criterion met
 Total energy in the final basis set = -1510.29833688

             Standard Nuclear Orientation (Angstroms)
    I     Atom           X                Y                Z
 ----------------------------------------------------------------
    1      O       1.0996064386     0.1200308369     0.1907932299
    2      C       2.1180047666    -0.6043674711     0.0820255083
    3      C       3.4753363044    -0.1824337260    -0.5695308359
    4      C       3.3508314355     1.1656388709    -1.3903845910
    5      C       1.9051122169     1.7913543785    -1.4107621711
    6      O       1.1008935672     1.0523176271    -2.3462842001
    7      C      -0.2863855628     1.5753643104    -2.3376987230
    8      C      -1.2146540618     0.4747596575    -2.9746480626
    9      O      -2.3062669830     0.0842923379    -2.0473643262
   10      C      -1.8780466576    -0.9558311508    -1.1719395885
   11      C      -3.0513624483    -1.3844427358    -0.2228930208
   12      C      -2.9395419876    -0.8491594512     1.2730020114
   13      C      -1.6960869775     0.0440391945     1.6141109890
   14      O      -0.7844108914    -0.2512371722     2.4219276562
   15      O       2.2002743896    -1.9411956238     0.5456605674
   16      O      -1.7951580176     1.2907743467     0.9324114547
   17      O      -0.7399193004    -1.4802910065    -1.2254633960
   18      C      -0.6829694861     2.1812216801     1.3578093289
   19      C      -4.4591730239    -0.7888058788    -0.6480747940
   20      C      -5.5905576226    -1.6246148552     0.0725211217
   21      C      -5.4855662205    -1.0755371871     1.5435688674
   22      C      -4.3043153661    -0.0373086036     1.3937424840
   23      O      -4.5009754632     0.5213193869     0.0388012418
   24      H      -3.0644900211    -2.4899404266    -0.2191632846
   25      H      -2.9176293294    -1.7000504423     1.9764129504
   26      H      -4.5871860733    -0.6584143056    -1.7393400572
   27      H      -6.5734072858    -1.4016151157    -0.3718483731
   28      H      -5.4114795706    -2.7097578030     0.0080836630
   29      H      -6.4110744376    -0.5625799247     1.8499559061
   30      H      -5.2569340594    -1.8622826261     2.2799788972
   31      H      -4.2883596909     0.7736635475     2.1473799597
   32      O       1.5294486498     2.8323275525    -0.8304677402
   33      C       0.8696846501    -2.3742520539     1.0548665936
   34      C       4.5410061560     0.2378114669     0.5358426997
   35      C       5.9610136709     0.3303348644    -0.1503082910
   36      C       5.8267935805     1.6809705157    -0.9475223382
   37      C       4.3480767294     2.1000384412    -0.5887656183
   38      O       4.1912688295     1.6478964441     0.8149140862
   39      H       3.8480880192    -1.0162959440    -1.1901497715
   40      H       3.6746445335     1.0143081832    -2.4357564558
   41      H       0.1226769297    -2.3122273232     0.2280284708
   42      H       4.5007249103    -0.3694012748     1.4610611885
   43      H       6.7540032275     0.3864315824     0.6123351483
   44      H       6.1599236626    -0.5332848829    -0.8048670784
   45      H       6.5411814451     2.4365316525    -0.5835418983
   46      H       5.9709785016     1.5512344399    -2.0320665874
   47      H       4.1166575042     3.1796237076    -0.6702871331
   48      H       0.5158716319    -1.7238155999     1.8847971487
   49      H       1.0033592395    -3.4141980988     1.4016918048
   50      H      -0.7249747083     2.3802640905     2.4474677820
   51      H      -0.8171059459     3.1246687382     0.7987612919
   52      H       0.2932880219     1.7216929638     1.0972944979
   53      H      -1.7224407099     0.8580210178    -3.8815349200
   54      H      -0.5929720106    -0.4100298404    -3.2315813741
   55      H      -0.3474077049     2.5236279188    -2.9149890948
   56      H      -0.6263694153     1.7824484342    -1.3003623189
 ----------------------------------------------------------------

    9   -1510.2983373604      8.45E-09 Convergence criterion met
 Total energy in the final basis set = -1510.29833736
 Final energy is   -1510.29833736039
 **  OPTIMIZATION CONVERGED  **

                    Orbital Energies (a.u.)
 --------------------------------------------------------------

 Alpha MOs
 -- Occupied --
-18.943 -18.929 -18.928 -18.917 -18.888 -18.884 -18.883 -18.871
-18.868 -18.857 -10.108 -10.096 -10.094 -10.089 -10.072 -10.062
-10.060 -10.059 -10.057 -10.053 -10.042 -10.041 -10.037 -10.033
-10.030 -10.030 -10.021 -10.020 -10.017 -10.016  -1.019  -1.007
 -1.003  -0.995  -0.970  -0.966  -0.943  -0.929  -0.928  -0.923
 -0.764  -0.758  -0.726  -0.719  -0.711  -0.703  -0.693  -0.647
 -0.646  -0.611  -0.593  -0.578  -0.545  -0.540  -0.537  -0.533
 -0.515  -0.504  -0.485  -0.468  -0.466  -0.451  -0.448  -0.437
 -0.434  -0.428  -0.425  -0.410  -0.408  -0.403  -0.402  -0.398
 -0.389  -0.371  -0.364  -0.363  -0.358  -0.354  -0.349  -0.342
 -0.340  -0.334  -0.330  -0.328  -0.325  -0.322  -0.319  -0.308
 -0.307  -0.304  -0.301  -0.297  -0.294  -0.286  -0.276  -0.270
 -0.268  -0.256  -0.246  -0.244  -0.237  -0.233  -0.230  -0.187
 -0.175  -0.165  -0.162  -0.156  -0.149  -0.145  -0.143  -0.141
 -0.139

          Ground-State Mulliken Net Atomic Charges

     Atom                 Charge (a.u.)
  ----------------------------------------
      1 O                    -0.216678
      2 C                     0.221109
      3 C                    -0.078698
      4 C                    -0.081086
      5 C                     0.216083
      6 O                    -0.178527
      7 C                    -0.051010
      8 C                    -0.049802
      9 O                    -0.162662
     10 C                     0.215903
     11 C                    -0.078323
     12 C                    -0.079737
     13 C                     0.210750
     14 O                    -0.215720
     15 O                    -0.168857
     16 O                    -0.167077
     17 O                    -0.212544
     18 C                    -0.137683
     19 C                     0.025849
     20 C                    -0.144594
     21 C                    -0.144199
     22 C                     0.026963
     23 O                    -0.183771
     24 H                     0.084272
     25 H                     0.083694
     26 H                     0.088920
     27 H                     0.077956
     28 H                     0.072588
     29 H                     0.078083
     30 H                     0.073605
     31 H                     0.084500
     32 O                    -0.222452
     33 C                    -0.152562
     34 C                     0.025083
     35 C                    -0.143626
     36 C                    -0.144160
     37 C                     0.024502
     38 O                    -0.189427
     39 H                     0.086481
     40 H                     0.082613
     41 H                     0.105530
     42 H                     0.085259
     43 H                     0.077644
     44 H                     0.073472
     45 H                     0.077417
     46 H                     0.072602
     47 H                     0.088464
     48 H                     0.099402
     49 H                     0.078608
     50 H                     0.082623
     51 H                     0.091066
     52 H                     0.114498
     53 H                     0.089501
     54 H                     0.101885
     55 H                     0.081923
     56 H                     0.104348
  ----------------------------------------
  Sum of atomic charges =     0.000000

                    Cartesian Multipole Moments
 -----------------------------------------------------------------
    Charge (ESU x 10^10)
                 0.0000
    Dipole Moment (Debye)
         X      -0.7578      Y      -2.0236      Z      -1.7000
       Tot       2.7494
    Quadrupole Moments (Debye-Ang)
        XX    -144.1297     XY       6.3553     YY    -160.8095
        XZ      -7.1677     YZ      -2.9110     ZZ    -154.3270

 Total job time:  137.95s(wall), 6581.29s(cpu)
        *  Thank you very much for using Q-Chem.  Have a nice day.  *
