 Q-Chem 5.0, Q-Chem, Inc., Pleasanton, CA (2017)
 Q-Chem 5.0.1 for Intel X86 EM64T Linux

User input:
--------------------------------------------------------------
$molecule
0  1
O -3.94934 -3.66094 2.70899
C -3.26408 -4.56952 2.26188
C -3.36658 -6.02376 2.66595
C -4.25419 -6.35572 3.87665
C -5.08044 -5.22016 4.4387
O -4.51746 -4.76583 5.59718
C -4.92167 -5.51191 6.7501
C -4.65836 -4.70496 8.01724
O -5.87739 -4.54958 8.76067
C -6.24391 -3.26965 9.0187
C -7.23622 -3.15881 10.1517
C -8.61403 -3.77483 9.86807
C -8.68916 -4.70381 8.67306
O -9.44255 -4.57229 7.71929
O -2.40214 -4.29856 1.24686
O -8.00393 -5.87808 8.75976
O -5.75102 -2.28342 8.48524
C -8.20323 -6.96311 7.9287
C -6.85034 -3.90255 11.44523
C -7.56067 -3.25793 12.6353
C -8.99528 -3.67942 12.37361
C -8.79771 -4.59463 11.15878
O -7.51297 -5.14096 11.35389
H -7.33427 -2.07213 10.37942
H -9.39092 -2.99175 9.72137
H -5.75259 -3.94149 11.61692
H -7.19782 -3.78174 13.54877
H -7.40296 -2.16464 12.75652
H -9.35611 -4.25821 13.25258
H -9.70018 -2.85072 12.14554
H -9.63251 -5.32486 11.07311
O -5.9909 -4.63848 3.86533
C -2.20241 -3.0436 0.71101
C -4.0422 -6.88036 1.58099
C -3.64831 -8.34741 1.75383
C -4.45016 -8.713 2.98657
C -5.19084 -7.39657 3.24049
O -5.40162 -6.88105 1.94686
H -2.32098 -6.36315 2.84422
H -3.63694 -6.80264 4.68689
H -1.82829 -2.34887 1.4932
H -3.8118 -6.53852 0.54815
H -4.05762 -8.91302 0.88644
H -2.55384 -8.52545 1.82766
H -5.18053 -9.50522 2.7081
H -3.85237 -9.04251 3.86374
H -6.10212 -7.57593 3.85328
H -3.1514 -2.65378 0.28461
H -1.44749 -3.10987 -0.09904
H -7.48785 -7.76612 8.20024
H -8.04819 -6.68172 6.86646
H -9.23761 -7.34823 8.05302
H -3.94555 -5.27469 8.65097
H -4.12515 -3.75994 7.76894
H -4.41049 -6.49778 6.79428
H -6.01224 -5.70798 6.69436
$end

$opt
CONSTRAINT
tors           1           2           3           4      -9.474
tors           3           4           5           6    -104.211
tors           4           5           6           7     -85.263
tors           5           6           7           8    -161.053
tors           6           7           8           9    +123.158
tors           7           8           9          10    -123.158
tors           8           9          10          11    -161.053
tors           9          10          11          12     -66.316
tors          11          12          13          14    -123.158
ENDCONSTRAINT
$end

$rem
JOBTYPE                   OPT
METHOD                    B3LYP
DFT_D                     d3_op
BASIS                     STO-3G
GEOM_OPT_MAX_CYCLES       100
GEOM_OPT_TOL_GRADIENT     300
GEOM_OPT_TOL_DISPLACEMENT 1200
GEOM_OPT_TOL_ENERGY       100
SYMMETRY                  False
THRESH                    12
SCF_CONVERGENCE           8
MAX_SUB_FILE_NUM          128
MEM_STATIC                400
MEM_TOTAL                 4000
$end
--------------------------------------------------------------

   15   -1510.1204737030      7.58E-09 Convergence criterion met
 Total energy in the final basis set = -1510.12047370
   14   -1510.1911104710      6.55E-09 Convergence criterion met
 Total energy in the final basis set = -1510.19111047
   14   -1510.2281389579      7.69E-09 Convergence criterion met
 Total energy in the final basis set = -1510.22813896
   14   -1510.2432040705      8.42E-09 Convergence criterion met
 Total energy in the final basis set = -1510.24320407
   14   -1510.2479239252      5.92E-09 Convergence criterion met
 Total energy in the final basis set = -1510.24792393
   13   -1510.2496696785      5.00E-09 Convergence criterion met
 Total energy in the final basis set = -1510.24966968
   13   -1510.2506296840      8.99E-09 Convergence criterion met
 Total energy in the final basis set = -1510.25062968
   14   -1510.2512852339      2.29E-09 Convergence criterion met
   11   -1510.2557834338      7.98E-09 Convergence criterion met
 Total energy in the final basis set = -1510.25578343
   11   -1510.2558489029      4.02E-09 Convergence criterion met
 Total energy in the final basis set = -1510.25584890
   11   -1510.2559131461      8.84E-09 Convergence criterion met
 Total energy in the final basis set = -1510.25591315
   11   -1510.2559321803      5.02E-09 Convergence criterion met
 Total energy in the final basis set = -1510.25593218
   11   -1510.2559389462      3.58E-09 Convergence criterion met
 Total energy in the final basis set = -1510.25593895
   10   -1510.2559403462      9.08E-09 Convergence criterion met
 Total energy in the final basis set = -1510.25594035

             Standard Nuclear Orientation (Angstroms)
    I     Atom           X                Y                Z
 ----------------------------------------------------------------
    1      O       3.4348652083    -1.5290750434     0.7178038041
    2      C       4.4804504742    -1.1015955335     0.1625090016
    3      C       4.5571572691     0.1910687337    -0.7017481154
    4      C       3.1036290700     0.7367577246    -0.9727788185
    5      C       2.0065775023     0.0844253096    -0.0123273628
    6      O       1.1771801061    -0.9276238853    -0.6875836906
    7      C       0.0776266034    -0.1962838572    -1.3514201791
    8      C      -1.0785165851    -1.2183116938    -1.6605587302
    9      O      -2.3023371381    -0.7005179301    -1.0044979402
   10      C      -2.8395011826    -1.6714250509    -0.1015516939
   11      C      -4.3393483854    -1.3243377834     0.1994860567
   12      C      -4.5885228472     0.0268553649     1.0041229678
   13      C      -3.3927502202     0.6237588340     1.8297507029
   14      O      -3.4472258713     0.8591185460     3.0602310148
   15      O       5.7490573092    -1.7303463569     0.2518813570
   16      O      -2.2466928617     0.8792035779     1.0190547471
   17      O      -2.2235660164    -2.6890867573     0.2889793854
   18      C      -1.1438823482     1.4441431052     1.8425244999
   19      C      -5.0729843329    -0.9619072054    -1.1649758697
   20      C      -6.6304314822    -0.8391915081    -0.9156711908
   21      C      -6.7289745264     0.5893488796    -0.2609677738
   22      C      -5.1988319528     0.9597654404    -0.1382427013
   23      O      -4.6387340826     0.4341561531    -1.4011748496
   24      H      -4.7910030200    -2.1874957509     0.7192413381
   25      H      -5.3695996559    -0.1594953913     1.7629937109
   26      H      -4.7856822755    -1.6042628033    -2.0197777261
   27      H      -7.1793560345    -0.8874938029    -1.8694043315
   28      H      -7.0057130602    -1.6362705294    -0.2537638547
   29      H      -7.2414666483     1.3013162076    -0.9279448401
   30      H      -7.2446220965     0.5814773209     0.7124090335
   31      H      -4.9743474246     2.0386248872    -0.0317320351
   32      O       1.6730873392     0.5684604025     1.0934502855
   33      C       5.6554567230    -2.9555289720     1.0851796802
   34      C       5.2444651014     1.4454999902    -0.0011921370
   35      C       5.6513968537     2.4445639784    -1.1547817710
   36      C       4.2371334642     2.9753536135    -1.5973716687
   37      C       3.2921429241     2.2544674165    -0.5554382624
   38      O       4.1254055034     2.1422690642     0.6672012821
   39      H       5.0871925770    -0.0541608760    -1.6399653058
   40      H       2.7970339794     0.6002205542    -2.0238982725
   41      H       4.9424054668    -3.6856168741     0.6510950557
   42      H       6.0451679291     1.1955388803     0.7217767842
   43      H       6.2780974621     3.2565846191    -0.7525401121
   44      H       6.1975283142     1.9446255519    -1.9706691683
   45      H       4.1637178480     4.0694505554    -1.4935517077
   46      H       3.9872879974     2.7021206809    -2.6352622104
   47      H       2.3475153862     2.7840719109    -0.3258867666
   48      H       5.3345209760    -2.7171664197     2.1195402033
   49      H       6.6721920026    -3.3890842217     1.0995464847
   50      H      -1.0512717366     2.5270950396     1.6248535359
   51      H      -0.1891098525     0.9327891295     1.5759649818
   52      H      -1.3764220254     1.3104952195     2.9170385054
   53      H      -1.2771537234    -1.2948911076    -2.7498789596
   54      H      -0.8250606016    -2.2159037455    -1.2394677449
   55      H       0.4296451207     0.2882674386    -2.2920641589
   56      H      -0.3547310799     0.5960679328    -0.7013291170
 ----------------------------------------------------------------

    9   -1510.2559405342      9.98E-09 Convergence criterion met
 Total energy in the final basis set = -1510.25594053
 Final energy is   -1510.25594053423
 **  OPTIMIZATION CONVERGED  **

                    Orbital Energies (a.u.)
 --------------------------------------------------------------

 Alpha MOs
 -- Occupied --
-18.961 -18.921 -18.920 -18.905 -18.893 -18.885 -18.880 -18.876
-18.865 -18.859 -10.119 -10.097 -10.090 -10.087 -10.077 -10.068
-10.062 -10.057 -10.056 -10.056 -10.055 -10.047 -10.034 -10.033
-10.031 -10.030 -10.025 -10.024 -10.018 -10.016  -1.032  -1.003
 -0.995  -0.989  -0.974  -0.966  -0.955  -0.927  -0.921  -0.916
 -0.768  -0.757  -0.727  -0.720  -0.710  -0.702  -0.686  -0.675
 -0.642  -0.603  -0.597  -0.573  -0.552  -0.542  -0.539  -0.533
 -0.518  -0.507  -0.485  -0.475  -0.460  -0.459  -0.454  -0.439
 -0.431  -0.426  -0.423  -0.419  -0.415  -0.404  -0.399  -0.395
 -0.388  -0.384  -0.379  -0.364  -0.359  -0.356  -0.345  -0.341
 -0.339  -0.335  -0.332  -0.329  -0.327  -0.323  -0.319  -0.318
 -0.308  -0.304  -0.304  -0.303  -0.293  -0.285  -0.278  -0.273
 -0.270  -0.266  -0.239  -0.238  -0.231  -0.230  -0.225  -0.197
 -0.169  -0.168  -0.157  -0.150  -0.148  -0.141  -0.139  -0.138
 -0.136

          Ground-State Mulliken Net Atomic Charges

     Atom                 Charge (a.u.)
  ----------------------------------------
      1 O                    -0.187757
      2 C                     0.219798
      3 C                    -0.080164
      4 C                    -0.084135
      5 C                     0.228184
      6 O                    -0.199305
      7 C                    -0.052859
      8 C                    -0.052781
      9 O                    -0.162017
     10 C                     0.209869
     11 C                    -0.077930
     12 C                    -0.079811
     13 C                     0.203366
     14 O                    -0.218971
     15 O                    -0.161407
     16 O                    -0.167620
     17 O                    -0.213924
     18 C                    -0.149166
     19 C                     0.027039
     20 C                    -0.145356
     21 C                    -0.142250
     22 C                     0.026330
     23 O                    -0.182908
     24 H                     0.085467
     25 H                     0.083933
     26 H                     0.080793
     27 H                     0.077005
     28 H                     0.073786
     29 H                     0.076831
     30 H                     0.074289
     31 H                     0.083700
     32 O                    -0.200740
     33 C                    -0.127553
     34 C                     0.026086
     35 C                    -0.142121
     36 C                    -0.145290
     37 C                     0.025498
     38 O                    -0.183992
     39 H                     0.087270
     40 H                     0.080487
     41 H                     0.095855
     42 H                     0.086259
     43 H                     0.079536
     44 H                     0.074075
     45 H                     0.079294
     46 H                     0.073531
     47 H                     0.085831
     48 H                     0.096184
     49 H                     0.095568
     50 H                     0.075273
     51 H                     0.107752
     52 H                     0.096676
     53 H                     0.080656
     54 H                     0.106315
     55 H                     0.064582
     56 H                     0.090940
  ----------------------------------------
  Sum of atomic charges =     0.000000

                    Cartesian Multipole Moments
 -----------------------------------------------------------------
    Charge (ESU x 10^10)
                 0.0000
    Dipole Moment (Debye)
         X       2.3135      Y      -0.0231      Z      -3.5152
       Tot       4.2083
    Quadrupole Moments (Debye-Ang)
        XX    -126.8749     XY      -1.8413     YY    -156.7294
        XZ      -1.1073     YZ      -3.0113     ZZ    -163.8639

 Total job time:  98.41s(wall), 4683.41s(cpu)
        *  Thank you very much for using Q-Chem.  Have a nice day.  *
