 Q-Chem 5.0, Q-Chem, Inc., Pleasanton, CA (2017)
 Q-Chem 5.0.1 for Intel X86 EM64T Linux

User input:
--------------------------------------------------------------
$molecule
0  1
O -3.94934 -3.66094 2.70899
C -3.26408 -4.56952 2.26188
C -3.36658 -6.02376 2.66595
C -4.73745 -6.52338 3.15068
C -5.89497 -5.55994 3.00924
O -6.88685 -6.13239 2.265
C -7.99789 -6.57423 3.05216
C -9.06133 -7.20009 2.15576
O -10.15939 -6.28926 1.9898
C -10.71797 -6.26831 0.75421
C -11.86525 -5.2925 0.64365
C -11.45713 -3.84718 0.3231
C -10.04181 -3.65728 -0.18435
O -9.69985 -2.86616 -1.05138
O -2.1855 -4.23995 1.50199
O -9.04836 -4.04249 0.66041
O -10.47 -7.093 -0.11786
C -7.72666 -3.67739 0.46526
C -12.81162 -5.56641 -0.5528
C -14.18914 -4.97311 -0.26181
C -13.88074 -3.49335 -0.34803
C -12.42717 -3.54693 -0.83468
O -12.35252 -4.73198 -1.58666
H -12.47843 -5.39789 1.5678
H -11.57917 -3.17522 1.20056
H -12.91445 -6.64475 -0.80356
H -14.84156 -5.25094 -1.12103
H -14.67519 -5.30157 0.68192
H -14.55013 -3.03981 -1.11221
H -13.95806 -2.93538 0.61041
H -12.17265 -2.60947 -1.37597
O -6.09184 -4.6232 3.7715
C -1.88016 -2.95781 1.09529
C -3.1383 -6.9762 1.46397
C -2.60634 -8.31489 1.96571
C -3.83727 -8.86071 2.64975
C -4.86563 -7.78998 2.25913
O -4.42414 -7.31813 1.01442
H -2.54398 -6.19864 3.39542
H -4.71221 -6.80805 4.22575
H -1.71199 -2.30492 1.9783
H -2.44936 -6.57668 0.68874
H -2.39724 -8.93337 1.06292
H -1.69205 -8.27178 2.5958
H -4.08243 -9.84536 2.19288
H -3.76256 -8.96093 3.75425
H -5.87224 -8.25713 2.27566
H -2.70588 -2.54711 0.47562
H -0.95333 -2.98051 0.48624
H -7.11691 -3.9801 1.32274
H -7.63661 -2.57142 0.40083
H -7.33131 -4.14216 -0.46327
H -8.63045 -7.67295 1.2445
H -9.49705 -8.0309 2.75306
H -8.43445 -5.77916 3.69825
H -7.61054 -7.37674 3.72177
$end

$opt
CONSTRAINT
tors           1           2           3           4     +28.421
tors           3           4           5           6    +123.158
tors           4           5           6           7    +104.211
tors           5           6           7           8    -180.000
tors           6           7           8           9    -104.211
tors           7           8           9          10    +142.105
tors           8           9          10          11    -180.000
tors           9          10          11          12     +85.263
tors          11          12          13          14    +142.105
ENDCONSTRAINT
$end

$rem
JOBTYPE                   OPT
METHOD                    B3LYP
DFT_D                     d3_op
BASIS                     STO-3G
GEOM_OPT_MAX_CYCLES       100
GEOM_OPT_TOL_GRADIENT     300
GEOM_OPT_TOL_DISPLACEMENT 1200
GEOM_OPT_TOL_ENERGY       100
SYMMETRY                  False
THRESH                    12
SCF_CONVERGENCE           8
MAX_SUB_FILE_NUM          128
MEM_STATIC                400
MEM_TOTAL                 4000
$end
--------------------------------------------------------------

   15   -1510.1108534356      9.33E-09 Convergence criterion met
 Total energy in the final basis set = -1510.11085344
   13   -1510.1829584482      9.83E-09 Convergence criterion met
 Total energy in the final basis set = -1510.18295845
   14   -1510.2220278860      4.83E-09 Convergence criterion met
 Total energy in the final basis set = -1510.22202789
   14   -1510.2413365191      5.56E-09 Convergence criterion met
 Total energy in the final basis set = -1510.24133652
   14   -1510.2505784345      6.53E-09 Convergence criterion met
 Total energy in the final basis set = -1510.25057843
   14   -1510.2537987382      5.08E-09 Convergence criterion met
 Total energy in the final basis set = -1510.25379874
   13   -1510.2564268411      8.42E-09 Convergence criterion met
 Total energy in the final basis set = -1510.25642684
   14   -1510.2577248523      2.35E-09 Convergence criterion met
   12   -1510.2621850326      8.89E-09 Convergence criterion met
 Total energy in the final basis set = -1510.26218503
   12   -1510.2621904689      5.25E-09 Convergence criterion met
 Total energy in the final basis set = -1510.26219047
   11   -1510.2622452417      4.80E-09 Convergence criterion met
 Total energy in the final basis set = -1510.26224524
   11   -1510.2622816926      6.61E-09 Convergence criterion met
 Total energy in the final basis set = -1510.26228169
   11   -1510.2622944360      2.06E-09 Convergence criterion met
 Total energy in the final basis set = -1510.26229444
   11   -1510.2623003754      2.98E-09 Convergence criterion met
 Total energy in the final basis set = -1510.26230038

             Standard Nuclear Orientation (Angstroms)
    I     Atom           X                Y                Z
 ----------------------------------------------------------------
    1      O      -2.8259123372    -1.6861363383     0.3353987768
    2      C      -4.0024757363    -1.3716461928     0.0300674777
    3      C      -4.7531044408    -0.0749577474     0.5185036227
    4      C      -3.6536219153     1.0222012421     0.7728682837
    5      C      -2.2869672282     0.4226010438     1.3083757060
    6      O      -1.1485945372     0.7800046903     0.4433698855
    7      C      -0.3712734141     1.8461207551     1.1169665965
    8      C       0.8392306939     2.2228794905     0.1920902006
    9      O       2.0796169305     1.6317244735     0.7468191059
   10      C       2.9241378148     1.1671954005    -0.3212379563
   11      C       4.2259596959     0.5483653213     0.2983199353
   12      C       4.1444123724    -0.9771345709     0.7406199189
   13      C       2.8691471007    -1.7716010630     0.2616830219
   14      O       2.8371729211    -2.9635749295    -0.1154881924
   15      O      -4.8576246056    -2.1779848149    -0.7684950882
   16      O       1.7386116102    -0.9196914664     0.3535033923
   17      O       2.6488255229     1.2882996509    -1.5347328236
   18      C       0.4979059150    -1.5765038567    -0.1191693829
   19      C       5.4301672613     0.4935763106    -0.7372907379
   20      C       6.7733063752     0.4537048144     0.0909217230
   21      C       6.7294600885    -1.0141822252     0.6589308022
   22      C       5.4089729329    -1.5648460174    -0.0098059763
   23      O       5.3511641533    -0.8662683463    -1.3164129395
   24      H       4.4924236369     1.1657738395     1.1750110819
   25      H       4.2240508363    -1.0714357265     1.8396008938
   26      H       5.3794865135     1.2567265273    -1.5381260330
   27      H       7.6387735235     0.6004364921    -0.5749449116
   28      H       6.8017796241     1.2189388372     0.8831138485
   29      H       7.6026849070    -1.6011914794     0.3333859422
   30      H       6.6758910554    -1.0419061800     1.7590569875
   31      H       5.3596014482    -2.6618856070    -0.1549134057
   32      O      -2.1323347785    -0.0460305946     2.4549017398
   33      C      -4.1337564016    -3.3880443127    -1.2296453200
   34      C      -5.4504112546     0.5331200693    -0.7677416060
   35      C      -6.0814628409     1.9493267461    -0.4630167046
   36      C      -4.8092382624     2.8783718725    -0.5005646124
   37      C      -3.6678220464     1.7959686709    -0.6134067360
   38      O      -4.2431599636     0.8328940650    -1.5849449327
   39      H      -5.4131343224    -0.2780118049     1.3806845440
   40      H      -3.9909157820     1.7012755308     1.5781006828
   41      H      -3.8023357990    -4.0125810039    -0.3752094534
   42      H      -6.1092752773    -0.1802883323    -1.2986523786
   43      H      -6.8100790196     2.2241921280    -1.2418229374
   44      H      -6.5882569988     1.9674347078     0.5155020133
   45      H      -4.8134293985     3.5257051129    -1.3921964108
   46      H      -4.7098758103     3.5087297545     0.3974968183
   47      H      -2.6766877744     2.1503597002    -0.9558931664
   48      H      -3.2472791747    -3.1196444043    -1.8393170694
   49      H      -4.8544229244    -3.9539489082    -1.8479699085
   50      H      -0.2815963315    -0.7880154071     0.0010817057
   51      H       0.2529178374    -2.4647019518     0.4966344641
   52      H       0.5890344332    -1.8889323375    -1.1786609438
   53      H       0.6779890180     1.8529789390    -0.8441019086
   54      H       0.9508047758     3.3288817841     0.1546681267
   55      H       0.0125717130     1.5104701578     2.1075015556
   56      H      -1.0130163179     2.7423804430     1.2775848341
 ----------------------------------------------------------------

    9   -1510.2623012847      5.46E-09 Convergence criterion met
 Total energy in the final basis set = -1510.26230128
 Final energy is   -1510.26230128469
 **  OPTIMIZATION CONVERGED  **

                    Orbital Energies (a.u.)
 --------------------------------------------------------------

 Alpha MOs
 -- Occupied --
-18.955 -18.921 -18.920 -18.905 -18.895 -18.891 -18.887 -18.878
-18.863 -18.859 -10.114 -10.106 -10.091 -10.086 -10.074 -10.072
-10.065 -10.064 -10.064 -10.051 -10.049 -10.048 -10.039 -10.029
-10.029 -10.028 -10.027 -10.026 -10.014 -10.013  -1.028  -1.004
 -1.000  -0.994  -0.975  -0.961  -0.951  -0.934  -0.924  -0.922
 -0.769  -0.754  -0.731  -0.718  -0.711  -0.702  -0.691  -0.671
 -0.641  -0.608  -0.599  -0.573  -0.552  -0.543  -0.536  -0.529
 -0.519  -0.501  -0.492  -0.476  -0.466  -0.457  -0.453  -0.441
 -0.439  -0.425  -0.422  -0.415  -0.412  -0.404  -0.398  -0.397
 -0.387  -0.385  -0.376  -0.365  -0.362  -0.355  -0.349  -0.344
 -0.339  -0.336  -0.334  -0.329  -0.326  -0.321  -0.320  -0.319
 -0.313  -0.309  -0.303  -0.299  -0.289  -0.285  -0.281  -0.275
 -0.266  -0.262  -0.244  -0.241  -0.237  -0.229  -0.226  -0.192
 -0.167  -0.165  -0.162  -0.160  -0.154  -0.148  -0.146  -0.137
 -0.135

          Ground-State Mulliken Net Atomic Charges

     Atom                 Charge (a.u.)
  ----------------------------------------
      1 O                    -0.201394
      2 C                     0.221871
      3 C                    -0.075526
      4 C                    -0.084450
      5 C                     0.223640
      6 O                    -0.194831
      7 C                    -0.046655
      8 C                    -0.051248
      9 O                    -0.171578
     10 C                     0.217303
     11 C                    -0.080037
     12 C                    -0.077157
     13 C                     0.210702
     14 O                    -0.216802
     15 O                    -0.163094
     16 O                    -0.172539
     17 O                    -0.218600
     18 C                    -0.143570
     19 C                     0.024285
     20 C                    -0.143337
     21 C                    -0.145135
     22 C                     0.023146
     23 O                    -0.190028
     24 H                     0.082033
     25 H                     0.083390
     26 H                     0.085702
     27 H                     0.076622
     28 H                     0.071604
     29 H                     0.077104
     30 H                     0.072167
     31 H                     0.090025
     32 O                    -0.194621
     33 C                    -0.126853
     34 C                     0.022647
     35 C                    -0.145705
     36 C                    -0.141615
     37 C                     0.020879
     38 O                    -0.192133
     39 H                     0.090704
     40 H                     0.082208
     41 H                     0.093612
     42 H                     0.090947
     43 H                     0.079728
     44 H                     0.074477
     45 H                     0.079142
     46 H                     0.072742
     47 H                     0.090352
     48 H                     0.096365
     49 H                     0.094795
     50 H                     0.116010
     51 H                     0.082403
     52 H                     0.080026
     53 H                     0.105753
     54 H                     0.078777
     55 H                     0.093543
     56 H                     0.072205
  ----------------------------------------
  Sum of atomic charges =     0.000000

                    Cartesian Multipole Moments
 -----------------------------------------------------------------
    Charge (ESU x 10^10)
                 0.0000
    Dipole Moment (Debye)
         X      -3.3344      Y       2.4310      Z       1.8516
       Tot       4.5229
    Quadrupole Moments (Debye-Ang)
        XX    -136.4031     XY       4.3752     YY    -151.8221
        XZ       8.8279     YZ       3.6721     ZZ    -167.6245

 Total job time:  81.69s(wall), 3885.57s(cpu)
        *  Thank you very much for using Q-Chem.  Have a nice day.  *
