 Q-Chem 5.0, Q-Chem, Inc., Pleasanton, CA (2017)
 Q-Chem 5.0.1 for Intel X86 EM64T Linux

User input:
--------------------------------------------------------------
$molecule
0  1
O -2.8259123372 -1.6861363383 0.3353987768
C -4.0024757363 -1.3716461928 0.0300674777
C -4.7531044408 -0.0749577474 0.5185036227
C -3.6536219153 1.0222012421 0.7728682837
C -2.2869672282 0.4226010438 1.308375706
O -1.1485945372 0.7800046903 0.4433698855
C -0.3712734141 1.8461207551 1.1169665965
C 0.8392306939 2.2228794905 0.1920902006
O 2.0796169305 1.6317244735 0.7468191059
C 2.9241378148 1.1671954005 -0.3212379563
C 4.2259596959 0.5483653213 0.2983199353
C 4.1444123724 -0.9771345709 0.7406199189
C 2.8691471007 -1.771601063 0.2616830219
O 2.8371729211 -2.9635749295 -0.1154881924
O -4.8576246056 -2.1779848149 -0.7684950882
O 1.7386116102 -0.9196914664 0.3535033923
O 2.6488255229 1.2882996509 -1.5347328236
C 0.497905915 -1.5765038567 -0.1191693829
C 5.4301672613 0.4935763106 -0.7372907379
C 6.7733063752 0.4537048144 0.090921723
C 6.7294600885 -1.0141822252 0.6589308022
C 5.4089729329 -1.5648460174 -0.0098059763
O 5.3511641533 -0.8662683463 -1.3164129395
H 4.4924236369 1.1657738395 1.1750110819
H 4.2240508363 -1.0714357265 1.8396008938
H 5.3794865135 1.2567265273 -1.538126033
H 7.6387735235 0.6004364921 -0.5749449116
H 6.8017796241 1.2189388372 0.8831138485
H 7.602684907 -1.6011914794 0.3333859422
H 6.6758910554 -1.04190618 1.7590569875
H 5.3596014482 -2.661885607 -0.1549134057
O -2.1323347785 -0.0460305946 2.4549017398
C -4.1337564016 -3.3880443127 -1.22964532
C -5.4504112546 0.5331200693 -0.767741606
C -6.0814628409 1.9493267461 -0.4630167046
C -4.8092382624 2.8783718725 -0.5005646124
C -3.6678220464 1.7959686709 -0.613406736
O -4.2431599636 0.832894065 -1.5849449327
H -5.4131343224 -0.2780118049 1.380684544
H -3.990915782 1.7012755308 1.5781006828
H -3.802335799 -4.0125810039 -0.3752094534
H -6.1092752773 -0.1802883323 -1.2986523786
H -6.8100790196 2.224192128 -1.2418229374
H -6.5882569988 1.9674347078 0.5155020133
H -4.8134293985 3.5257051129 -1.3921964108
H -4.7098758103 3.5087297545 0.3974968183
H -2.6766877744 2.1503597002 -0.9558931664
H -3.2472791747 -3.1196444043 -1.8393170694
H -4.8544229244 -3.9539489082 -1.8479699085
H -0.2815963315 -0.7880154071 0.0010817057
H 0.2529178374 -2.4647019518 0.4966344641
H 0.5890344332 -1.8889323375 -1.1786609438
H 0.677989018 1.852978939 -0.8441019086
H 0.9508047758 3.3288817841 0.1546681267
H 0.012571713 1.5104701578 2.1075015556
H -1.0130163179 2.742380443 1.2775848341
$end

$rem
JOBTYPE                   OPT
METHOD                    B3LYP
DFT_D                     d3_op
BASIS                     STO-3G
GEOM_OPT_MAX_CYCLES       100
GEOM_OPT_TOL_GRADIENT     300
GEOM_OPT_TOL_DISPLACEMENT 1200
GEOM_OPT_TOL_ENERGY       100
SYMMETRY                  False
THRESH                    12
SCF_CONVERGENCE           8
MAX_SUB_FILE_NUM          128
MEM_STATIC                400
MEM_TOTAL                 4000
$end
--------------------------------------------------------------

   16   -1510.2621047327      4.34E-09 Convergence criterion met
 Total energy in the final basis set = -1510.26210473
   14   -1510.2659168792      5.34E-09 Convergence criterion met
 Total energy in the final basis set = -1510.26591688
   14   -1510.2624214579      5.05E-09 Convergence criterion met
 Total energy in the final basis set = -1510.26242146
   14   -1510.2697825319      6.53E-09 Convergence criterion met
 Total energy in the final basis set = -1510.26978253
   14   -1510.2725157210      2.56E-09 Convergence criterion met
 Total energy in the final basis set = -1510.27251572
   14   -1510.2768908609      5.27E-09 Convergence criterion met
 Total energy in the final basis set = -1510.27689086
   15   -1510.2815859359      3.09E-09 Convergence criterion met
 Total energy in the final basis set = -1510.28158594
   14   -1510.2845791277      7.14E-09 Convergence criterion met
   12   -1510.2937657926      7.77E-09 Convergence criterion met
 Total energy in the final basis set = -1510.29376579
   12   -1510.2938470372      7.38E-09 Convergence criterion met
 Total energy in the final basis set = -1510.29384704
   12   -1510.2938082841      3.92E-09 Convergence criterion met
 Total energy in the final basis set = -1510.29380828
   11   -1510.2938729351      7.14E-09 Convergence criterion met
 Total energy in the final basis set = -1510.29387294
   10   -1510.2938725932      5.93E-09 Convergence criterion met
 Total energy in the final basis set = -1510.29387259
    9   -1510.2938713303      7.38E-09 Convergence criterion met
 Total energy in the final basis set = -1510.29387133

             Standard Nuclear Orientation (Angstroms)
    I     Atom           X                Y                Z
 ----------------------------------------------------------------
    1      O       2.4986919913    -0.7683982913    -2.2114095415
    2      C       3.1209440915    -1.1008607910    -1.1769905361
    3      C       4.0697141082    -0.1945343646    -0.3213508160
    4      C       3.9105266547     1.3462329988    -0.6514514067
    5      C       2.7832148588     1.6677446354    -1.6983925239
    6      O       1.4944839917     1.5114733964    -1.0716695518
    7      C       0.4097770581     1.7333418171    -2.0592714213
    8      C      -0.7708289176     2.5143004841    -1.3724945846
    9      O      -2.0066488357     1.7005178856    -1.4458754845
   10      C      -2.4903583078     1.4000234993    -0.1249687585
   11      C      -3.7242622117     0.4448268195    -0.2816848200
   12      C      -3.4395160590    -1.0541485313     0.1632214481
   13      C      -2.0197731697    -1.2690199570     0.8027310348
   14      O      -1.7565768391    -1.8753011685     1.8630419439
   15      O       3.0771745615    -2.4078247258    -0.6043326961
   16      O      -1.0498764495    -0.6359601946    -0.0322286554
   17      O      -2.0228558784     1.8939361621     0.9243206383
   18      C       0.2802075559    -0.6241816069     0.6227465742
   19      C      -4.9137150360     0.8201689002     0.7055298703
   20      C      -6.2308020345     0.1354333871     0.1670897874
   21      C      -5.9641787627    -1.3700118530     0.5424350355
   22      C      -4.5615703091    -1.2637323057     1.2586618456
   23      O      -4.6075979662     0.0549577118     1.9351287623
   24      H      -4.0450662348     0.4830736486    -1.3374526047
   25      H      -3.5537854365    -1.7454655485    -0.6922223683
   26      H      -4.9981483832     1.9003068751     0.9336450706
   27      H      -7.1120475779     0.5323299797     0.6958287004
   28      H      -6.3693105811     0.2880110325    -0.9153037910
   29      H      -6.7266757357    -1.7551526661     1.2380087194
   30      H      -5.9278918671    -2.0271009522    -0.3412467327
   31      H      -4.3259580938    -2.0634227321     1.9876794334
   32      O       2.9486879437     2.1128563398    -2.8546153261
   33      C       2.2040957412    -3.2889705770    -1.4166242974
   34      C       3.7365232684    -0.2154840119     1.2328532200
   35      C       4.9886048175     0.3507876047     2.0089790879
   36      C       4.8860383948     1.8842583971     1.6668522138
   37      C       3.5708892937     1.9180472427     0.7906619156
   38      O       2.7285495002     0.8567532303     1.3869832743
   39      H       5.1069268967    -0.5337801677    -0.4999977188
   40      H       4.8513630395     1.7639355138    -1.0505997153
   41      H       2.5885800412    -3.4011844629    -2.4507677180
   42      H       3.3396001139    -1.1831153072     1.5960123679
   43      H       4.8800604297     0.1714541259     3.0904925382
   44      H       5.9330448105    -0.1023096701     1.6678387071
   45      H       4.7596187979     2.4938744686     2.5755948321
   46      H       5.7620281415     2.2557546847     1.1114899611
   47      H       3.0293470255     2.8833997275     0.7860459210
   48      H       1.1666835259    -2.8997051051    -1.4657691490
   49      H       2.2087592647    -4.2713419436    -0.9097273307
   50      H       0.8898915935     0.1321187513     0.0788780656
   51      H       0.7592667006    -1.6223881629     0.5666752257
   52      H       0.1955118261    -0.3351214758     1.6880350978
   53      H      -0.5407649838     2.7098627721    -0.3008078820
   54      H      -0.9580907974     3.4768552992    -1.8923878747
   55      H       0.0360064730     0.7445827758    -2.4058151152
   56      H       0.8335352779     2.2813983076    -2.9274592346
 ----------------------------------------------------------------

    9   -1510.2938705220      4.91E-09 Convergence criterion met
 Total energy in the final basis set = -1510.29387052
 Final energy is   -1510.29387052195
 **  OPTIMIZATION CONVERGED  **

                    Orbital Energies (a.u.)
 --------------------------------------------------------------

 Alpha MOs
 -- Occupied --
-18.948 -18.930 -18.925 -18.920 -18.894 -18.890 -18.882 -18.873
-18.869 -18.864 -10.112 -10.101 -10.092 -10.092 -10.073 -10.065
-10.065 -10.061 -10.059 -10.055 -10.053 -10.046 -10.041 -10.034
-10.033 -10.031 -10.024 -10.023 -10.017 -10.016  -1.025  -1.009
 -1.005  -0.997  -0.976  -0.964  -0.948  -0.935  -0.929  -0.925
 -0.769  -0.758  -0.728  -0.720  -0.715  -0.703  -0.690  -0.670
 -0.646  -0.613  -0.597  -0.574  -0.550  -0.542  -0.539  -0.532
 -0.518  -0.504  -0.490  -0.472  -0.468  -0.454  -0.451  -0.445
 -0.438  -0.429  -0.424  -0.422  -0.412  -0.402  -0.401  -0.393
 -0.387  -0.384  -0.380  -0.364  -0.360  -0.357  -0.352  -0.346
 -0.340  -0.335  -0.334  -0.330  -0.329  -0.325  -0.322  -0.318
 -0.309  -0.305  -0.303  -0.300  -0.289  -0.286  -0.284  -0.278
 -0.267  -0.265  -0.248  -0.240  -0.238  -0.236  -0.229  -0.190
 -0.175  -0.167  -0.166  -0.163  -0.153  -0.152  -0.148  -0.143
 -0.139

          Ground-State Mulliken Net Atomic Charges

     Atom                 Charge (a.u.)
  ----------------------------------------
      1 O                    -0.207921
      2 C                     0.214108
      3 C                    -0.079260
      4 C                    -0.081184
      5 C                     0.217436
      6 O                    -0.175483
      7 C                    -0.054587
      8 C                    -0.057356
      9 O                    -0.175410
     10 C                     0.215600
     11 C                    -0.079450
     12 C                    -0.078367
     13 C                     0.211430
     14 O                    -0.211127
     15 O                    -0.168392
     16 O                    -0.176573
     17 O                    -0.217875
     18 C                    -0.146400
     19 C                     0.025168
     20 C                    -0.143611
     21 C                    -0.144536
     22 C                     0.023669
     23 O                    -0.187428
     24 H                     0.084762
     25 H                     0.082812
     26 H                     0.083955
     27 H                     0.077381
     28 H                     0.072763
     29 H                     0.077529
     30 H                     0.072177
     31 H                     0.090088
     32 O                    -0.213393
     33 C                    -0.128746
     34 C                     0.024569
     35 C                    -0.143227
     36 C                    -0.144120
     37 C                     0.026586
     38 O                    -0.186606
     39 H                     0.087675
     40 H                     0.085929
     41 H                     0.091361
     42 H                     0.090434
     43 H                     0.080077
     44 H                     0.074122
     45 H                     0.079754
     46 H                     0.074306
     47 H                     0.086419
     48 H                     0.093594
     49 H                     0.093744
     50 H                     0.116369
     51 H                     0.072464
     52 H                     0.092353
     53 H                     0.106213
     54 H                     0.082188
     55 H                     0.095007
     56 H                     0.099007
  ----------------------------------------
  Sum of atomic charges =    -0.000000

                    Cartesian Multipole Moments
 -----------------------------------------------------------------
    Charge (ESU x 10^10)
                -0.0000
    Dipole Moment (Debye)
         X       1.6012      Y      -1.2139      Z      -1.5219
       Tot       2.5206
    Quadrupole Moments (Debye-Ang)
        XX    -138.0641     XY       0.5628     YY    -152.2707
        XZ      13.6079     YZ       4.8089     ZZ    -173.4567

 Total job time:  91.41s(wall), 4356.05s(cpu)
        *  Thank you very much for using Q-Chem.  Have a nice day.  *
