 Q-Chem 5.0, Q-Chem, Inc., Pleasanton, CA (2017)
 Q-Chem 5.0.1 for Intel X86 EM64T Linux

User input:
--------------------------------------------------------------
$molecule
0  1
O -3.5323721533 -2.2472823695 0.6470437049
C -4.0094081107 -1.4873342167 -0.2262419564
C -4.6776540493 -0.0851507582 0.025247404
C -3.8097242095 0.8327569911 0.9899920063
C -2.5150048177 0.121911625 1.5114688192
O -1.6390866781 -0.0986510766 0.3944264849
C -0.630055163 -1.1403151719 0.7060614665
C 0.3908965499 -0.7069369204 1.8307377596
O 1.586457622 -1.5655336826 1.7566647526
C 2.8192124875 -1.0978212845 1.201702574
C 3.358839493 0.4104752755 1.1691363845
C 4.4968822732 0.5406706676 0.0516332663
C 4.9385584416 -0.7895930028 -0.6650134706
O 5.9923530154 -1.4301683217 -0.4599852032
O -4.0554832296 -1.8084257058 -1.6165947087
O 3.9908015948 -1.0891680279 -1.7026220225
O 3.5863740589 -2.0270681288 0.84394795
C 4.3555693287 -2.3640619663 -2.3571065184
C 2.4141823509 1.600287941 0.6713642795
C 3.1597834812 2.9770234572 0.9287426161
C 4.1368265176 3.0397899207 -0.3006612022
C 3.8823761549 1.6202433955 -0.9347321947
O 2.419247335 1.4484597592 -0.7971896517
H 3.7661088096 0.6233639051 2.175816157
H 5.4132239777 0.9379965386 0.524313895
H 1.3758167741 1.6086152966 1.0397618805
H 2.4373807573 3.8082650676 0.9207729731
H 3.6909203551 2.9818322357 1.8939763827
H 3.847070225 3.8354735339 -1.0057412452
H 5.1882099416 3.1881152271 -0.0079208798
H 4.1882184119 1.5022590722 -1.9917194893
O -2.2728217979 -0.2184606036 2.6896803864
C -3.421950845 -3.1263167029 -1.8549981742
C -4.7452266203 0.82212366 -1.2722458964
C -5.7205850784 2.03182755 -0.9846267207
C -4.8192674936 2.9392131232 -0.0668972666
C -3.5076756365 2.0642520824 0.0280105963
O -3.4046152398 1.4500635572 -1.3138738732
H -5.682823098 -0.2603957496 0.4523597456
H -4.3955980409 1.1448406605 1.8722022871
H -3.9469230794 -3.9374113192 -1.3101343332
H -4.9392164053 0.2590377776 -2.2047567384
H -5.9892287228 2.5439990542 -1.9220506654
H -6.6450736038 1.7052395882 -0.4823262954
H -4.6002893989 3.9062430034 -0.5471651657
H -5.2674560129 3.1280818538 0.9216079052
H -2.5829692609 2.6225613223 0.2709226778
H -2.3566246346 -3.1252150317 -1.5466843488
H -3.4922159716 -3.3040380798 -2.9438473202
H 3.6076590266 -2.5244325206 -3.1554494998
H 4.3198742507 -3.2091437575 -1.6392075223
H 5.3708092606 -2.3232152827 -2.8026000796
H 0.6040780262 0.3696430244 1.7524946615
H -0.0768723743 -0.890016051 2.8206486497
H -0.0814777584 -1.3009665486 -0.2449046817
H -1.1390145024 -2.0841190497 0.9985489734
$end

$rem
JOBTYPE                   OPT
METHOD                    B3LYP
DFT_D                     d3_op
BASIS                     STO-3G
GEOM_OPT_MAX_CYCLES       100
GEOM_OPT_TOL_GRADIENT     300
GEOM_OPT_TOL_DISPLACEMENT 1200
GEOM_OPT_TOL_ENERGY       100
SYMMETRY                  False
THRESH                    12
SCF_CONVERGENCE           8
MAX_SUB_FILE_NUM          128
MEM_STATIC                400
MEM_TOTAL                 4000
$end
--------------------------------------------------------------

   16   -1510.2537433441      6.88E-09 Convergence criterion met
 Total energy in the final basis set = -1510.25374334
   14   -1510.2584115976      4.66E-09 Convergence criterion met
 Total energy in the final basis set = -1510.25841160
   14   -1510.2632688989      9.87E-09 Convergence criterion met
 Total energy in the final basis set = -1510.26326890
   15   -1510.2664928087      7.00E-09 Convergence criterion met
 Total energy in the final basis set = -1510.26649281
   13   -1510.2680361376      5.77E-09 Convergence criterion met
 Total energy in the final basis set = -1510.26803614
   13   -1510.2698745848      6.49E-09 Convergence criterion met
 Total energy in the final basis set = -1510.26987458
   13   -1510.2711302522      4.75E-09 Convergence criterion met
 Total energy in the final basis set = -1510.27113025
   13   -1510.2728418041      7.32E-09 Convergence criterion met
   11   -1510.2992307134      5.65E-09 Convergence criterion met
 Total energy in the final basis set = -1510.29923071
   10   -1510.2992397642      4.91E-09 Convergence criterion met
 Total energy in the final basis set = -1510.29923976
    9   -1510.2992411913      8.68E-09 Convergence criterion met
 Total energy in the final basis set = -1510.29924119
   10   -1510.2992437707      9.38E-09 Convergence criterion met
 Total energy in the final basis set = -1510.29924377
   10   -1510.2992473151      9.00E-09 Convergence criterion met
 Total energy in the final basis set = -1510.29924732
    9   -1510.2992502063      7.60E-09 Convergence criterion met
 Total energy in the final basis set = -1510.29925021

             Standard Nuclear Orientation (Angstroms)
    I     Atom           X                Y                Z
 ----------------------------------------------------------------
    1      O      -0.9131982068    -1.4696708924     0.3845795816
    2      C      -1.5247913875    -1.0832924405    -0.6427533851
    3      C      -2.7424227369    -0.1016302575    -0.6506694080
    4      C      -3.2690709878     0.1960262009     0.8090659207
    5      C      -2.3996419795    -0.4514717822     1.9534941794
    6      O      -1.2990034255     0.4260948942     2.3133619238
    7      C      -0.5991494792    -0.1299821196     3.4944726568
    8      C       0.9487067104    -0.2389473558     3.2643198368
    9      O       1.2803760140    -1.3796949958     2.3815182223
   10      C       1.8530461612    -1.0865843978     1.1060255673
   11      C       2.1107039356     0.4033300241     0.6601195615
   12      C       2.8901657351     0.4624694132    -0.7184528540
   13      C       3.4668615684    -0.9197163988    -1.2079436830
   14      O       4.5730217301    -1.4045027778    -0.8867653060
   15      O      -1.2760518634    -1.5305047328    -1.9615776791
   16      O       2.6452517413    -1.4534874267    -2.2708125790
   17      O       2.1371713687    -2.0725276684     0.3823906224
   18      C       3.2173370895    -2.7356712106    -2.7385882964
   19      C       0.7490025062     1.1172009433     0.2691164891
   20      C       1.0178402496     2.6534262093     0.0418981821
   21      C       1.7217814034     2.6491493667    -1.3653619325
   22      C       1.7836089323     1.0997655617    -1.6630607892
   23      O       0.5087896915     0.6014069217    -1.0994524884
   24      H       2.6672578417     0.9493915910     1.4410928325
   25      H       3.7583003852     1.1390364245    -0.6214393928
   26      H      -0.1133342688     0.8868040575     0.9396280092
   27      H       0.0515416780     3.1831522388     0.0179658657
   28      H       1.6495193687     3.0882394598     0.8329249835
   29      H       1.1091539366     3.1606761181    -2.1250107209
   30      H       2.7212251433     3.1121936567    -1.3479160553
   31      H       1.8735982481     0.8177258549    -2.7295345578
   32      O      -2.7054711416    -1.4690702979     2.6128360969
   33      C      -0.1068843650    -2.4458895679    -1.9881372460
   34      C      -2.3863611414     1.3647875429    -1.1585437373
   35      C      -3.7380480844     2.0763719988    -1.5524638322
   36      C      -4.3692578683     2.3239759612    -0.1303279634
   37      C      -3.2248685183     1.7807094275     0.8184559071
   38      O      -1.9852552982     2.0839470383     0.0712799395
   39      H      -3.5333055403    -0.5420431962    -1.2835264284
   40      H      -4.2961677579    -0.1875237502     0.9413121798
   41      H      -0.1145974763    -3.1206207101    -1.1097359941
   42      H      -1.5632744746     1.3950392673    -1.8995195748
   43      H      -3.5338486074     3.0266368844    -2.0713951321
   44      H      -4.3713707399     1.4483260337    -2.1991089234
   45      H      -4.5455793245     3.3956667752     0.0535342033
   46      H      -5.3171158346     1.7809181441     0.0145252703
   47      H      -3.1911288751     2.2346119914     1.8273959909
   48      H       0.8548848581    -1.8758540682    -1.9996659556
   49      H      -0.2066488311    -3.0348748719    -2.9182234537
   50      H       2.6089773279    -3.0450375138    -3.6080147831
   51      H       3.1578924896    -3.5116803707    -1.9482046433
   52      H       4.2767186993    -2.6191192909    -3.0429348474
   53      H       1.3457079806     0.7292166608     2.9078143139
   54      H       1.4169233735    -0.4611415142     4.2485793125
   55      H      -1.0402658641    -1.1280431736     3.7129111434
   56      H      -0.7763815199     0.5471690024     4.3586705587
 ----------------------------------------------------------------

    9   -1510.2992506883      5.32E-09 Convergence criterion met
 Total energy in the final basis set = -1510.29925069
 Final energy is   -1510.29925068828
 **  OPTIMIZATION CONVERGED  **

                    Orbital Energies (a.u.)
 --------------------------------------------------------------

 Alpha MOs
 -- Occupied --
-18.937 -18.931 -18.928 -18.925 -18.889 -18.881 -18.876 -18.870
-18.868 -18.856 -10.102 -10.098 -10.098 -10.091 -10.080 -10.066
-10.062 -10.057 -10.055 -10.054 -10.039 -10.037 -10.035 -10.034
-10.033 -10.030 -10.021 -10.020 -10.014 -10.008  -1.012  -1.006
 -1.001  -0.996  -0.973  -0.964  -0.938  -0.930  -0.929  -0.924
 -0.763  -0.757  -0.725  -0.715  -0.713  -0.702  -0.699  -0.651
 -0.647  -0.607  -0.595  -0.582  -0.545  -0.540  -0.536  -0.530
 -0.514  -0.507  -0.488  -0.478  -0.461  -0.457  -0.448  -0.441
 -0.433  -0.428  -0.420  -0.417  -0.409  -0.403  -0.400  -0.394
 -0.389  -0.385  -0.368  -0.362  -0.361  -0.352  -0.348  -0.344
 -0.338  -0.333  -0.329  -0.326  -0.324  -0.322  -0.316  -0.313
 -0.309  -0.304  -0.300  -0.296  -0.292  -0.279  -0.275  -0.273
 -0.269  -0.251  -0.243  -0.241  -0.236  -0.235  -0.225  -0.183
 -0.174  -0.163  -0.157  -0.153  -0.149  -0.147  -0.145  -0.141
 -0.136

          Ground-State Mulliken Net Atomic Charges

     Atom                 Charge (a.u.)
  ----------------------------------------
      1 O                    -0.214522
      2 C                     0.224471
      3 C                    -0.079624
      4 C                    -0.081244
      5 C                     0.220711
      6 O                    -0.178203
      7 C                    -0.055617
      8 C                    -0.047093
      9 O                    -0.161867
     10 C                     0.223558
     11 C                    -0.086014
     12 C                    -0.081325
     13 C                     0.218532
     14 O                    -0.222058
     15 O                    -0.166291
     16 O                    -0.173810
     17 O                    -0.198503
     18 C                    -0.127598
     19 C                     0.007031
     20 C                    -0.148365
     21 C                    -0.144569
     22 C                     0.023892
     23 O                    -0.199111
     24 H                     0.077999
     25 H                     0.082074
     26 H                     0.113472
     27 H                     0.088955
     28 H                     0.066175
     29 H                     0.074467
     30 H                     0.070980
     31 H                     0.086832
     32 O                    -0.216479
     33 C                    -0.145783
     34 C                     0.024952
     35 C                    -0.143487
     36 C                    -0.144622
     37 C                     0.025882
     38 O                    -0.191968
     39 H                     0.086337
     40 H                     0.085314
     41 H                     0.090740
     42 H                     0.097883
     43 H                     0.077107
     44 H                     0.074642
     45 H                     0.076974
     46 H                     0.073668
     47 H                     0.083718
     48 H                     0.115815
     49 H                     0.077509
     50 H                     0.086466
     51 H                     0.093921
     52 H                     0.089230
     53 H                     0.089133
     54 H                     0.089216
     55 H                     0.110542
     56 H                     0.079957
  ----------------------------------------
  Sum of atomic charges =    -0.000000

                    Cartesian Multipole Moments
 -----------------------------------------------------------------
    Charge (ESU x 10^10)
                 0.0000
    Dipole Moment (Debye)
         X      -1.3559      Y       3.4498      Z      -0.2963
       Tot       3.7185
    Quadrupole Moments (Debye-Ang)
        XX    -158.9007     XY       1.3933     YY    -161.9572
        XZ       2.1296     YZ       8.6468     ZZ    -149.6755

 Total job time:  245.18s(wall), 11673.53s(cpu)
        *  Thank you very much for using Q-Chem.  Have a nice day.  *
