 Q-Chem 5.0, Q-Chem, Inc., Pleasanton, CA (2017)
 Q-Chem 5.0.1 for Intel X86 EM64T Linux

User input:
--------------------------------------------------------------
$molecule
0  1
O -3.94934 -3.66094 2.70899
C -3.26408 -4.56952 2.26188
C -3.36658 -6.02376 2.66595
C -4.77372 -6.64113 2.71769
C -5.90468 -5.78727 2.1886
O -5.75655 -5.60256 0.84348
C -6.5027 -4.48831 0.34253
C -7.99853 -4.75843 0.46765
O -8.72868 -3.88336 -0.40643
C -9.2103 -4.45727 -1.53683
C -9.49858 -5.93048 -1.37191
C -9.60178 -6.7208 -2.68455
C -9.06079 -6.02643 -3.9182
O -9.73802 -5.5097 -4.79507
O -2.43055 -4.28336 1.22599
O -7.71059 -5.86848 -3.97179
O -9.77416 -3.77143 -2.37505
C -7.04134 -5.20974 -4.98145
C -8.4297 -7.08868 -0.8459
C -9.22182 -8.25828 -0.24539
C -9.74733 -8.9048 -1.49738
C -8.98688 -8.08294 -2.53716
O -7.8062 -7.70793 -1.94
H -10.39795 -6.01753 -0.72162
H -10.68837 -6.80724 -2.91459
H -7.63872 -6.94234 -0.10464
H -8.48067 -8.96176 0.20408
H -9.97607 -8.00505 0.52985
H -9.44227 -9.97474 -1.50933
H -10.84553 -8.81737 -1.6485
H -8.89994 -8.6174 -3.50913
O -6.79404 -5.34225 2.90064
C -2.26821 -3.02819 0.67774
C -2.66736 -7.02953 1.72299
C -2.34251 -8.31984 2.47892
C -3.72241 -8.9322 2.60812
C -4.55958 -7.89718 1.85354
O -3.68772 -7.44095 0.84445
H -2.89524 -6.06558 3.67345
H -5.04745 -6.89856 3.76611
H -1.89178 -2.32039 1.44689
H -1.74077 -6.63557 1.25346
H -1.7344 -8.96508 1.80519
H -1.79654 -8.16929 3.43504
H -3.73311 -9.89654 2.05262
H -4.07681 -9.09262 3.64927
H -5.51985 -8.3428 1.51139
H -3.23442 -2.66166 0.26934
H -1.52997 -3.08492 -0.14821
H -5.95245 -5.23354 -4.77126
H -7.37269 -4.15051 -5.03223
H -7.22959 -5.71045 -5.95514
H -8.55459 -5.55898 0.99946
H -8.1614 -4.22422 1.42434
H -6.26828 -4.42462 -0.74117
H -6.18217 -3.52349 0.80114
$end

$opt
CONSTRAINT
tors           1           2           3           4     +47.368
tors           3           4           5           6     +66.316
tors           4           5           6           7    -161.053
tors           5           6           7           8     -66.316
tors           6           7           8           9    -161.053
tors           7           8           9          10    +104.211
tors           8           9          10          11     +28.421
tors           9          10          11          12    -161.053
tors          11          12          13          14    -104.211
ENDCONSTRAINT
$end

$rem
JOBTYPE                   OPT
METHOD                    B3LYP
DFT_D                     d3_op
BASIS                     STO-3G
GEOM_OPT_MAX_CYCLES       100
GEOM_OPT_TOL_GRADIENT     300
GEOM_OPT_TOL_DISPLACEMENT 1200
GEOM_OPT_TOL_ENERGY       100
SYMMETRY                  False
THRESH                    12
SCF_CONVERGENCE           8
MAX_SUB_FILE_NUM          128
MEM_STATIC                400
MEM_TOTAL                 4000
$end
--------------------------------------------------------------

   15   -1510.0373865345      6.12E-09 Convergence criterion met
 Total energy in the final basis set = -1510.03738653
   14   -1510.1198773289      4.40E-09 Convergence criterion met
 Total energy in the final basis set = -1510.11987733
   14   -1510.1689276802      4.67E-09 Convergence criterion met
 Total energy in the final basis set = -1510.16892768
   14   -1510.2017868938      6.56E-09 Convergence criterion met
 Total energy in the final basis set = -1510.20178689
   13   -1510.2204191508      8.93E-09 Convergence criterion met
 Total energy in the final basis set = -1510.22041915
   13   -1510.2323437198      7.18E-09 Convergence criterion met
 Total energy in the final basis set = -1510.23234372
   13   -1510.2402768697      6.39E-09 Convergence criterion met
 Total energy in the final basis set = -1510.24027687
   13   -1510.2454347931      3.47E-09 Convergence criterion met
   11   -1510.2537865872      8.17E-09 Convergence criterion met
 Total energy in the final basis set = -1510.25378659
   10   -1510.2538219786      9.93E-09 Convergence criterion met
 Total energy in the final basis set = -1510.25382198
   10   -1510.2538477007      7.46E-09 Convergence criterion met
 Total energy in the final basis set = -1510.25384770
    9   -1510.2538603658      8.58E-09 Convergence criterion met
 Total energy in the final basis set = -1510.25386037
    9   -1510.2538643135      8.34E-09 Convergence criterion met
 Total energy in the final basis set = -1510.25386431
    9   -1510.2538680973      5.21E-09 Convergence criterion met
 Total energy in the final basis set = -1510.25386810

             Standard Nuclear Orientation (Angstroms)
    I     Atom           X                Y                Z
 ----------------------------------------------------------------
    1      O      -3.5323721533    -2.2472823695     0.6470437049
    2      C      -4.0094081107    -1.4873342167    -0.2262419564
    3      C      -4.6776540493    -0.0851507582     0.0252474040
    4      C      -3.8097242095     0.8327569911     0.9899920063
    5      C      -2.5150048177     0.1219116250     1.5114688192
    6      O      -1.6390866781    -0.0986510766     0.3944264849
    7      C      -0.6300551630    -1.1403151719     0.7060614665
    8      C       0.3908965499    -0.7069369204     1.8307377596
    9      O       1.5864576220    -1.5655336826     1.7566647526
   10      C       2.8192124875    -1.0978212845     1.2017025740
   11      C       3.3588394930     0.4104752755     1.1691363845
   12      C       4.4968822732     0.5406706676     0.0516332663
   13      C       4.9385584416    -0.7895930028    -0.6650134706
   14      O       5.9923530154    -1.4301683217    -0.4599852032
   15      O      -4.0554832296    -1.8084257058    -1.6165947087
   16      O       3.9908015948    -1.0891680279    -1.7026220225
   17      O       3.5863740589    -2.0270681288     0.8439479500
   18      C       4.3555693287    -2.3640619663    -2.3571065184
   19      C       2.4141823509     1.6002879410     0.6713642795
   20      C       3.1597834812     2.9770234572     0.9287426161
   21      C       4.1368265176     3.0397899207    -0.3006612022
   22      C       3.8823761549     1.6202433955    -0.9347321947
   23      O       2.4192473350     1.4484597592    -0.7971896517
   24      H       3.7661088096     0.6233639051     2.1758161570
   25      H       5.4132239777     0.9379965386     0.5243138950
   26      H       1.3758167741     1.6086152966     1.0397618805
   27      H       2.4373807573     3.8082650676     0.9207729731
   28      H       3.6909203551     2.9818322357     1.8939763827
   29      H       3.8470702250     3.8354735339    -1.0057412452
   30      H       5.1882099416     3.1881152271    -0.0079208798
   31      H       4.1882184119     1.5022590722    -1.9917194893
   32      O      -2.2728217979    -0.2184606036     2.6896803864
   33      C      -3.4219508450    -3.1263167029    -1.8549981742
   34      C      -4.7452266203     0.8221236600    -1.2722458964
   35      C      -5.7205850784     2.0318275500    -0.9846267207
   36      C      -4.8192674936     2.9392131232    -0.0668972666
   37      C      -3.5076756365     2.0642520824     0.0280105963
   38      O      -3.4046152398     1.4500635572    -1.3138738732
   39      H      -5.6828230980    -0.2603957496     0.4523597456
   40      H      -4.3955980409     1.1448406605     1.8722022871
   41      H      -3.9469230794    -3.9374113192    -1.3101343332
   42      H      -4.9392164053     0.2590377776    -2.2047567384
   43      H      -5.9892287228     2.5439990542    -1.9220506654
   44      H      -6.6450736038     1.7052395882    -0.4823262954
   45      H      -4.6002893989     3.9062430034    -0.5471651657
   46      H      -5.2674560129     3.1280818538     0.9216079052
   47      H      -2.5829692609     2.6225613223     0.2709226778
   48      H      -2.3566246346    -3.1252150317    -1.5466843488
   49      H      -3.4922159716    -3.3040380798    -2.9438473202
   50      H       3.6076590266    -2.5244325206    -3.1554494998
   51      H       4.3198742507    -3.2091437575    -1.6392075223
   52      H       5.3708092606    -2.3232152827    -2.8026000796
   53      H       0.6040780262     0.3696430244     1.7524946615
   54      H      -0.0768723743    -0.8900160510     2.8206486497
   55      H      -0.0814777584    -1.3009665486    -0.2449046817
   56      H      -1.1390145024    -2.0841190497     0.9985489734
 ----------------------------------------------------------------

    9   -1510.2538690556      4.83E-09 Convergence criterion met
 Total energy in the final basis set = -1510.25386906
 Final energy is   -1510.25386905562
 **  OPTIMIZATION CONVERGED  **

                    Orbital Energies (a.u.)
 --------------------------------------------------------------

 Alpha MOs
 -- Occupied --
-18.943 -18.936 -18.933 -18.913 -18.891 -18.890 -18.881 -18.880
-18.877 -18.851 -10.107 -10.105 -10.103 -10.086 -10.074 -10.070
-10.069 -10.066 -10.063 -10.060 -10.059 -10.049 -10.045 -10.042
-10.039 -10.030 -10.024 -10.023 -10.021 -10.021  -1.020  -1.012
 -1.009  -0.991  -0.974  -0.972  -0.942  -0.940  -0.936  -0.917
 -0.766  -0.762  -0.727  -0.720  -0.715  -0.707  -0.700  -0.666
 -0.648  -0.615  -0.597  -0.592  -0.550  -0.548  -0.540  -0.539
 -0.521  -0.514  -0.487  -0.481  -0.471  -0.463  -0.447  -0.441
 -0.438  -0.435  -0.433  -0.417  -0.410  -0.408  -0.401  -0.399
 -0.395  -0.382  -0.380  -0.371  -0.363  -0.354  -0.351  -0.346
 -0.339  -0.334  -0.333  -0.331  -0.327  -0.326  -0.318  -0.317
 -0.313  -0.311  -0.308  -0.300  -0.298  -0.291  -0.284  -0.279
 -0.269  -0.261  -0.254  -0.242  -0.236  -0.236  -0.231  -0.190
 -0.183  -0.166  -0.160  -0.159  -0.154  -0.150  -0.145  -0.144
 -0.134

          Ground-State Mulliken Net Atomic Charges

     Atom                 Charge (a.u.)
  ----------------------------------------
      1 O                    -0.220100
      2 C                     0.213315
      3 C                    -0.077234
      4 C                    -0.080146
      5 C                     0.211000
      6 O                    -0.171788
      7 C                    -0.051280
      8 C                    -0.051648
      9 O                    -0.171021
     10 C                     0.212451
     11 C                    -0.079061
     12 C                    -0.081338
     13 C                     0.215523
     14 O                    -0.220174
     15 O                    -0.165895
     16 O                    -0.176604
     17 O                    -0.193879
     18 C                    -0.128412
     19 C                     0.022496
     20 C                    -0.144987
     21 C                    -0.143107
     22 C                     0.025618
     23 O                    -0.187796
     24 H                     0.086193
     25 H                     0.081865
     26 H                     0.077625
     27 H                     0.077563
     28 H                     0.073418
     29 H                     0.078083
     30 H                     0.075161
     31 H                     0.088373
     32 O                    -0.210076
     33 C                    -0.127059
     34 C                     0.023763
     35 C                    -0.144569
     36 C                    -0.143674
     37 C                     0.026322
     38 O                    -0.185404
     39 H                     0.085505
     40 H                     0.084356
     41 H                     0.090238
     42 H                     0.093325
     43 H                     0.078370
     44 H                     0.072993
     45 H                     0.078155
     46 H                     0.073617
     47 H                     0.082707
     48 H                     0.091345
     49 H                     0.092823
     50 H                     0.085523
     51 H                     0.091936
     52 H                     0.085170
     53 H                     0.085411
     54 H                     0.104281
     55 H                     0.093739
     56 H                     0.096986
  ----------------------------------------
  Sum of atomic charges =     0.000000

                    Cartesian Multipole Moments
 -----------------------------------------------------------------
    Charge (ESU x 10^10)
                 0.0000
    Dipole Moment (Debye)
         X      -3.0875      Y       2.8912      Z      -0.4274
       Tot       4.2514
    Quadrupole Moments (Debye-Ang)
        XX    -156.8800     XY      10.9102     YY    -155.1781
        XZ       2.1876     YZ      12.4660     ZZ    -161.1765

 Total job time:  69.89s(wall), 3325.90s(cpu)
        *  Thank you very much for using Q-Chem.  Have a nice day.  *
