 Q-Chem 5.0, Q-Chem, Inc., Pleasanton, CA (2017)
 Q-Chem 5.0.1 for Intel X86 EM64T Linux

User input:
--------------------------------------------------------------
$molecule
0  1
O 1.7647993424 2.2671531536 2.46837648
C 2.0694364852 2.0027316323 1.2835713139
C 3.2789502099 1.0968275965 0.8432755935
C 3.1945562645 -0.4410422617 1.2254509387
C 1.7104832435 -1.0080231817 1.2015784409
O 1.6936332397 -2.3389426927 0.6857555391
C 0.8720613141 -2.7056241343 -0.4873289049
C -0.4357808239 -3.5168647788 -0.0860742848
O -1.726737554 -2.9284285972 0.3306969913
C -1.843616437 -1.5142723481 0.6027910014
C -1.6350307546 -0.6290943733 -0.70336404
C -2.9874076874 -0.0329332084 -1.3101134912
C -4.261880705 -0.3609433296 -0.4501965046
O -4.5711330094 -1.4811064675 0.0115418616
O 1.4629509849 2.6149064639 0.1433319984
O -5.0621560645 0.8135900929 -0.2927090681
O -2.2767447425 -1.1148528566 1.7010247072
C -6.2651238662 0.4981378586 0.5119780694
C -0.8174239636 0.697629683 -0.4799109475
C -0.2776414951 1.1860875838 -1.8783639905
C -1.5918569392 1.7624992151 -2.525365596
C -2.6408030467 1.5120365936 -1.3701848695
O -1.8450881246 1.7065816901 -0.1340868139
H -1.1661130084 -1.2618296747 -1.4715951099
H -3.1593942721 -0.4457502364 -2.3221078387
H -0.076562721 0.6174790009 0.3369449362
H 0.4884875134 1.9611811858 -1.7184134757
H 0.1648736709 0.3649785897 -2.4638910514
H -1.5023135963 2.840647598 -2.7335974387
H -1.8705050834 1.2452873094 -3.4572917471
H -3.5286930908 2.1723662396 -1.3719038519
O 0.6943409957 -0.3977557436 1.6021462156
C 0.3588398096 3.5240137978 0.5575110962
C 3.6220099065 1.0088859994 -0.7091053454
C 5.1891610319 0.8935941821 -0.8141202589
C 5.4065802366 -0.5291893108 -0.1745960234
C 3.9210670486 -1.0511292356 -0.0434506115
O 3.177534672 -0.3446064995 -1.1220472985
H 4.1500796524 1.5185274897 1.3786822195
H 3.6836775886 -0.6617155441 2.1920552423
H 0.4867313441 4.4731757198 0.0039964796
H 3.1418544797 1.7877694383 -1.3311692306
H 5.5055462402 0.9109401419 -1.8697215183
H 5.7133735917 1.6964240091 -0.2716215764
H 5.9933240844 -1.1891516009 -0.832665734
H 5.9064431503 -0.4770491179 0.8062039423
H 3.7900532713 -2.1451696153 -0.1354722644
H 0.4195502278 3.6990068924 1.6491985281
H -0.6181941471 3.0456351999 0.2967128949
H -6.814407346 1.450956372 0.6244115894
H -5.9924180291 0.1042116867 1.5121243239
H -6.9117734183 -0.2463638592 0.0038861569
H -0.6744539488 -4.1637336731 -0.9611426207
H -0.1177036012 -4.195604427 0.7394990964
H 1.503349765 -3.4184175303 -1.0608119937
H 0.6662301015 -1.8303317725 -1.1342424482
$end

$rem
JOBTYPE                   OPT
METHOD                    B3LYP
DFT_D                     d3_op
BASIS                     STO-3G
GEOM_OPT_MAX_CYCLES       100
GEOM_OPT_TOL_GRADIENT     300
GEOM_OPT_TOL_DISPLACEMENT 1200
GEOM_OPT_TOL_ENERGY       100
SYMMETRY                  False
THRESH                    12
SCF_CONVERGENCE           8
MAX_SUB_FILE_NUM          128
MEM_STATIC                400
MEM_TOTAL                 4000
$end
--------------------------------------------------------------

   16   -1510.2346788271      4.87E-09 Convergence criterion met
 Total energy in the final basis set = -1510.23467883
   15   -1510.2281722991      8.10E-09 Convergence criterion met
 Total energy in the final basis set = -1510.22817230
   15   -1510.2371992461      6.70E-09 Convergence criterion met
 Total energy in the final basis set = -1510.23719925
   15   -1510.1970868409      3.97E-09 Convergence criterion met
 Total energy in the final basis set = -1510.19708684
   14   -1510.2440229229      4.12E-09 Convergence criterion met
 Total energy in the final basis set = -1510.24402292
   13   -1510.2484971137      5.68E-09 Convergence criterion met
 Total energy in the final basis set = -1510.24849711
   13   -1510.2533648487      4.93E-09 Convergence criterion met
 Total energy in the final basis set = -1510.25336485
   13   -1510.2575133089      8.70E-09 Convergence criterion met
   11   -1510.2849402703      3.89E-09 Convergence criterion met
 Total energy in the final basis set = -1510.28494027
   11   -1510.2849270716      4.96E-09 Convergence criterion met
 Total energy in the final basis set = -1510.28492707
   11   -1510.2849303454      5.36E-09 Convergence criterion met
 Total energy in the final basis set = -1510.28493035
   11   -1510.2849340289      5.23E-09 Convergence criterion met
 Total energy in the final basis set = -1510.28493403
   11   -1510.2849374041      3.73E-09 Convergence criterion met
 Total energy in the final basis set = -1510.28493740
   10   -1510.2849396382      4.92E-09 Convergence criterion met
 Total energy in the final basis set = -1510.28493964

             Standard Nuclear Orientation (Angstroms)
    I     Atom           X                Y                Z
 ----------------------------------------------------------------
    1      O      -0.3354643120    -1.0703747279     2.0586709355
    2      C      -1.3504268552    -1.2695828522     1.3519852630
    3      C      -2.7483554444    -0.5758850184     1.5809597717
    4      C      -2.9924546304     0.7420521117     0.7338807612
    5      C      -1.8587528551     1.0325834932    -0.2986521509
    6      O      -2.0763439303     2.3236720654    -0.8807802393
    7      C      -1.0524371202     2.5922346337    -1.9183199779
    8      C       0.2940637009     3.1512837989    -1.2961243457
    9      O       0.5850690516     2.5616538264     0.0234320194
   10      C       1.4187319805     1.3846978996     0.0773028269
   11      C       2.3066413915     0.9640828818    -1.1538054845
   12      C       3.5219495042     0.0279282206    -0.7329661457
   13      C       3.5152258519    -0.3966123967     0.7887506867
   14      O       4.1408226911     0.1695864793     1.7132998471
   15      O      -1.4549080708    -2.2391362897     0.3143945611
   16      O       2.7975656253    -1.6257699854     0.9078467050
   17      O       1.4492730061     0.8020646996     1.1846322949
   18      C       2.5372907983    -1.9433063068     2.3317149041
   19      C       1.5463705047     0.0207622053    -2.1913756938
   20      C       2.3412988890     0.0623402540    -3.5521326283
   21      C       3.6124375119    -0.7891120078    -3.1791638760
   22      C       3.2834324691    -1.2100581853    -1.6910223109
   23      O       1.8073119402    -1.3444899516    -1.6930770121
   24      H       2.6891588128     1.8682340859    -1.6582377546
   25      H       4.4822506078     0.5334583106    -0.9387554784
   26      H       0.4535339033     0.1870173941    -2.2305325090
   27      H       1.7564506533    -0.4174251811    -4.3532756778
   28      H       2.5907472388     1.0894809125    -3.8631746964
   29      H       3.7057068656    -1.6787285398    -3.8217137959
   30      H       4.5453703745    -0.2066699452    -3.2435886755
   31      H       3.7566673188    -2.1504258755    -1.3507053732
   32      O      -0.9321872891     0.2617515963    -0.6354305474
   33      C      -0.1357340284    -2.8633824599     0.0451042111
   34      C      -3.9811280605    -1.4620019618     1.1143500126
   35      C      -5.2809209264    -0.9158773081     1.8266196267
   36      C      -5.5272371067     0.4174747827     1.0266603552
   37      C      -4.3448929983     0.3666087606    -0.0195952009
   38      O      -4.1802182745    -1.0748949342    -0.3024393615
   39      H      -2.8102410293    -0.3414769334     2.6584257566
   40      H      -3.1231308528     1.6307758195     1.3767306730
   41      H      -0.3429983380    -3.6933034999    -0.6551907711
   42      H      -3.8164919015    -2.5533870525     1.1948947909
   43      H      -6.1162314315    -1.6222911482     1.6972609778
   44      H      -5.1254695923    -0.7445816116     2.9037902185
   45      H      -6.4998460958     0.4070947129     0.5095052833
   46      H      -5.4750766904     1.3143439310     1.6642218619
   47      H      -4.5175260335     0.9336769809    -0.9554011395
   48      H       0.3118163035    -3.2707160077     0.9728714150
   49      H       0.5848392505    -2.1515327997    -0.4293158675
   50      H       2.7299793804    -3.0228453407     2.4815539967
   51      H       1.4683673341    -1.7042603970     2.5305177500
   52      H       3.2007716161    -1.3404562121     2.9823742896
   53      H       1.1125069571     3.0246820188    -2.0329363454
   54      H       0.1691952293     4.2360302696    -1.0978828296
   55      H      -1.4887660183     3.3639395398    -2.5840128861
   56      H      -0.8547343113     1.6742839745    -2.5085507959
 ----------------------------------------------------------------

    9   -1510.2849403750      7.09E-09 Convergence criterion met
 Total energy in the final basis set = -1510.28494038
 Final energy is   -1510.28494037503
 **  OPTIMIZATION CONVERGED  **

                    Orbital Energies (a.u.)
 --------------------------------------------------------------

 Alpha MOs
 -- Occupied --
-18.948 -18.936 -18.913 -18.903 -18.896 -18.889 -18.886 -18.885
-18.854 -18.844 -10.112 -10.105 -10.087 -10.085 -10.085 -10.080
-10.061 -10.060 -10.059 -10.055 -10.040 -10.040 -10.030 -10.029
-10.026 -10.025 -10.022 -10.021 -10.020 -10.017  -1.027  -1.007
 -0.990  -0.984  -0.972  -0.968  -0.950  -0.938  -0.915  -0.909
 -0.762  -0.761  -0.729  -0.721  -0.715  -0.706  -0.701  -0.638
 -0.633  -0.620  -0.595  -0.585  -0.549  -0.543  -0.539  -0.535
 -0.516  -0.506  -0.484  -0.475  -0.464  -0.456  -0.447  -0.446
 -0.436  -0.432  -0.426  -0.418  -0.406  -0.400  -0.397  -0.393
 -0.386  -0.382  -0.375  -0.360  -0.357  -0.353  -0.348  -0.340
 -0.331  -0.330  -0.328  -0.326  -0.321  -0.319  -0.317  -0.312
 -0.308  -0.307  -0.302  -0.298  -0.295  -0.281  -0.276  -0.271
 -0.267  -0.263  -0.246  -0.240  -0.233  -0.227  -0.221  -0.195
 -0.172  -0.165  -0.156  -0.151  -0.145  -0.143  -0.143  -0.131
 -0.128

          Ground-State Mulliken Net Atomic Charges

     Atom                 Charge (a.u.)
  ----------------------------------------
      1 O                    -0.216018
      2 C                     0.216950
      3 C                    -0.080263
      4 C                    -0.077174
      5 C                     0.222550
      6 O                    -0.167053
      7 C                    -0.051882
      8 C                    -0.049469
      9 O                    -0.171657
     10 C                     0.217324
     11 C                    -0.084193
     12 C                    -0.079408
     13 C                     0.216480
     14 O                    -0.226039
     15 O                    -0.169843
     16 O                    -0.176292
     17 O                    -0.179387
     18 C                    -0.144731
     19 C                     0.020865
     20 C                    -0.144800
     21 C                    -0.144684
     22 C                     0.028372
     23 O                    -0.182713
     24 H                     0.076001
     25 H                     0.080783
     26 H                     0.094820
     27 H                     0.078322
     28 H                     0.069285
     29 H                     0.078539
     30 H                     0.073818
     31 H                     0.090354
     32 O                    -0.210395
     33 C                    -0.141398
     34 C                     0.026161
     35 C                    -0.144129
     36 C                    -0.143804
     37 C                     0.025324
     38 O                    -0.187920
     39 H                     0.083801
     40 H                     0.089994
     41 H                     0.078707
     42 H                     0.088826
     43 H                     0.077395
     44 H                     0.074057
     45 H                     0.077577
     46 H                     0.074043
     47 H                     0.082450
     48 H                     0.079621
     49 H                     0.117388
     50 H                     0.072445
     51 H                     0.112254
     52 H                     0.092482
     53 H                     0.084156
     54 H                     0.092190
     55 H                     0.091742
     56 H                     0.088179
  ----------------------------------------
  Sum of atomic charges =    -0.000000

                    Cartesian Multipole Moments
 -----------------------------------------------------------------
    Charge (ESU x 10^10)
                -0.0000
    Dipole Moment (Debye)
         X      -1.4457      Y       2.1645      Z      -3.6719
       Tot       4.5009
    Quadrupole Moments (Debye-Ang)
        XX    -154.5634     XY      -4.2178     YY    -152.8526
        XZ     -16.8470     YZ     -11.0452     ZZ    -154.6233

 Total job time:  178.15s(wall), 8505.84s(cpu)
        *  Thank you very much for using Q-Chem.  Have a nice day.  *
