 Q-Chem 5.0, Q-Chem, Inc., Pleasanton, CA (2017)
 Q-Chem 5.0.1 for Intel X86 EM64T Linux

User input:
--------------------------------------------------------------
$molecule
0  1
O -3.94934 -3.66094 2.70899
C -3.26408 -4.56952 2.26188
C -3.36658 -6.02376 2.66595
C -4.66266 -6.76517 2.29943
C -5.63801 -6.02118 1.41441
O -6.21425 -6.88669 0.52882
C -6.02769 -6.50173 -0.83729
C -7.31624 -5.90769 -1.39665
O -7.38834 -4.50877 -1.07935
C -6.44932 -4.05877 -0.2105
C -5.04971 -4.11681 -0.77474
C -4.47242 -2.76344 -1.21452
C -5.20595 -1.53691 -0.71028
O -6.41655 -1.37039 -0.74612
O -1.93975 -4.25386 2.09836
O -4.44137 -0.58465 -0.11349
O -6.76226 -3.33756 0.72673
C -4.93474 0.58027 0.43532
C -3.6088 -4.68623 -0.50274
C -2.83608 -5.05935 -1.78981
C -2.42896 -3.69414 -2.29016
C -2.97259 -2.82423 -1.15738
O -2.82545 -3.60778 -0.05107
H -5.23484 -4.51024 -1.80025
H -4.72643 -2.58994 -2.29153
H -3.5955 -5.58052 0.08804
H -1.90899 -5.59024 -1.47128
H -3.3605 -5.69572 -2.53316
H -1.31801 -3.63748 -2.32548
H -2.84889 -3.41109 -3.27971
H -2.48533 -1.82609 -1.1398
O -6.35566 -5.28431 2.07083
C -1.34247 -3.01003 2.24606
C -2.31644 -6.9951 2.04402
C -2.1142 -8.19431 2.96915
C -3.41569 -8.93423 2.75256
C -4.05905 -8.05489 1.67245
O -2.96044 -7.58374 0.94275
H -3.19539 -6.01503 3.7664
H -5.23455 -7.0582 3.21115
H -0.59116 -3.06481 3.0603
H -1.32778 -6.53658 1.8326
H -1.28638 -8.80596 2.54312
H -1.87592 -7.94501 4.02551
H -3.18006 -9.94122 2.34097
H -4.06053 -9.03818 3.65174
H -4.79105 -8.66988 1.10799
H -2.07081 -2.20743 2.48782
H -0.81778 -2.73784 1.3071
H -4.09308 1.17085 0.85161
H -5.64692 0.34528 1.25505
H -5.44501 1.18462 -0.34488
H -7.30062 -6.00232 -2.50484
H -8.21836 -6.43004 -1.00975
H -6.12605 -7.49628 -1.32446
H -5.01112 -6.47791 -1.22133
$end

$opt
CONSTRAINT
tors           1           2           3           4     +66.316
tors           3           4           5           6    +142.105
tors           4           5           6           7    -123.158
tors           5           6           7           8    -104.211
tors           6           7           8           9     +85.263
tors           7           8           9          10      -9.474
tors           8           9          10          11     +66.316
tors           9          10          11          12    +104.211
tors          11          12          13          14     -47.368
ENDCONSTRAINT
$end

$rem
JOBTYPE                   OPT
METHOD                    B3LYP
DFT_D                     d3_op
BASIS                     STO-3G
GEOM_OPT_MAX_CYCLES       100
GEOM_OPT_TOL_GRADIENT     300
GEOM_OPT_TOL_DISPLACEMENT 1200
GEOM_OPT_TOL_ENERGY       100
SYMMETRY                  False
THRESH                    12
SCF_CONVERGENCE           8
MAX_SUB_FILE_NUM          128
MEM_STATIC                400
MEM_TOTAL                 4000
$end
--------------------------------------------------------------

   16   -1509.9324812426      4.69E-09 Convergence criterion met
 Total energy in the final basis set = -1509.93248124
   15   -1510.0163913224      4.84E-09 Convergence criterion met
 Total energy in the final basis set = -1510.01639132
   15   -1510.0836530021      2.65E-09 Convergence criterion met
 Total energy in the final basis set = -1510.08365300
   14   -1510.1251921240      5.09E-09 Convergence criterion met
 Total energy in the final basis set = -1510.12519212
   14   -1510.1530178320      6.96E-09 Convergence criterion met
 Total energy in the final basis set = -1510.15301783
   14   -1510.1725277240      5.48E-09 Convergence criterion met
 Total energy in the final basis set = -1510.17252772
   14   -1510.1880661323      3.71E-09 Convergence criterion met
 Total energy in the final basis set = -1510.18806613
   14   -1510.1999034279      2.88E-09 Convergence criterion met
   10   -1510.2346884181      7.95E-09 Convergence criterion met
 Total energy in the final basis set = -1510.23468842
    9   -1510.2346907271      9.43E-09 Convergence criterion met
 Total energy in the final basis set = -1510.23469073
    9   -1510.2346915023      4.62E-09 Convergence criterion met
 Total energy in the final basis set = -1510.23469150
    9   -1510.2346933167      4.25E-09 Convergence criterion met
 Total energy in the final basis set = -1510.23469332
    9   -1510.2346912593      3.54E-09 Convergence criterion met
 Total energy in the final basis set = -1510.23469126
    9   -1510.2346904839      3.25E-09 Convergence criterion met
 Total energy in the final basis set = -1510.23469048

             Standard Nuclear Orientation (Angstroms)
    I     Atom           X                Y                Z
 ----------------------------------------------------------------
    1      O       1.7647993424     2.2671531536     2.4683764800
    2      C       2.0694364852     2.0027316323     1.2835713139
    3      C       3.2789502099     1.0968275965     0.8432755935
    4      C       3.1945562645    -0.4410422617     1.2254509387
    5      C       1.7104832435    -1.0080231817     1.2015784409
    6      O       1.6936332397    -2.3389426927     0.6857555391
    7      C       0.8720613141    -2.7056241343    -0.4873289049
    8      C      -0.4357808239    -3.5168647788    -0.0860742848
    9      O      -1.7267375540    -2.9284285972     0.3306969913
   10      C      -1.8436164370    -1.5142723481     0.6027910014
   11      C      -1.6350307546    -0.6290943733    -0.7033640400
   12      C      -2.9874076874    -0.0329332084    -1.3101134912
   13      C      -4.2618807050    -0.3609433296    -0.4501965046
   14      O      -4.5711330094    -1.4811064675     0.0115418616
   15      O       1.4629509849     2.6149064639     0.1433319984
   16      O      -5.0621560645     0.8135900929    -0.2927090681
   17      O      -2.2767447425    -1.1148528566     1.7010247072
   18      C      -6.2651238662     0.4981378586     0.5119780694
   19      C      -0.8174239636     0.6976296830    -0.4799109475
   20      C      -0.2776414951     1.1860875838    -1.8783639905
   21      C      -1.5918569392     1.7624992151    -2.5253655960
   22      C      -2.6408030467     1.5120365936    -1.3701848695
   23      O      -1.8450881246     1.7065816901    -0.1340868139
   24      H      -1.1661130084    -1.2618296747    -1.4715951099
   25      H      -3.1593942721    -0.4457502364    -2.3221078387
   26      H      -0.0765627210     0.6174790009     0.3369449362
   27      H       0.4884875134     1.9611811858    -1.7184134757
   28      H       0.1648736709     0.3649785897    -2.4638910514
   29      H      -1.5023135963     2.8406475980    -2.7335974387
   30      H      -1.8705050834     1.2452873094    -3.4572917471
   31      H      -3.5286930908     2.1723662396    -1.3719038519
   32      O       0.6943409957    -0.3977557436     1.6021462156
   33      C       0.3588398096     3.5240137978     0.5575110962
   34      C       3.6220099065     1.0088859994    -0.7091053454
   35      C       5.1891610319     0.8935941821    -0.8141202589
   36      C       5.4065802366    -0.5291893108    -0.1745960234
   37      C       3.9210670486    -1.0511292356    -0.0434506115
   38      O       3.1775346720    -0.3446064995    -1.1220472985
   39      H       4.1500796524     1.5185274897     1.3786822195
   40      H       3.6836775886    -0.6617155441     2.1920552423
   41      H       0.4867313441     4.4731757198     0.0039964796
   42      H       3.1418544797     1.7877694383    -1.3311692306
   43      H       5.5055462402     0.9109401419    -1.8697215183
   44      H       5.7133735917     1.6964240091    -0.2716215764
   45      H       5.9933240844    -1.1891516009    -0.8326657340
   46      H       5.9064431503    -0.4770491179     0.8062039423
   47      H       3.7900532713    -2.1451696153    -0.1354722644
   48      H       0.4195502278     3.6990068924     1.6491985281
   49      H      -0.6181941471     3.0456351999     0.2967128949
   50      H      -6.8144073460     1.4509563720     0.6244115894
   51      H      -5.9924180291     0.1042116867     1.5121243239
   52      H      -6.9117734183    -0.2463638592     0.0038861569
   53      H      -0.6744539488    -4.1637336731    -0.9611426207
   54      H      -0.1177036012    -4.1956044270     0.7394990964
   55      H       1.5033497650    -3.4184175303    -1.0608119937
   56      H       0.6662301015    -1.8303317725    -1.1342424482
 ----------------------------------------------------------------

    9   -1510.2346894086      2.22E-09 Convergence criterion met
 Total energy in the final basis set = -1510.23468941
 Final energy is   -1510.23468940858
 **  OPTIMIZATION CONVERGED  **

                    Orbital Energies (a.u.)
 --------------------------------------------------------------

 Alpha MOs
 -- Occupied --
-18.933 -18.926 -18.920 -18.909 -18.901 -18.893 -18.890 -18.886
-18.870 -18.867 -10.121 -10.099 -10.095 -10.095 -10.091 -10.074
-10.063 -10.062 -10.060 -10.057 -10.045 -10.044 -10.039 -10.036
-10.032 -10.028 -10.026 -10.024 -10.018 -10.011  -1.020  -1.008
 -1.003  -0.992  -0.976  -0.971  -0.951  -0.932  -0.927  -0.926
 -0.767  -0.759  -0.731  -0.718  -0.716  -0.704  -0.703  -0.657
 -0.647  -0.620  -0.599  -0.585  -0.549  -0.544  -0.542  -0.534
 -0.517  -0.507  -0.491  -0.474  -0.466  -0.464  -0.451  -0.442
 -0.439  -0.430  -0.429  -0.415  -0.408  -0.406  -0.404  -0.394
 -0.391  -0.381  -0.376  -0.371  -0.369  -0.367  -0.353  -0.345
 -0.344  -0.339  -0.337  -0.334  -0.325  -0.324  -0.319  -0.315
 -0.312  -0.307  -0.304  -0.299  -0.291  -0.285  -0.281  -0.279
 -0.269  -0.251  -0.245  -0.242  -0.238  -0.234  -0.225  -0.174
 -0.173  -0.172  -0.166  -0.156  -0.155  -0.148  -0.145  -0.142
 -0.141

          Ground-State Mulliken Net Atomic Charges

     Atom                 Charge (a.u.)
  ----------------------------------------
      1 O                    -0.211636
      2 C                     0.207862
      3 C                    -0.082278
      4 C                    -0.074157
      5 C                     0.230714
      6 O                    -0.200708
      7 C                    -0.042400
      8 C                    -0.049870
      9 O                    -0.189160
     10 C                     0.227077
     11 C                    -0.084636
     12 C                    -0.077116
     13 C                     0.210525
     14 O                    -0.210169
     15 O                    -0.178330
     16 O                    -0.169036
     17 O                    -0.176390
     18 C                    -0.127472
     19 C                     0.010761
     20 C                    -0.150089
     21 C                    -0.145841
     22 C                     0.023709
     23 O                    -0.187775
     24 H                     0.072030
     25 H                     0.082530
     26 H                     0.103798
     27 H                     0.088266
     28 H                     0.068518
     29 H                     0.076461
     30 H                     0.071899
     31 H                     0.093375
     32 O                    -0.186978
     33 C                    -0.153668
     34 C                     0.020378
     35 C                    -0.141330
     36 C                    -0.146374
     37 C                     0.020596
     38 O                    -0.200484
     39 H                     0.084978
     40 H                     0.090103
     41 H                     0.075772
     42 H                     0.091908
     43 H                     0.077676
     44 H                     0.074796
     45 H                     0.078347
     46 H                     0.075010
     47 H                     0.090134
     48 H                     0.096191
     49 H                     0.111237
     50 H                     0.090247
     51 H                     0.095312
     52 H                     0.087822
     53 H                     0.081833
     54 H                     0.088495
     55 H                     0.093760
     56 H                     0.093780
  ----------------------------------------
  Sum of atomic charges =     0.000000

                    Cartesian Multipole Moments
 -----------------------------------------------------------------
    Charge (ESU x 10^10)
                 0.0000
    Dipole Moment (Debye)
         X       2.9078      Y      -0.0090      Z      -4.0676
       Tot       5.0001
    Quadrupole Moments (Debye-Ang)
        XX    -143.2975     XY      -8.4740     YY    -158.0660
        XZ       6.5563     YZ       0.6958     ZZ    -164.8920

 Total job time:  95.18s(wall), 4539.32s(cpu)
        *  Thank you very much for using Q-Chem.  Have a nice day.  *
