 Q-Chem 5.0, Q-Chem, Inc., Pleasanton, CA (2017)
 Q-Chem 5.0.1 for Intel X86 EM64T Linux

User input:
--------------------------------------------------------------
$molecule
0  1
O -2.8955270643 2.2174982202 2.139801983
C -3.2914146005 1.2833631121 1.4064727817
C -2.8189202998 0.9889773423 -0.0643834614
C -1.8350663289 -0.2349054112 -0.0793103749
C -2.2823438553 -1.5686787797 -0.6899171067
O -1.5739434397 -2.8387632442 -0.8276791892
C -0.3956866527 -2.931162114 -1.7138117089
C 0.8452070233 -1.9149875148 -1.7727711388
O 0.682402831 -0.6678828424 -0.9986575839
C 1.8681345648 0.1640474795 -1.1322043192
C 3.1960173949 -0.409185029 -0.4928592153
C 4.0847384414 0.7221207115 0.1850218936
C 3.505950416 2.1773113519 0.0441641527
O 2.6648724702 2.7377250281 0.7784497571
O -4.2794557089 0.3214410984 1.779618243
O 4.173522539 2.8080255384 -1.0569053675
O 1.7349819875 1.3310987252 -1.556764426
C 3.5968922203 4.151993553 -1.2867112734
C 2.8783977901 -1.3238999176 0.7751008303
C 4.1828352891 -2.1299636704 1.1513087827
C 5.0521420993 -1.0029484026 1.8221084977
C 4.0882366613 0.2409391504 1.6954926115
O 2.7394127357 -0.3426949748 1.8719114003
H 3.7676431847 -0.9568849933 -1.2644371491
H 5.1006141248 0.7203200679 -0.2482298356
H 1.9530033865 -1.9233673987 0.6917139935
H 3.9419173001 -2.9334537523 1.8653461082
H 4.6677254416 -2.5761835563 0.2680542657
H 5.2534527984 -1.2268521753 2.8817420491
H 6.0119749826 -0.8407292817 1.3059618924
H 4.2568254785 1.0515713136 2.4302392914
O -2.4010565861 -1.3246167926 0.7572982842
C -4.7292681734 0.5529629278 3.172749985
C -4.0332250089 0.7112393819 -1.0468207583
C -3.555815288 0.731518543 -2.5570253918
C -3.3569905133 -0.7849890983 -2.906471106
C -3.627489246 -1.4977322886 -1.5272751993
O -4.6028971004 -0.6366293697 -0.8262056665
H -2.2841476544 1.893199175 -0.4119619566
H -0.7506596126 -0.0398332555 0.0089761735
H -4.2371271896 1.4606208484 3.5771545778
H -4.8457169923 1.4418249967 -0.852229953
H -4.3285851072 1.1877778413 -3.1952238412
H -2.623188369 1.3058130387 -2.6750070547
H -4.0879569646 -1.1189974701 -3.6603785699
H -2.343314361 -0.9968406591 -3.282269899
H -4.0713516634 -2.5098154621 -1.6255347161
H -4.4628946687 -0.3294760252 3.7871524384
H -5.8293774208 0.6798646563 3.1723540016
H 4.1827052898 4.6014610599 -2.1094339192
H 3.6718446484 4.7902690999 -0.3827825793
H 2.5303788534 4.0832637815 -1.5841559072
H 1.7486012249 -2.4672338903 -1.4344330202
H 0.9992018907 -1.6609268115 -2.8452588236
H -0.7558284342 -3.0037349535 -2.7671833232
H 0.0234201565 -3.9246427193 -1.4512220304
$end

$rem
JOBTYPE                   OPT
METHOD                    B3LYP
DFT_D                     d3_op
BASIS                     STO-3G
GEOM_OPT_MAX_CYCLES       100
GEOM_OPT_TOL_GRADIENT     300
GEOM_OPT_TOL_DISPLACEMENT 1200
GEOM_OPT_TOL_ENERGY       100
SYMMETRY                  False
THRESH                    12
SCF_CONVERGENCE           8
MAX_SUB_FILE_NUM          128
MEM_STATIC                400
MEM_TOTAL                 4000
$end
--------------------------------------------------------------

   16   -1510.2009438092      3.38E-09 Convergence criterion met
 Total energy in the final basis set = -1510.20094381
   13   -1510.2067090398      7.79E-09 Convergence criterion met
 Total energy in the final basis set = -1510.20670904
   13   -1510.2117470683      8.89E-09 Convergence criterion met
 Total energy in the final basis set = -1510.21174707
   14   -1510.2161204601      5.75E-09 Convergence criterion met
 Total energy in the final basis set = -1510.21612046
   14   -1510.2193747173      6.55E-09 Convergence criterion met
 Total energy in the final basis set = -1510.21937472
   13   -1510.2221123775      6.26E-09 Convergence criterion met
 Total energy in the final basis set = -1510.22211238
   14   -1510.2246065804      3.22E-09 Convergence criterion met
 Total energy in the final basis set = -1510.22460658
   14   -1510.2268799753      4.63E-09 Convergence criterion met
   11   -1510.2569068121      4.46E-09 Convergence criterion met
 Total energy in the final basis set = -1510.25690681
   12   -1510.2569049436      9.57E-09 Convergence criterion met
 Total energy in the final basis set = -1510.25690494
   12   -1510.2569353431      2.59E-09 Convergence criterion met
 Total energy in the final basis set = -1510.25693534
   10   -1510.2569372026      7.57E-09 Convergence criterion met
 Total energy in the final basis set = -1510.25693720
    9   -1510.2569396772      8.87E-09 Convergence criterion met
 Total energy in the final basis set = -1510.25693968
    9   -1510.2569423013      7.82E-09 Convergence criterion met
 Total energy in the final basis set = -1510.25694230

             Standard Nuclear Orientation (Angstroms)
    I     Atom           X                Y                Z
 ----------------------------------------------------------------
    1      O      -1.7502318712    -2.7521420614    -0.5878887576
    2      C      -2.1026819837    -1.5553012791    -0.6795819305
    3      C      -2.7530710656    -0.6842015844     0.4649943482
    4      C      -1.7117538167     0.3915350518     0.9014479857
    5      C      -2.0602270630     1.8717783476     0.8233408659
    6      O      -1.5633460486     2.9483202509     1.6503253017
    7      C      -0.4645712809     2.5375337999     2.5468133354
    8      C       0.8521976734     2.0220707634     1.8325522060
    9      O       0.9330112252     0.5695853640     2.1208815211
   10      C       1.8637451823    -0.1978213472     1.3351414140
   11      C       2.5169344701     0.4323450084     0.0495430390
   12      C       3.6276595881    -0.5208069108    -0.5602534689
   13      C       4.0149007807    -1.7613966375     0.3297815666
   14      O       3.8637755936    -2.9675868620     0.0438923320
   15      O      -1.9409964665    -0.7387444644    -1.8348943541
   16      O       4.7475656734    -1.2766382645     1.4672590699
   17      O       2.0308829322    -1.3866688586     1.6916546042
   18      C       5.0854511279    -2.4092854686     2.3565227398
   19      C       1.4538625170     0.4382199801    -1.1368984406
   20      C       2.0501780709     1.2395989369    -2.3590232432
   21      C       3.0698067066     0.1991667334    -2.9555028904
   22      C       2.9395842970    -0.9756797947    -1.9137912004
   23      O       1.4939854166    -0.9735014922    -1.5810597568
   24      H       2.9173999418     1.4373295774     0.2655255636
   25      H       4.5501749601     0.0559526117    -0.7551829570
   26      H       0.4209849685     0.7348473147    -0.8375449492
   27      H       1.2516223186     1.4845890305    -3.0769836695
   28      H       2.5367239317     2.1755021975    -2.0408351269
   29      H       2.7601134882    -0.1385090670    -3.9576048372
   30      H       4.0971645791     0.5921941351    -3.0152828975
   31      H       3.2519498159    -1.9797549384    -2.2618575097
   32      O      -1.1779252597     1.2562750766    -0.1920266128
   33      C      -1.1077282266    -1.4377422825    -2.8488865181
   34      C      -4.1142109100     0.0089939229     0.0356049479
   35      C      -4.9380476680     0.4865248371     1.3009677220
   36      C      -4.5603943148     2.0029804289     1.4442188511
   37      C      -3.5084708056     2.2080269048     0.2913942109
   38      O      -3.8643106452     1.2326720538    -0.7593603455
   39      H      -2.9435864100    -1.3634615675     1.3163035197
   40      H      -0.9288661281     0.0557877890     1.6122163716
   41      H      -1.4241382246    -2.4918164815    -2.9745519115
   42      H      -4.6972545908    -0.6820481057    -0.6078711003
   43      H      -6.0172557435     0.3629257034     1.1191353586
   44      H      -4.6687799501    -0.0925433590     2.1982044680
   45      H      -5.4362804027     2.6511569440     1.2828045878
   46      H      -4.1238748408     2.2391521901     2.4282254571
   47      H      -3.5246883058     3.2229355461    -0.1569132986
   48      H      -0.0336389276    -1.3956453825    -2.5354196337
   49      H      -1.2550590855    -0.8853372143    -3.7946737423
   50      H       5.6913292410    -1.9860473293     3.1787961440
   51      H       5.6697919084    -3.1885124444     1.8256912338
   52      H       4.1699199717    -2.8778479574     2.7727267522
   53      H       0.7870235628     2.2422243225     0.7484610607
   54      H       1.7409871550     2.5398772629     2.2547886650
   55      H      -0.7929188589     1.7513669260     3.2643622768
   56      H      -0.2334697990     3.4566697731     3.1222993743
 ----------------------------------------------------------------

    8   -1510.2569427394      8.72E-09 Convergence criterion met
 Total energy in the final basis set = -1510.25694274
 Final energy is   -1510.25694273937
 **  OPTIMIZATION CONVERGED  **

                    Orbital Energies (a.u.)
 --------------------------------------------------------------

 Alpha MOs
 -- Occupied --
-18.947 -18.931 -18.917 -18.916 -18.902 -18.897 -18.893 -18.892
-18.859 -18.857 -10.112 -10.100 -10.089 -10.087 -10.085 -10.083
-10.068 -10.063 -10.059 -10.054 -10.052 -10.052 -10.044 -10.036
-10.034 -10.028 -10.025 -10.023 -10.021 -10.020  -1.024  -1.017
 -0.996  -0.993  -0.975  -0.966  -0.956  -0.948  -0.922  -0.918
 -0.764  -0.749  -0.737  -0.723  -0.719  -0.706  -0.679  -0.653
 -0.638  -0.620  -0.602  -0.588  -0.579  -0.548  -0.545  -0.539
 -0.516  -0.498  -0.494  -0.482  -0.467  -0.460  -0.458  -0.451
 -0.437  -0.433  -0.427  -0.417  -0.415  -0.406  -0.404  -0.401
 -0.394  -0.390  -0.386  -0.369  -0.363  -0.355  -0.350  -0.347
 -0.343  -0.337  -0.334  -0.332  -0.328  -0.326  -0.323  -0.316
 -0.312  -0.307  -0.305  -0.303  -0.297  -0.283  -0.278  -0.275
 -0.267  -0.258  -0.243  -0.241  -0.239  -0.229  -0.224  -0.191
 -0.170  -0.165  -0.162  -0.158  -0.155  -0.146  -0.144  -0.140
 -0.134

          Ground-State Mulliken Net Atomic Charges

     Atom                 Charge (a.u.)
  ----------------------------------------
      1 O                    -0.214376
      2 C                     0.206287
      3 C                    -0.083357
      4 C                    -0.033407
      5 C                     0.136033
      6 O                    -0.181892
      7 C                    -0.047123
      8 C                    -0.055337
      9 O                    -0.174213
     10 C                     0.216966
     11 C                    -0.084161
     12 C                    -0.079841
     13 C                     0.217317
     14 O                    -0.215972
     15 O                    -0.165596
     16 O                    -0.179827
     17 O                    -0.188288
     18 C                    -0.128852
     19 C                     0.006306
     20 C                    -0.145802
     21 C                    -0.144181
     22 C                     0.026157
     23 O                    -0.188370
     24 H                     0.080138
     25 H                     0.082825
     26 H                     0.111415
     27 H                     0.081193
     28 H                     0.070935
     29 H                     0.078348
     30 H                     0.073761
     31 H                     0.093443
     32 O                    -0.185009
     33 C                    -0.147724
     34 C                     0.028823
     35 C                    -0.144079
     36 C                    -0.142499
     37 C                     0.023855
     38 O                    -0.181333
     39 H                     0.087829
     40 H                     0.100302
     41 H                     0.084144
     42 H                     0.083255
     43 H                     0.079214
     44 H                     0.075773
     45 H                     0.079959
     46 H                     0.079753
     47 H                     0.089109
     48 H                     0.110087
     49 H                     0.078437
     50 H                     0.085106
     51 H                     0.086980
     52 H                     0.092466
     53 H                     0.099144
     54 H                     0.084589
     55 H                     0.089214
     56 H                     0.092075
  ----------------------------------------
  Sum of atomic charges =    -0.000000

                    Cartesian Multipole Moments
 -----------------------------------------------------------------
    Charge (ESU x 10^10)
                -0.0000
    Dipole Moment (Debye)
         X       0.7799      Y       4.2759      Z       1.5187
       Tot       4.6041
    Quadrupole Moments (Debye-Ang)
        XX    -147.7036     XY       6.3049     YY    -168.8055
        XZ      -6.7963     YZ       3.7782     ZZ    -152.7546

 Total job time:  185.83s(wall), 8863.18s(cpu)
        *  Thank you very much for using Q-Chem.  Have a nice day.  *
