 Q-Chem 5.0, Q-Chem, Inc., Pleasanton, CA (2017)
 Q-Chem 5.0.1 for Intel X86 EM64T Linux

User input:
--------------------------------------------------------------
$molecule
0  1
O -3.94934 -3.66094 2.70899
C -3.26408 -4.56952 2.26188
C -3.36658 -6.02376 2.66595
C -4.06137 -6.97914 1.68189
C -4.41791 -6.40938 0.32677
O -5.02499 -7.36738 -0.43423
C -4.15349 -8.45001 -0.77723
C -3.40234 -8.93218 0.45946
O -3.62113 -8.02364 1.55014
C -3.00095 -8.34722 2.71196
C -3.53609 -9.61656 3.33087
C -3.63301 -9.59862 4.86337
C -3.53001 -8.23477 5.51606
O -4.45843 -7.45729 5.68375
O -3.00713 -4.076 0.97857
O -2.29815 -7.89081 5.97492
O -1.8418 -8.52156 2.89825
C -2.00648 -6.69598 6.59836
C -5.06557 -9.89499 3.05185
C -5.33833 -11.39457 3.16504
C -5.18037 -11.59292 4.65653
C -5.04802 -10.1324 5.10423
O -5.77387 -9.40136 4.15865
H -2.99349 -10.50713 2.92165
H -2.85007 -10.23993 5.32582
H -5.46786 -9.53817 2.08438
H -6.41195 -11.53867 2.90311
H -4.72221 -12.06254 2.52572
H -6.10733 -12.06604 5.04936
H -4.28788 -12.17986 4.96482
H -5.36538 -10.01004 6.16368
O -4.90689 -5.29493 0.2077
C -2.80202 -2.76352 0.56744
C -1.63162 -5.87679 2.47224
C -0.38601 -6.76041 2.319
C -0.8285 -7.40837 0.96721
C -2.19026 -6.6088 0.70219
O -1.47917 -5.54244 1.14295
H -3.6464 -6.14115 3.73244
H -5.15122 -6.71443 2.04602
H -2.79069 -2.04638 1.41592
H -1.22544 -5.10559 3.18862
H 0.51817 -6.12572 2.12807
H -0.03539 -7.37019 3.18142
H -0.06908 -7.0993 0.20273
H -0.68767 -8.50175 0.91979
H -2.22545 -6.59042 -0.41509
H -3.59806 -2.47458 -0.1488
H -1.81984 -2.69795 0.05574
H -0.93136 -6.68115 6.87068
H -2.61146 -6.58972 7.52425
H -2.2137 -5.84625 5.9134
H -3.86923 -9.90299 0.71127
H -2.39259 -9.25929 0.19468
H -3.41463 -8.05999 -1.50925
H -4.69175 -9.26819 -1.30186
$end

$opt
CONSTRAINT
tors           1           2           3           4    +104.211
tors           3           4           5           6    -180.000
tors           4           5           6           7     -66.316
tors           5           6           7           8     +47.368
tors           6           7           8           9      -9.474
tors           7           8           9          10    -180.000
tors           8           9          10          11     -66.316
tors           9          10          11          12    -142.105
tors          11          12          13          14     +85.263
ENDCONSTRAINT
$end

$rem
JOBTYPE                   OPT
METHOD                    B3LYP
DFT_D                     d3_op
BASIS                     STO-3G
GEOM_OPT_MAX_CYCLES       100
GEOM_OPT_TOL_GRADIENT     300
GEOM_OPT_TOL_DISPLACEMENT 1200
GEOM_OPT_TOL_ENERGY       100
SYMMETRY                  False
THRESH                    12
SCF_CONVERGENCE           8
MAX_SUB_FILE_NUM          128
MEM_STATIC                400
MEM_TOTAL                 4000
$end
--------------------------------------------------------------

   25   -1509.2825985266      4.48E-09 Convergence criterion met
 Total energy in the final basis set = -1509.28259853
   17   -1509.4214833736      3.39E-09 Convergence criterion met
 Total energy in the final basis set = -1509.42148337
   16   -1509.5593965859      8.39E-09 Convergence criterion met
 Total energy in the final basis set = -1509.55939659
    3   -1509.5593965858      2.45E-09 Convergence criterion met
 Total energy in the final basis set = -1509.55939659
   16   -1509.6687874244      9.72E-09 Convergence criterion met
 Total energy in the final basis set = -1509.66878742
   17   -1509.7479825366      4.78E-09 Convergence criterion met
 Total energy in the final basis set = -1509.74798254
   17   -1509.8084073756      6.52E-09 Convergence criterion met
 Total energy in the final basis set = -1509.80840738
   17   -1509.8544774140      3.12E-09 Convergence criterion met
   10   -1510.2010367366      3.25E-09 Convergence criterion met
 Total energy in the final basis set = -1510.20103674
    9   -1510.2010402418      9.80E-09 Convergence criterion met
 Total energy in the final basis set = -1510.20104024
    9   -1510.2010424477      5.93E-09 Convergence criterion met
 Total energy in the final basis set = -1510.20104245
    9   -1510.2010442231      8.57E-09 Convergence criterion met
 Total energy in the final basis set = -1510.20104422
   10   -1510.2010471099      3.48E-09 Convergence criterion met
 Total energy in the final basis set = -1510.20104711
   10   -1510.2010432431      3.70E-09 Convergence criterion met
 Total energy in the final basis set = -1510.20104324

             Standard Nuclear Orientation (Angstroms)
    I     Atom           X                Y                Z
 ----------------------------------------------------------------
    1      O      -2.8955270643     2.2174982202     2.1398019830
    2      C      -3.2914146005     1.2833631121     1.4064727817
    3      C      -2.8189202998     0.9889773423    -0.0643834614
    4      C      -1.8350663289    -0.2349054112    -0.0793103749
    5      C      -2.2823438553    -1.5686787797    -0.6899171067
    6      O      -1.5739434397    -2.8387632442    -0.8276791892
    7      C      -0.3956866527    -2.9311621140    -1.7138117089
    8      C       0.8452070233    -1.9149875148    -1.7727711388
    9      O       0.6824028310    -0.6678828424    -0.9986575839
   10      C       1.8681345648     0.1640474795    -1.1322043192
   11      C       3.1960173949    -0.4091850290    -0.4928592153
   12      C       4.0847384414     0.7221207115     0.1850218936
   13      C       3.5059504160     2.1773113519     0.0441641527
   14      O       2.6648724702     2.7377250281     0.7784497571
   15      O      -4.2794557089     0.3214410984     1.7796182430
   16      O       4.1735225390     2.8080255384    -1.0569053675
   17      O       1.7349819875     1.3310987252    -1.5567644260
   18      C       3.5968922203     4.1519935530    -1.2867112734
   19      C       2.8783977901    -1.3238999176     0.7751008303
   20      C       4.1828352891    -2.1299636704     1.1513087827
   21      C       5.0521420993    -1.0029484026     1.8221084977
   22      C       4.0882366613     0.2409391504     1.6954926115
   23      O       2.7394127357    -0.3426949748     1.8719114003
   24      H       3.7676431847    -0.9568849933    -1.2644371491
   25      H       5.1006141248     0.7203200679    -0.2482298356
   26      H       1.9530033865    -1.9233673987     0.6917139935
   27      H       3.9419173001    -2.9334537523     1.8653461082
   28      H       4.6677254416    -2.5761835563     0.2680542657
   29      H       5.2534527984    -1.2268521753     2.8817420491
   30      H       6.0119749826    -0.8407292817     1.3059618924
   31      H       4.2568254785     1.0515713136     2.4302392914
   32      O      -2.4010565861    -1.3246167926     0.7572982842
   33      C      -4.7292681734     0.5529629278     3.1727499850
   34      C      -4.0332250089     0.7112393819    -1.0468207583
   35      C      -3.5558152880     0.7315185430    -2.5570253918
   36      C      -3.3569905133    -0.7849890983    -2.9064711060
   37      C      -3.6274892460    -1.4977322886    -1.5272751993
   38      O      -4.6028971004    -0.6366293697    -0.8262056665
   39      H      -2.2841476544     1.8931991750    -0.4119619566
   40      H      -0.7506596126    -0.0398332555     0.0089761735
   41      H      -4.2371271896     1.4606208484     3.5771545778
   42      H      -4.8457169923     1.4418249967    -0.8522299530
   43      H      -4.3285851072     1.1877778413    -3.1952238412
   44      H      -2.6231883690     1.3058130387    -2.6750070547
   45      H      -4.0879569646    -1.1189974701    -3.6603785699
   46      H      -2.3433143610    -0.9968406591    -3.2822698990
   47      H      -4.0713516634    -2.5098154621    -1.6255347161
   48      H      -4.4628946687    -0.3294760252     3.7871524384
   49      H      -5.8293774208     0.6798646563     3.1723540016
   50      H       4.1827052898     4.6014610599    -2.1094339192
   51      H       3.6718446484     4.7902690999    -0.3827825793
   52      H       2.5303788534     4.0832637815    -1.5841559072
   53      H       1.7486012249    -2.4672338903    -1.4344330202
   54      H       0.9992018907    -1.6609268115    -2.8452588236
   55      H      -0.7558284342    -3.0037349535    -2.7671833232
   56      H       0.0234201565    -3.9246427193    -1.4512220304
 ----------------------------------------------------------------

    9   -1510.2010439617      7.57E-09 Convergence criterion met
 Total energy in the final basis set = -1510.20104396
 Final energy is   -1510.20104396166
 **  OPTIMIZATION CONVERGED  **

                    Orbital Energies (a.u.)
 --------------------------------------------------------------

 Alpha MOs
 -- Occupied --
-18.935 -18.926 -18.922 -18.919 -18.911 -18.893 -18.884 -18.882
-18.867 -18.861 -10.123 -10.095 -10.088 -10.086 -10.080 -10.076
-10.066 -10.063 -10.057 -10.056 -10.055 -10.049 -10.044 -10.040
-10.040 -10.030 -10.027 -10.024 -10.019 -10.017  -1.026  -1.005
 -1.003  -0.995  -0.976  -0.959  -0.952  -0.935  -0.929  -0.921
 -0.768  -0.742  -0.729  -0.727  -0.715  -0.710  -0.669  -0.659
 -0.643  -0.613  -0.605  -0.575  -0.567  -0.551  -0.543  -0.539
 -0.522  -0.493  -0.484  -0.477  -0.467  -0.461  -0.459  -0.453
 -0.438  -0.427  -0.423  -0.417  -0.414  -0.409  -0.405  -0.404
 -0.392  -0.387  -0.376  -0.374  -0.367  -0.360  -0.353  -0.349
 -0.345  -0.337  -0.336  -0.333  -0.332  -0.328  -0.317  -0.315
 -0.311  -0.307  -0.306  -0.298  -0.285  -0.283  -0.282  -0.280
 -0.263  -0.255  -0.250  -0.239  -0.235  -0.220  -0.197  -0.187
 -0.174  -0.170  -0.163  -0.160  -0.150  -0.146  -0.144  -0.136
 -0.125

          Ground-State Mulliken Net Atomic Charges

     Atom                 Charge (a.u.)
  ----------------------------------------
      1 O                    -0.217092
      2 C                     0.212653
      3 C                    -0.081137
      4 C                    -0.026671
      5 C                     0.128285
      6 O                    -0.176166
      7 C                    -0.048775
      8 C                    -0.050514
      9 O                    -0.182595
     10 C                     0.222184
     11 C                    -0.083684
     12 C                    -0.080622
     13 C                     0.211184
     14 O                    -0.212683
     15 O                    -0.156179
     16 O                    -0.172154
     17 O                    -0.174299
     18 C                    -0.128548
     19 C                     0.021650
     20 C                    -0.144781
     21 C                    -0.143842
     22 C                     0.025874
     23 O                    -0.184669
     24 H                     0.083216
     25 H                     0.085191
     26 H                     0.088092
     27 H                     0.080232
     28 H                     0.071186
     29 H                     0.079933
     30 H                     0.074016
     31 H                     0.088666
     32 O                    -0.170602
     33 C                    -0.135288
     34 C                     0.029664
     35 C                    -0.144300
     36 C                    -0.142587
     37 C                     0.018095
     38 O                    -0.182094
     39 H                     0.086866
     40 H                     0.110915
     41 H                     0.099872
     42 H                     0.079601
     43 H                     0.077124
     44 H                     0.076665
     45 H                     0.076944
     46 H                     0.071928
     47 H                     0.085465
     48 H                     0.087071
     49 H                     0.083763
     50 H                     0.087338
     51 H                     0.088469
     52 H                     0.092659
     53 H                     0.077039
     54 H                     0.078551
     55 H                     0.071191
     56 H                     0.087700
  ----------------------------------------
  Sum of atomic charges =     0.000000

                    Cartesian Multipole Moments
 -----------------------------------------------------------------
    Charge (ESU x 10^10)
                -0.0000
    Dipole Moment (Debye)
         X       3.8970      Y      -1.7485      Z      -3.8069
       Tot       5.7215
    Quadrupole Moments (Debye-Ang)
        XX    -149.7248     XY      -9.0876     YY    -158.3899
        XZ       1.6736     YZ       0.8448     ZZ    -154.3071

 Total job time:  249.68s(wall), 11915.19s(cpu)
        *  Thank you very much for using Q-Chem.  Have a nice day.  *
