 Q-Chem 5.0, Q-Chem, Inc., Pleasanton, CA (2017)
 Q-Chem 5.0.1 for Intel X86 EM64T Linux

User input:
--------------------------------------------------------------
$molecule
0  1
O 3.9178007506 -3.254592048 0.0043906226
C 3.6629043712 -2.051277777 0.2412451683
C 4.5040830648 -0.8298519481 -0.2663198772
C 3.8104235073 0.3230409959 -1.135658018
C 2.2389151678 0.2682859173 -1.3043576586
O 1.5592349138 0.899726421 -0.2017108174
C 0.3235992085 0.1697477491 0.1781177481
C -1.0046478433 0.5941703438 -0.7058088478
O -1.3433131042 -0.4564207624 -1.7239212146
C -2.6924566496 -0.9312700362 -1.5690762289
C -3.4710260081 -0.9334023448 -0.1604778972
C -3.4938151542 0.3545021496 0.8049403438
C -2.9409614708 1.7376250385 0.2384334441
O -3.6614052695 2.7071858341 -0.1288482453
O 2.7107099173 -1.656412647 1.2375190757
O -1.7771156852 2.0966759875 1.1091520824
O -3.2247727911 -1.4455009531 -2.5813724236
C -1.271490828 3.4445996347 0.7931731035
C -5.0211305396 -1.1698276492 -0.3797671556
C -5.6008305032 -1.8717104137 0.9095472507
C -5.5771227997 -0.6827494455 1.9357352502
C -5.0602401088 0.4995038751 1.0236341971
O -5.6112439495 0.1914422509 -0.3207198341
H -3.0278185831 -1.7835050063 0.3948007508
H -2.9720253423 0.1534458412 1.7576523495
H -5.2425512794 -1.6983462684 -1.3278259656
H -6.6387095454 -2.187191078 0.7165959944
H -5.0155899658 -2.751218812 1.2209208571
H -6.5965475036 -0.4600002391 2.2882630291
H -4.9296628327 -0.8553427725 2.8100207533
H -5.3610641126 1.5014536003 1.3846876236
O 1.6423226788 -0.453884296 -2.1382609628
C 2.127863458 -2.8720936986 1.859862961
C 5.0710197301 0.0182950449 0.9588421498
C 6.3782370511 0.762192443 0.4834404867
C 5.7704558882 1.8624569802 -0.4529006699
C 4.2220983178 1.5960127009 -0.2751167887
O 4.0952176738 1.120819318 1.1259368063
H 5.3318023793 -1.2794365001 -0.8430580401
H 4.2407954769 0.368349012 -2.1518271551
H 2.9068427051 -3.4842517508 2.3581780485
H 5.2088293705 -0.5743221163 1.8836441428
H 6.8587800423 1.232297361 1.3567715193
H 7.1070242556 0.0983042877 -0.0076416276
H 6.0292803904 2.8668482932 -0.0825293059
H 6.0860145863 1.7772393834 -1.5046220971
H 3.5958497453 2.4848465013 -0.481925183
H 1.6061596409 -3.5099297349 1.1164865554
H 1.4035557454 -2.5150024573 2.6142124614
H -0.2045785211 3.3723255552 0.4971871094
H -1.3500907279 4.0866514662 1.6936632935
H -1.8625844581 3.9069108121 -0.0226998561
H -1.448295962 0.0413165217 0.1240135728
H -0.6461644102 1.5259710209 -1.1785596182
H 0.1622208322 0.5211666155 1.2169914307
H 0.4812433405 -0.9197187398 0.1408450831
$end

$rem
JOBTYPE                   OPT
METHOD                    B3LYP
DFT_D                     d3_op
BASIS                     STO-3G
GEOM_OPT_MAX_CYCLES       100
GEOM_OPT_TOL_GRADIENT     300
GEOM_OPT_TOL_DISPLACEMENT 1200
GEOM_OPT_TOL_ENERGY       100
SYMMETRY                  False
THRESH                    12
SCF_CONVERGENCE           8
MAX_SUB_FILE_NUM          128
MEM_STATIC                400
MEM_TOTAL                 4000
$end
--------------------------------------------------------------

   17   -1510.1230315565      2.18E-09 Convergence criterion met
 Total energy in the final basis set = -1510.12303156
   15   -1510.1590674341      7.45E-09 Convergence criterion met
 Total energy in the final basis set = -1510.15906743
   14   -1510.1893364590      5.90E-09 Convergence criterion met
 Total energy in the final basis set = -1510.18933646
   14   -1510.2123264580      9.12E-09 Convergence criterion met
 Total energy in the final basis set = -1510.21232646
   14   -1510.2303464946      5.19E-09 Convergence criterion met
 Total energy in the final basis set = -1510.23034649
   14   -1510.2432258188      8.94E-09 Convergence criterion met
 Total energy in the final basis set = -1510.24322582
   13   -1510.2525753269      7.32E-09 Convergence criterion met
 Total energy in the final basis set = -1510.25257533
   15   -1510.2597115247      2.15E-09 Convergence criterion met
   11   -1510.2832920438      7.73E-09 Convergence criterion met
 Total energy in the final basis set = -1510.28329204
   11   -1510.2833023081      1.86E-09 Convergence criterion met
 Total energy in the final basis set = -1510.28330231
   11   -1510.2833134589      5.38E-09 Convergence criterion met
 Total energy in the final basis set = -1510.28331346
   11   -1510.2833272458      5.69E-09 Convergence criterion met
 Total energy in the final basis set = -1510.28332725
   11   -1510.2833239332      3.97E-09 Convergence criterion met
 Total energy in the final basis set = -1510.28332393
   10   -1510.2833316711      4.10E-09 Convergence criterion met
 Total energy in the final basis set = -1510.28333167

             Standard Nuclear Orientation (Angstroms)
    I     Atom           X                Y                Z
 ----------------------------------------------------------------
    1      O       3.5811654517    -2.8094644398    -1.6503976920
    2      C       3.9117473461    -1.9301754441    -0.8259878543
    3      C       3.7117127144    -0.3789104303    -0.9840571766
    4      C       2.5988223235     0.2375194241    -0.0400250999
    5      C       1.8685636314    -0.8230564716     0.8473198266
    6      O       1.1339626033    -0.1301241473     1.8735891753
    7      C       0.1982862873    -1.0560995253     2.5578515021
    8      C      -1.2188127149    -0.9249378463     1.8997244240
    9      O      -1.0125898647    -1.3095457066     0.4824929039
   10      C      -2.1156190555    -1.0728675905    -0.4062268422
   11      C      -3.5105037053    -0.5982821621     0.1769595026
   12      C      -3.6419117761     0.9741686693     0.4050630205
   13      C      -2.3060463517     1.7461203010     0.1499336525
   14      O      -1.8381079424     2.1621933046    -0.9300464695
   15      O       4.6347498494    -2.1867732506     0.3854622462
   16      O      -1.6548718135     1.8934306273     1.4254422395
   17      O      -1.9188115328    -1.3043557798    -1.6190791148
   18      C      -0.2699818750     2.4064891027     1.2639603313
   19      C      -4.6284325200    -0.8211829419    -0.9279154883
   20      C      -6.0479053427    -0.6913192635    -0.2461152613
   21      C      -6.1579379398     0.8682530906    -0.0631667142
   22      C      -4.7696473634     1.3389553503    -0.6518829494
   23      O      -4.5269019242     0.3959555225    -1.7643278077
   24      H      -3.7408362333    -1.1488430960     1.1056639543
   25      H      -3.9656069712     1.1882594906     1.4390012118
   26      H      -4.4730811852    -1.7252007318    -1.5477632959
   27      H      -6.8327959253    -1.0765385022    -0.9161627103
   28      H      -6.1003508368    -1.2375746581     0.7094434711
   29      H      -6.9871065155     1.2871446720    -0.6551587903
   30      H      -6.2877834914     1.1674777555     0.9891798661
   31      H      -4.7337924685     2.3842813815    -1.0151538959
   32      O       1.8906386842    -2.0661009820     0.7269667187
   33      C       4.7731719942    -3.6467258112     0.5797010205
   34      C       4.9817268209     0.4506012148    -0.5122453741
   35      C       4.8549837614     1.9228793714    -1.0733952586
   36      C       3.7552930342     2.5210441661    -0.1194558849
   37      C       3.4512487883     1.2784112832     0.8063022692
   38      O       4.7661812492     0.6148435990     0.9444576313
   39      H       3.4692048996    -0.1890088977    -2.0443350366
   40      H       1.8225230209     0.7556802220    -0.6335868819
   41      H       5.3038112374    -4.1268811231    -0.2680390656
   42      H       5.9517242486    -0.0461533273    -0.7057059327
   43      H       5.8124127576     2.4584275454    -0.9722762359
   44      H       4.5517495282     1.9373242476    -2.1324589749
   45      H       4.1494373256     3.3588077155     0.4773501300
   46      H       2.8591606237     2.8626036212    -0.6619021870
   47      H       3.0247210669     1.5143837585     1.8000901671
   48      H       3.7817605669    -4.1312710916     0.6946172036
   49      H       5.3602168455    -3.7783510037     1.5072583091
   50      H       0.4277088484     1.5663697685     1.4957070185
   51      H      -0.1260943904     3.2409078263     1.9753175349
   52      H      -0.1284567369     2.7590741399     0.2236662690
   53      H      -1.9338866931    -1.6043605192     2.4137580134
   54      H      -1.5606363394     0.1378400289     1.9709232366
   55      H       0.1563628575    -0.7568936254     3.6248746742
   56      H       0.5796359651    -2.0945209703     2.4590115767
 ----------------------------------------------------------------

    9   -1510.2833327547      3.09E-09 Convergence criterion met
 Total energy in the final basis set = -1510.28333275
 Final energy is   -1510.28333275473
 **  OPTIMIZATION CONVERGED  **

                    Orbital Energies (a.u.)
 --------------------------------------------------------------

 Alpha MOs
 -- Occupied --
-18.947 -18.944 -18.930 -18.917 -18.893 -18.892 -18.891 -18.887
-18.874 -18.857 -10.111 -10.110 -10.099 -10.086 -10.080 -10.068
-10.064 -10.061 -10.061 -10.057 -10.051 -10.050 -10.047 -10.043
-10.040 -10.031 -10.024 -10.023 -10.020 -10.018  -1.024  -1.021
 -1.004  -0.995  -0.973  -0.969  -0.950  -0.947  -0.934  -0.920
 -0.768  -0.763  -0.727  -0.726  -0.715  -0.709  -0.700  -0.663
 -0.649  -0.614  -0.603  -0.583  -0.554  -0.545  -0.542  -0.536
 -0.515  -0.514  -0.493  -0.480  -0.468  -0.466  -0.460  -0.441
 -0.435  -0.432  -0.427  -0.424  -0.412  -0.410  -0.404  -0.401
 -0.398  -0.394  -0.382  -0.371  -0.363  -0.359  -0.355  -0.350
 -0.342  -0.338  -0.335  -0.332  -0.329  -0.324  -0.319  -0.316
 -0.311  -0.311  -0.305  -0.303  -0.296  -0.287  -0.284  -0.282
 -0.272  -0.261  -0.257  -0.244  -0.240  -0.237  -0.233  -0.192
 -0.183  -0.170  -0.168  -0.163  -0.161  -0.147  -0.146  -0.143
 -0.136

          Ground-State Mulliken Net Atomic Charges

     Atom                 Charge (a.u.)
  ----------------------------------------
      1 O                    -0.214997
      2 C                     0.213145
      3 C                    -0.080592
      4 C                    -0.078691
      5 C                     0.226082
      6 O                    -0.176271
      7 C                    -0.049903
      8 C                    -0.066661
      9 O                    -0.176632
     10 C                     0.203391
     11 C                    -0.083940
     12 C                    -0.081451
     13 C                     0.208524
     14 O                    -0.199911
     15 O                    -0.171239
     16 O                    -0.176779
     17 O                    -0.194255
     18 C                    -0.154043
     19 C                     0.027078
     20 C                    -0.144746
     21 C                    -0.143798
     22 C                     0.026461
     23 O                    -0.182348
     24 H                     0.078506
     25 H                     0.084736
     26 H                     0.091488
     27 H                     0.079724
     28 H                     0.071988
     29 H                     0.079464
     30 H                     0.072546
     31 H                     0.086701
     32 O                    -0.196299
     33 C                    -0.127926
     34 C                     0.026599
     35 C                    -0.144212
     36 C                    -0.143912
     37 C                     0.023782
     38 O                    -0.186622
     39 H                     0.086168
     40 H                     0.090880
     41 H                     0.086030
     42 H                     0.085399
     43 H                     0.077621
     44 H                     0.075133
     45 H                     0.077271
     46 H                     0.073863
     47 H                     0.085598
     48 H                     0.091502
     49 H                     0.086517
     50 H                     0.106521
     51 H                     0.082326
     52 H                     0.094812
     53 H                     0.075709
     54 H                     0.105749
     55 H                     0.089424
     56 H                     0.104490
  ----------------------------------------
  Sum of atomic charges =     0.000000

                    Cartesian Multipole Moments
 -----------------------------------------------------------------
    Charge (ESU x 10^10)
                -0.0000
    Dipole Moment (Debye)
         X      -2.0265      Y       1.8215      Z       4.3764
       Tot       5.1553
    Quadrupole Moments (Debye-Ang)
        XX    -146.9189     XY       5.2510     YY    -158.8860
        XZ     -12.5669     YZ      -6.3324     ZZ    -164.2054

 Total job time:  121.86s(wall), 5807.90s(cpu)
        *  Thank you very much for using Q-Chem.  Have a nice day.  *
