 Q-Chem 5.0, Q-Chem, Inc., Pleasanton, CA (2017)
 Q-Chem 5.0.1 for Intel X86 EM64T Linux

User input:
--------------------------------------------------------------
$molecule
0  1
O 1.3455712596 1.381581568 2.0942318614
C 1.3260226604 1.0320104571 0.8920162349
C 2.609317547 0.313448456 0.2692350362
C 2.485896146 -0.8749685309 -0.7769651323
C 1.318205731 -1.94730533 -0.9763715995
O 1.4480337559 -3.1058034777 -0.1090197331
C 1.7167477784 -2.7973881108 1.3035281685
C 0.5226805823 -2.0731357 2.0349400332
O -0.0512584006 -0.9407682379 1.2711537672
C -1.3835875769 -0.7266949496 1.8750064185
C -2.5914148845 -0.8135562666 0.8530766125
C -3.2296685378 0.5680489916 0.4306415651
C -2.6659544857 1.7815985294 1.2292673645
O -1.5312940924 1.8866408797 1.7433503044
O 0.1502927028 1.2222852117 0.0836256981
O -3.6040473611 2.8619719908 1.1376531701
O -1.5401260808 -0.6878579965 3.1127519648
C -2.9854737342 4.1050351132 1.6557358742
C -2.1649779012 -1.3779564751 -0.5671772158
C -3.4648635144 -1.7600828226 -1.3860228233
C -3.9864326743 -0.3403346921 -1.8249150013
C -2.9173824313 0.5929586839 -1.1304208758
O -1.6629096943 -0.1730794833 -1.2663101895
H -3.3496365416 -1.4533520332 1.3407117142
H -4.3239568061 0.5520518153 0.583878778
H -1.3781746901 -2.1561908042 -0.5444228621
H -3.1931511372 -2.3806291412 -2.2557031122
H -4.1998087567 -2.3078743715 -0.7742859806
H -3.95437608 -0.2217736597 -2.9200713704
H -5.0109913095 -0.1363890345 -1.474343827
H -2.8133734793 1.6045068429 -1.5668648309
O 0.5405508759 -2.0099133833 -1.9490238057
C 0.3738904784 2.1831647061 -1.0142330802
C 3.4954285381 1.3078785386 -0.6098824084
C 4.9052152457 0.6525228596 -0.9118083845
C 4.5612965655 -0.2962033545 -2.1247352251
C 2.9888872662 -0.1871149584 -2.1294876271
O 2.8275455733 1.2720012157 -1.9326516546
H 3.1877278991 -0.0268576354 1.1469397411
H 3.315216868 -1.5490649916 -0.4911096759
H -0.5337398977 2.1324457586 -1.6393954724
H 3.533063537 2.3480991212 -0.2317361293
H 5.6436645243 1.4204511579 -1.1900162791
H 5.2886379506 0.0965545033 -0.0419484752
H 4.9766935461 0.0978395398 -3.0666606841
H 4.9212934851 -1.3266385934 -1.9804502749
H 2.4708970475 -0.516281373 -3.0520057959
H 1.2730128221 1.9051183671 -1.6147382502
H 0.481664677 3.2156839866 -0.6184723766
H -3.7621464151 4.8892530926 1.5790613177
H -2.1010420324 4.3949738033 1.0493535506
H -2.666899428 4.0007041406 2.7132507559
H -0.2623861914 -2.8344195168 2.2297750152
H 0.8989049314 -1.7328299411 3.0261527796
H 2.652375069 -2.21163728 1.4291335266
H 1.8586151482 -3.7799194767 1.7962358857
$end

$rem
JOBTYPE                   OPT
METHOD                    B3LYP
DFT_D                     d3_op
BASIS                     STO-3G
GEOM_OPT_MAX_CYCLES       100
GEOM_OPT_TOL_GRADIENT     300
GEOM_OPT_TOL_DISPLACEMENT 1200
GEOM_OPT_TOL_ENERGY       100
SYMMETRY                  False
THRESH                    12
SCF_CONVERGENCE           8
MAX_SUB_FILE_NUM          128
MEM_STATIC                400
MEM_TOTAL                 4000
$end
--------------------------------------------------------------

   16   -1510.2221596710      2.45E-09 Convergence criterion met
 Total energy in the final basis set = -1510.22215967
   14   -1510.2193899091      5.69E-09 Convergence criterion met
 Total energy in the final basis set = -1510.21938991
   14   -1510.2296781836      9.40E-09 Convergence criterion met
 Total energy in the final basis set = -1510.22967818
   14   -1510.2235809870      8.86E-09 Convergence criterion met
 Total energy in the final basis set = -1510.22358099
   14   -1510.2370994973      4.67E-09 Convergence criterion met
 Total energy in the final basis set = -1510.23709950
   15   -1510.2399586441      7.87E-09 Convergence criterion met
 Total energy in the final basis set = -1510.23995864
   13   -1510.2459807730      4.09E-09 Convergence criterion met
 Total energy in the final basis set = -1510.24598077
   13   -1510.2514707828      6.29E-09 Convergence criterion met
   10   -1510.2788430456      6.36E-09 Convergence criterion met
 Total energy in the final basis set = -1510.27884305
    9   -1510.2788447816      8.20E-09 Convergence criterion met
 Total energy in the final basis set = -1510.27884478
   10   -1510.2788501919      8.56E-09 Convergence criterion met
 Total energy in the final basis set = -1510.27885019
   11   -1510.2788557902      6.68E-09 Convergence criterion met
 Total energy in the final basis set = -1510.27885579
   11   -1510.2788604725      5.17E-09 Convergence criterion met
 Total energy in the final basis set = -1510.27886047
    9   -1510.2788614601      5.79E-09 Convergence criterion met
 Total energy in the final basis set = -1510.27886146

             Standard Nuclear Orientation (Angstroms)
    I     Atom           X                Y                Z
 ----------------------------------------------------------------
    1      O       1.2066205924     2.1696791762     2.1813640714
    2      C       1.3860897041     1.8754138845     0.9698325009
    3      C       2.7866624236     1.2898482072     0.5072851118
    4      C       2.9277456856    -0.2662396480     0.1829558642
    5      C       1.6406505002    -1.1782968146     0.0207431807
    6      O       1.0882810894    -1.8353390478     1.1634241982
    7      C       1.1009774082    -1.0765667589     2.4324805820
    8      C      -0.2922675671    -0.3204623237     2.6042551933
    9      O      -1.1010082359    -0.4519620326     1.3721961125
   10      C      -1.7046303361    -1.7560111020     1.3306405595
   11      C      -2.5454837886    -1.9087708738     0.0230452369
   12      C      -3.6228134262    -0.7635010511    -0.2315229253
   13      C      -3.4601967534     0.4374967328     0.7746974024
   14      O      -3.7982366063     0.4427156355     1.9802002692
   15      O       0.3308050031     2.1865280920     0.0854762458
   16      O      -2.8598907779     1.5320682410     0.0900928242
   17      O      -1.5688098357    -2.6122271756     2.2310058791
   18      C      -2.4458635010     2.5958343419     1.0362115053
   19      C      -1.6744940622    -1.8150082146    -1.3111023349
   20      C      -2.4779015584    -2.5572177931    -2.4465522989
   21      C      -3.6645991010    -1.5487267193    -2.6842772746
   22      C      -3.2692564038    -0.3602949971    -1.7191730520
   23      O      -1.7895503854    -0.3977047261    -1.7198791403
   24      H      -3.0398862973    -2.8937437464     0.0878084969
   25      H      -4.6468414122    -1.1674997095    -0.1353556035
   26      H      -0.5917786420    -2.0622440410    -1.2020017577
   27      H      -1.8542047048    -2.6624318582    -3.3488765786
   28      H      -2.8219468880    -3.5566529856    -2.1359982907
   29      H      -3.7008181760    -1.2033610290    -3.7295680313
   30      H      -4.6440814546    -1.9786064027    -2.4205204543
   31      H      -3.6334160601     0.6393676232    -2.0226600221
   32      O       1.2156361900    -1.5442626274    -1.1023620100
   33      C       0.3131277494     1.5826021204    -1.2739736274
   34      C       3.4289985819     1.9361789611    -0.7961137470
   35      C       4.9948263509     1.7819106184    -0.7065347608
   36      C       5.1664567206     0.2432095381    -0.9939507095
   37      C       3.6701185675    -0.1990060400    -1.2207291235
   38      O       3.0619899713     0.9853447846    -1.8752170078
   39      H       3.4333275225     1.5100245015     1.3758946731
   40      H       3.5732756850    -0.7417570545     0.9438979884
   41      H      -0.4971709608     0.8085603704    -1.3115072573
   42      H       3.0628179409     2.9531314350    -1.0358004353
   43      H       5.4841619960     2.3933932356    -1.4812788608
   44      H       5.3862341035     2.0795076455     0.2792098988
   45      H       5.7602699414     0.0668381850    -1.9049283493
   46      H       5.6355945660    -0.2974647246    -0.1563931672
   47      H       3.5202420257    -1.0974011717    -1.8499796987
   48      H       1.3011482632     1.1652622886    -1.5776661347
   49      H       0.0447204176     2.4059897914    -1.9635535075
   50      H      -2.9546531094     3.5399343207     0.7603359889
   51      H      -1.3432430833     2.6979086667     0.9217680217
   52      H      -2.7215048710     2.3067923964     2.0695095649
   53      H      -0.8381363181    -0.7359009988     3.4756327760
   54      H      -0.1062290910     0.7668991484     2.7319863859
   55      H       1.9377026872    -0.3526796798     2.4893828984
   56      H       1.2245615876    -1.8337920159     3.2327940012
 ----------------------------------------------------------------

    9   -1510.2788615985      4.93E-09 Convergence criterion met
 Total energy in the final basis set = -1510.27886160
 Final energy is   -1510.27886159852
 **  OPTIMIZATION CONVERGED  **

                    Orbital Energies (a.u.)
 --------------------------------------------------------------

 Alpha MOs
 -- Occupied --
-18.947 -18.938 -18.928 -18.919 -18.914 -18.898 -18.888 -18.868
-18.868 -18.852 -10.120 -10.106 -10.093 -10.085 -10.079 -10.078
-10.077 -10.060 -10.056 -10.054 -10.052 -10.042 -10.036 -10.035
-10.029 -10.028 -10.028 -10.019 -10.014 -10.011  -1.026  -1.008
 -1.005  -0.994  -0.991  -0.966  -0.952  -0.934  -0.929  -0.917
 -0.778  -0.755  -0.735  -0.721  -0.718  -0.706  -0.694  -0.642
 -0.638  -0.620  -0.605  -0.581  -0.564  -0.554  -0.537  -0.531
 -0.525  -0.503  -0.490  -0.474  -0.472  -0.463  -0.452  -0.449
 -0.437  -0.428  -0.419  -0.418  -0.413  -0.408  -0.398  -0.394
 -0.389  -0.386  -0.372  -0.364  -0.361  -0.361  -0.355  -0.350
 -0.346  -0.339  -0.335  -0.332  -0.327  -0.326  -0.323  -0.316
 -0.314  -0.305  -0.301  -0.296  -0.293  -0.290  -0.285  -0.280
 -0.265  -0.258  -0.251  -0.243  -0.237  -0.231  -0.226  -0.190
 -0.171  -0.168  -0.166  -0.164  -0.154  -0.149  -0.147  -0.140
 -0.136

          Ground-State Mulliken Net Atomic Charges

     Atom                 Charge (a.u.)
  ----------------------------------------
      1 O                    -0.221157
      2 C                     0.206007
      3 C                    -0.087725
      4 C                    -0.086965
      5 C                     0.216986
      6 O                    -0.169417
      7 C                    -0.051214
      8 C                    -0.060390
      9 O                    -0.171945
     10 C                     0.214131
     11 C                    -0.081911
     12 C                    -0.078472
     13 C                     0.212385
     14 O                    -0.226664
     15 O                    -0.168884
     16 O                    -0.171569
     17 O                    -0.212579
     18 C                    -0.146191
     19 C                     0.013558
     20 C                    -0.143040
     21 C                    -0.145115
     22 C                     0.028709
     23 O                    -0.189659
     24 H                     0.084352
     25 H                     0.082657
     26 H                     0.108933
     27 H                     0.077490
     28 H                     0.072770
     29 H                     0.076285
     30 H                     0.072322
     31 H                     0.089908
     32 O                    -0.194615
     33 C                    -0.167821
     34 C                     0.023390
     35 C                    -0.142569
     36 C                    -0.143875
     37 C                     0.027362
     38 O                    -0.181309
     39 H                     0.087713
     40 H                     0.084127
     41 H                     0.121275
     42 H                     0.089884
     43 H                     0.082613
     44 H                     0.077745
     45 H                     0.082886
     46 H                     0.076490
     47 H                     0.096207
     48 H                     0.103354
     49 H                     0.074248
     50 H                     0.075406
     51 H                     0.109562
     52 H                     0.092532
     53 H                     0.093783
     54 H                     0.107525
     55 H                     0.085405
     56 H                     0.095085
  ----------------------------------------
  Sum of atomic charges =    -0.000000

                    Cartesian Multipole Moments
 -----------------------------------------------------------------
    Charge (ESU x 10^10)
                -0.0000
    Dipole Moment (Debye)
         X       4.0172      Y       0.1099      Z      -1.2163
       Tot       4.1988
    Quadrupole Moments (Debye-Ang)
        XX    -141.5381     XY       3.1151     YY    -162.9468
        XZ      10.6540     YZ       0.5134     ZZ    -166.1155

 Total job time:  222.37s(wall), 10615.37s(cpu)
        *  Thank you very much for using Q-Chem.  Have a nice day.  *
