 Q-Chem 5.0, Q-Chem, Inc., Pleasanton, CA (2017)
 Q-Chem 5.0.1 for Intel X86 EM64T Linux

User input:
--------------------------------------------------------------
$molecule
0  1
O -3.94934 -3.66094 2.70899
C -3.26408 -4.56952 2.26188
C -3.36658 -6.02376 2.66595
C -2.07149 -6.85208 2.64393
C -0.78856 -6.09133 2.3921
O -0.24858 -6.47476 1.1976
C -0.23259 -5.42535 0.22409
C 0.92755 -5.6255 -0.74552
O 0.74586 -4.7961 -1.90395
C 1.08166 -5.36618 -3.08775
C 1.46603 -6.82036 -2.95245
C 1.18836 -7.68145 -4.19329
C 0.91383 -6.92276 -5.47615
O 0.68393 -7.43017 -6.56438
O -2.68673 -4.33552 1.05882
O 0.52583 -5.62343 -5.49794
O 1.7248 -4.62666 -3.82182
C 0.18704 -4.8727 -6.6112
C 2.96496 -7.09707 -2.72965
C 3.14831 -8.46386 -2.07174
C 2.79451 -9.38224 -3.22443
C 2.56775 -8.35435 -4.33834
O 3.46416 -7.3157 -4.02539
H 0.75403 -7.39729 -2.328
H 0.368 -8.4346 -4.09845
H 3.47019 -6.30169 -2.13994
H 4.23277 -8.57908 -1.84704
H 2.56244 -8.62577 -1.14209
H 3.68209 -10.0123 -3.45552
H 1.90211 -10.02544 -3.06444
H 2.70535 -8.82928 -5.33508
O -0.413 -5.11653 3.0303
C -2.67572 -3.10813 0.42186
C -3.76385 -6.18926 4.14822
C -4.37165 -7.57365 4.37755
C -3.1351 -8.443 4.29205
C -2.0571 -7.37464 4.08986
O -2.53476 -6.27529 4.82675
H -4.15246 -6.46795 2.01479
H -2.1417 -7.69003 1.91217
H -2.1499 -2.35749 1.05002
H -4.46732 -5.40713 4.50777
H -4.75387 -7.6074 5.42281
H -5.19152 -7.84057 3.67631
H -2.98777 -8.9425 5.27554
H -3.14134 -9.20216 3.48017
H -1.06038 -7.76913 4.38836
H -3.71439 -2.76961 0.22022
H -2.14218 -3.20029 -0.54612
H -0.06683 -3.84214 -6.28998
H -0.69509 -5.31372 -7.12243
H 1.04687 -4.82543 -7.31362
H 1.79668 -5.19056 -0.2063
H 1.2576 -6.66753 -0.64997
H -0.21152 -4.39031 0.63517
H -1.14579 -5.57354 -0.39059
$end

$opt
CONSTRAINT
tors           1           2           3           4    -147.707
tors           3           4           5           6    -114.217
tors           4           5           6           7    +114.439
tors           5           6           7           8    +151.436
tors           6           7           8           9    +165.125
tors           7           8           9          10    -140.181
tors           8           9          10          11      +5.244
tors           9          10          11          12    +151.226
tors          11          12          13          14    +179.341
ENDCONSTRAINT
$end

$rem
JOBTYPE                   OPT
METHOD                    B3LYP
DFT_D                     d3_op
BASIS                     STO-3G
GEOM_OPT_MAX_CYCLES       100
GEOM_OPT_TOL_GRADIENT     300
GEOM_OPT_TOL_DISPLACEMENT 1200
GEOM_OPT_TOL_ENERGY       100
SYMMETRY                  False
THRESH                    12
SCF_CONVERGENCE           8
MAX_SUB_FILE_NUM          128
MEM_STATIC                400
MEM_TOTAL                 4000
$end
--------------------------------------------------------------

   16   -1510.0215941436      3.38E-09 Convergence criterion met
 Total energy in the final basis set = -1510.02159414
   14   -1510.1078893190      7.97E-09 Convergence criterion met
 Total energy in the final basis set = -1510.10788932
   14   -1510.1583250326      9.19E-09 Convergence criterion met
 Total energy in the final basis set = -1510.15832503
   14   -1510.1903266636      2.21E-09 Convergence criterion met
 Total energy in the final basis set = -1510.19032666
   14   -1510.2078566064      5.57E-09 Convergence criterion met
 Total energy in the final basis set = -1510.20785661
   14   -1510.2189564034      5.69E-09 Convergence criterion met
 Total energy in the final basis set = -1510.21895640
   13   -1510.2258330380      9.25E-09 Convergence criterion met
 Total energy in the final basis set = -1510.22583304
   13   -1510.2297483366      6.58E-09 Convergence criterion met
   10   -1510.2385584540      7.68E-09 Convergence criterion met
 Total energy in the final basis set = -1510.23855845
   11   -1510.2385707425      3.93E-09 Convergence criterion met
 Total energy in the final basis set = -1510.23857074
   10   -1510.2385747865      8.27E-09 Convergence criterion met
 Total energy in the final basis set = -1510.23857479
    9   -1510.2385773694      6.82E-09 Convergence criterion met
 Total energy in the final basis set = -1510.23857737
    9   -1510.2385785583      6.21E-09 Convergence criterion met
 Total energy in the final basis set = -1510.23857856
    9   -1510.2385817259      5.01E-09 Convergence criterion met
 Total energy in the final basis set = -1510.23858173

             Standard Nuclear Orientation (Angstroms)
    I     Atom           X                Y                Z
 ----------------------------------------------------------------
    1      O       4.8920239955    -3.0770239549     0.0824855003
    2      C       4.1306762739    -2.0926574983    -0.0353340199
    3      C       4.3594151539    -0.8610044813    -0.9829557486
    4      C       3.8260520976     0.5601636190    -0.5135227869
    5      C       3.0519771718     0.6135879391     0.8587945303
    6      O       1.6538861650     0.9780434680     0.6461873887
    7      C       0.7498199664    -0.1304136741     1.0075877439
    8      C      -0.6200391902     0.4937008406     1.4649048022
    9      O      -1.6029397780    -0.6101976764     1.4678494200
   10      C      -2.9373791148    -0.3533138084     0.9925555833
   11      C      -3.3302991890     1.0444799962     0.3579744852
   12      C      -4.4938890421     0.9260348072    -0.7033255726
   13      C      -4.6057736014    -0.3760858453    -1.5732421661
   14      O      -5.4857095777    -0.5943303349    -2.4354212804
   15      O       2.8476738724    -2.0010226605     0.5841856564
   16      O      -3.4249017994    -1.1728685085    -1.4376006282
   17      O      -3.7669115772    -1.2673399459     1.1911325408
   18      C      -3.4973364851    -2.3489340633    -2.3332722113
   19      C      -4.1156413879     1.8235802731     1.5052499556
   20      C      -4.5681856601     3.2516505688     0.9929774302
   21      C      -5.8556925960     2.8918574910     0.1594198570
   22      C      -5.7703867501     1.3173443107     0.1719279742
   23      O      -5.3725708874     1.0405265018     1.5715132948
   24      H      -2.4768792492     1.6050697927    -0.0519845037
   25      H      -4.3441730924     1.7296117809    -1.4499349775
   26      H      -3.6064791736     1.8190441978     2.4888181175
   27      H      -4.8012924580     3.9143343486     1.8410545604
   28      H      -3.7881057442     3.7282038684     0.3772967953
   29      H      -6.7706115462     3.2270727230     0.6740391594
   30      H      -5.8439983524     3.3126822097    -0.8586357276
   31      H      -6.7010547882     0.7776973739    -0.0898306516
   32      O       3.5431391555     0.4434659966     1.9929993017
   33      C       2.6095669326    -3.1809979847     1.4479904491
   34      C       5.9127506238    -0.5750878698    -1.1247749734
   35      C       6.1561702530     0.3023328242    -2.4136061140
   36      C       5.6495452183     1.7093990561    -1.9229108035
   37      C       5.1970121079     1.3713163686    -0.4482876777
   38      O       6.1808216513     0.3581912747    -0.0064303293
   39      H       3.9095813989    -1.1209474908    -1.9601092458
   40      H       3.1484062359     0.9805212166    -1.2773287697
   41      H       3.2543823494    -3.1524975498     2.3499000392
   42      H       6.5350565924    -1.4869566173    -1.0336688120
   43      H       7.2278231939     0.3246229960    -2.6673811481
   44      H       5.5949895427    -0.0742280132    -3.2836352162
   45      H       6.4649452299     2.4502680569    -1.9126452260
   46      H       4.8220691504     2.1036563634    -2.5340937853
   47      H       5.1861310975     2.2295497452     0.2512532117
   48      H       2.8025686136    -4.1267831502     0.9030469258
   49      H       1.5475221408    -3.1325847166     1.7511461892
   50      H      -2.5424116017    -2.8898854291    -2.2004815406
   51      H      -3.6135692831    -2.0474499499    -3.3945764329
   52      H      -4.3407350776    -3.0155378821    -2.0611081845
   53      H      -0.5319743283     0.9155062545     2.4901827900
   54      H      -0.8758055240     1.3189552409     0.7732357035
   55      H       1.1634206803    -0.7526863881     1.8277766809
   56      H       0.5716128083    -0.7891529568     0.1266692935
 ----------------------------------------------------------------

    9   -1510.2385819258      4.72E-09 Convergence criterion met
 Total energy in the final basis set = -1510.23858193
 Final energy is   -1510.23858192580
 **  OPTIMIZATION CONVERGED  **

                    Orbital Energies (a.u.)
 --------------------------------------------------------------

 Alpha MOs
 -- Occupied --
-18.945 -18.937 -18.926 -18.902 -18.898 -18.891 -18.891 -18.883
-18.872 -18.866 -10.108 -10.108 -10.101 -10.097 -10.076 -10.072
-10.070 -10.065 -10.065 -10.063 -10.062 -10.062 -10.046 -10.042
-10.040 -10.039 -10.025 -10.024 -10.023 -10.022  -1.021  -1.013
 -1.005  -0.999  -0.974  -0.973  -0.944  -0.939  -0.936  -0.927
 -0.766  -0.766  -0.727  -0.725  -0.713  -0.707  -0.701  -0.669
 -0.663  -0.610  -0.604  -0.588  -0.550  -0.548  -0.543  -0.542
 -0.518  -0.513  -0.492  -0.478  -0.466  -0.464  -0.456  -0.449
 -0.443  -0.435  -0.432  -0.419  -0.417  -0.414  -0.409  -0.400
 -0.393  -0.389  -0.380  -0.374  -0.368  -0.360  -0.355  -0.353
 -0.349  -0.340  -0.334  -0.334  -0.330  -0.327  -0.318  -0.314
 -0.310  -0.309  -0.305  -0.301  -0.297  -0.296  -0.291  -0.278
 -0.274  -0.263  -0.251  -0.243  -0.239  -0.238  -0.234  -0.186
 -0.180  -0.168  -0.163  -0.160  -0.156  -0.152  -0.150  -0.147
 -0.138

          Ground-State Mulliken Net Atomic Charges

     Atom                 Charge (a.u.)
  ----------------------------------------
      1 O                    -0.210049
      2 C                     0.212726
      3 C                    -0.078657
      4 C                    -0.082476
      5 C                     0.223777
      6 O                    -0.202827
      7 C                    -0.040230
      8 C                    -0.047417
      9 O                    -0.176215
     10 C                     0.215955
     11 C                    -0.081748
     12 C                    -0.078238
     13 C                     0.211541
     14 O                    -0.216134
     15 O                    -0.174447
     16 O                    -0.168227
     17 O                    -0.199150
     18 C                    -0.126558
     19 C                     0.023668
     20 C                    -0.145766
     21 C                    -0.141271
     22 C                     0.026959
     23 O                    -0.184328
     24 H                     0.077934
     25 H                     0.082717
     26 H                     0.081098
     27 H                     0.079184
     28 H                     0.072092
     29 H                     0.079203
     30 H                     0.074315
     31 H                     0.090031
     32 O                    -0.186000
     33 C                    -0.129280
     34 C                     0.024309
     35 C                    -0.144236
     36 C                    -0.143912
     37 C                     0.025402
     38 O                    -0.187140
     39 H                     0.085313
     40 H                     0.084194
     41 H                     0.093215
     42 H                     0.091961
     43 H                     0.079265
     44 H                     0.073115
     45 H                     0.078786
     46 H                     0.073406
     47 H                     0.084212
     48 H                     0.094164
     49 H                     0.093711
     50 H                     0.090766
     51 H                     0.088547
     52 H                     0.092704
     53 H                     0.084415
     54 H                     0.084003
     55 H                     0.088975
     56 H                     0.082644
  ----------------------------------------
  Sum of atomic charges =     0.000000

                    Cartesian Multipole Moments
 -----------------------------------------------------------------
    Charge (ESU x 10^10)
                 0.0000
    Dipole Moment (Debye)
         X       0.7385      Y       2.4230      Z      -3.0407
       Tot       3.9576
    Quadrupole Moments (Debye-Ang)
        XX    -187.3182     XY      -6.4568     YY    -152.7507
        XZ      -8.7213     YZ       2.0436     ZZ    -160.5145

 Total job time:  76.92s(wall), 3654.42s(cpu)
        *  Thank you very much for using Q-Chem.  Have a nice day.  *
