 Q-Chem 5.0, Q-Chem, Inc., Pleasanton, CA (2017)
 Q-Chem 5.0.1 for Intel X86 EM64T Linux

User input:
--------------------------------------------------------------
$molecule
0  1
O 4.8920239955 -3.0770239549 0.0824855003
C 4.1306762739 -2.0926574983 -0.0353340199
C 4.3594151539 -0.8610044813 -0.9829557486
C 3.8260520976 0.560163619 -0.5135227869
C 3.0519771718 0.6135879391 0.8587945303
O 1.653886165 0.978043468 0.6461873887
C 0.7498199664 -0.1304136741 1.0075877439
C -0.6200391902 0.4937008406 1.4649048022
O -1.602939778 -0.6101976764 1.46784942
C -2.9373791148 -0.3533138084 0.9925555833
C -3.330299189 1.0444799962 0.3579744852
C -4.4938890421 0.9260348072 -0.7033255726
C -4.6057736014 -0.3760858453 -1.5732421661
O -5.4857095777 -0.5943303349 -2.4354212804
O 2.8476738724 -2.0010226605 0.5841856564
O -3.4249017994 -1.1728685085 -1.4376006282
O -3.7669115772 -1.2673399459 1.1911325408
C -3.4973364851 -2.3489340633 -2.3332722113
C -4.1156413879 1.8235802731 1.5052499556
C -4.5681856601 3.2516505688 0.9929774302
C -5.855692596 2.891857491 0.159419857
C -5.7703867501 1.3173443107 0.1719279742
O -5.3725708874 1.0405265018 1.5715132948
H -2.4768792492 1.6050697927 -0.0519845037
H -4.3441730924 1.7296117809 -1.4499349775
H -3.6064791736 1.8190441978 2.4888181175
H -4.801292458 3.9143343486 1.8410545604
H -3.7881057442 3.7282038684 0.3772967953
H -6.7706115462 3.227072723 0.6740391594
H -5.8439983524 3.3126822097 -0.8586357276
H -6.7010547882 0.7776973739 -0.0898306516
O 3.5431391555 0.4434659966 1.9929993017
C 2.6095669326 -3.1809979847 1.4479904491
C 5.9127506238 -0.5750878698 -1.1247749734
C 6.156170253 0.3023328242 -2.413606114
C 5.6495452183 1.7093990561 -1.9229108035
C 5.1970121079 1.3713163686 -0.4482876777
O 6.1808216513 0.3581912747 -0.0064303293
H 3.9095813989 -1.1209474908 -1.9601092458
H 3.1484062359 0.9805212166 -1.2773287697
H 3.2543823494 -3.1524975498 2.3499000392
H 6.5350565924 -1.4869566173 -1.033668812
H 7.2278231939 0.324622996 -2.6673811481
H 5.5949895427 -0.0742280132 -3.2836352162
H 6.4649452299 2.4502680569 -1.912645226
H 4.8220691504 2.1036563634 -2.5340937853
H 5.1861310975 2.2295497452 0.2512532117
H 2.8025686136 -4.1267831502 0.9030469258
H 1.5475221408 -3.1325847166 1.7511461892
H -2.5424116017 -2.8898854291 -2.2004815406
H -3.6135692831 -2.0474499499 -3.3945764329
H -4.3407350776 -3.0155378821 -2.0611081845
H -0.5319743283 0.9155062545 2.49018279
H -0.875805524 1.3189552409 0.7732357035
H 1.1634206803 -0.7526863881 1.8277766809
H 0.5716128083 -0.7891529568 0.1266692935
$end

$rem
JOBTYPE                   OPT
METHOD                    B3LYP
DFT_D                     d3_op
BASIS                     STO-3G
GEOM_OPT_MAX_CYCLES       100
GEOM_OPT_TOL_GRADIENT     300
GEOM_OPT_TOL_DISPLACEMENT 1200
GEOM_OPT_TOL_ENERGY       100
SYMMETRY                  False
THRESH                    12
SCF_CONVERGENCE           8
MAX_SUB_FILE_NUM          128
MEM_STATIC                400
MEM_TOTAL                 4000
$end
--------------------------------------------------------------

   16   -1510.2386165911      8.45E-09 Convergence criterion met
 Total energy in the final basis set = -1510.23861659
   14   -1510.2432985566      3.84E-09 Convergence criterion met
 Total energy in the final basis set = -1510.24329856
   14   -1510.2485450717      2.08E-09 Convergence criterion met
 Total energy in the final basis set = -1510.24854507
   14   -1510.2534786791      2.70E-09 Convergence criterion met
 Total energy in the final basis set = -1510.25347868
   13   -1510.2576641764      8.20E-09 Convergence criterion met
 Total energy in the final basis set = -1510.25766418
   13   -1510.2611244134      5.16E-09 Convergence criterion met
 Total energy in the final basis set = -1510.26112441
   13   -1510.2637341686      4.59E-09 Convergence criterion met
 Total energy in the final basis set = -1510.26373417
   13   -1510.2659421711      3.35E-09 Convergence criterion met
   12   -1510.2840635537      7.32E-09 Convergence criterion met
 Total energy in the final basis set = -1510.28406355
   12   -1510.2841503449      6.66E-09 Convergence criterion met
 Total energy in the final basis set = -1510.28415034
   12   -1510.2841912008      3.07E-09 Convergence criterion met
 Total energy in the final basis set = -1510.28419120
   11   -1510.2841975239      7.01E-09 Convergence criterion met
 Total energy in the final basis set = -1510.28419752
    9   -1510.2841975791      9.48E-09 Convergence criterion met
 Total energy in the final basis set = -1510.28419758
   10   -1510.2841948001      8.17E-09 Convergence criterion met
 Total energy in the final basis set = -1510.28419480

             Standard Nuclear Orientation (Angstroms)
    I     Atom           X                Y                Z
 ----------------------------------------------------------------
    1      O       4.2556274028     0.9218977383     1.7675340818
    2      C       4.2059672715    -0.0644704675     1.0038684442
    3      C       3.8824462195    -0.0726564510    -0.5359981807
    4      C       2.5361745258    -0.8197356438    -0.9051261279
    5      C       1.7434369649    -1.3077105495     0.3467601593
    6      O       0.8394957585    -2.3536972770    -0.0457893334
    7      C      -0.1501967300    -2.5918750014     1.0386139761
    8      C      -1.1295311003    -1.3612056587     1.1625369482
    9      O      -2.5083877649    -1.9035082756     1.1730916629
   10      C      -3.5527552714    -0.9313177582     0.9847168121
   11      C      -3.1872278298     0.6077018995     0.8669016783
   12      C      -2.6905343231     1.0837511309    -0.5733565058
   13      C      -2.5513301756    -0.0888736323    -1.5975747365
   14      O      -3.4366818864    -0.6591745258    -2.2648605970
   15      O       4.5417750024    -1.4074313589     1.3833850336
   16      O      -1.1595968077    -0.4703496143    -1.6215881678
   17      O      -4.7250716101    -1.3650839165     0.9574540239
   18      C      -0.9384877186    -1.7169180139    -2.3947573229
   19      C      -4.5164752818     1.4649972605     1.0079742605
   20      C      -4.1225854451     2.9693594528     1.2779234826
   21      C      -3.6491753412     3.4227832309    -0.1528856897
   22      C      -3.8519980344     2.0892507383    -0.9746999418
   23      O      -5.0574989054     1.4833435697    -0.3702254606
   24      H      -2.4463969503     0.8758297947     1.6404504493
   25      H      -1.7115964344     1.5904480705    -0.4998802049
   26      H      -5.2582644671     1.0279069699     1.7037093050
   27      H      -5.0022109746     3.5419886482     1.6120364092
   28      H      -3.3314735765     3.0631368065     2.0389159101
   29      H      -4.2902685329     4.2226504372    -0.5560464505
   30      H      -2.6023083830     3.7660345748    -0.1673383484
   31      H      -3.9873719659     2.2164904467    -2.0662634987
   32      O       1.7994208391    -0.8420715345     1.5064550513
   33      C       4.7635986155    -1.4761254565     2.8443388535
   34      C       3.5774201916     1.3874740228    -1.0697800907
   35      C       3.6834403703     1.3752214293    -2.6444780473
   36      C       2.3585784919     0.6173177730    -3.0309546391
   37      C       1.7221569361     0.3622723888    -1.6080195199
   38      O       2.1248724905     1.5486027119    -0.8237990677
   39      H       4.7360437151    -0.5342983256    -1.0647959925
   40      H       2.6969481591    -1.6702779719    -1.5902511600
   41      H       3.8300243445    -1.2506292084     3.4001299246
   42      H       4.1461445654     2.1836136623    -0.5513339893
   43      H       3.6899803625     2.4040874721    -3.0382587563
   44      H       4.5888322423     0.8557105713    -2.9966077568
   45      H       1.6936847127     1.2492449931    -3.6413003601
   46      H       2.5484735613    -0.3222340650    -3.5742022379
   47      H       0.6163096659     0.2320228232    -1.5928441112
   48      H       5.5514024517    -0.7689612338     3.1751435088
   49      H       5.0807558923    -2.5132170346     3.0595047391
   50      H      -0.1856104868    -2.2904839239    -1.8137186160
   51      H      -0.5455582634    -1.4729336917    -3.4017042181
   52      H      -1.8865908196    -2.2787498807    -2.4986708016
   53      H      -0.9135486984    -0.7781619355     2.0828890723
   54      H      -0.9692676871    -0.7301071617     0.2580866720
   55      H       0.3633146203    -2.7962468252     2.0008276419
   56      H      -0.7239518598    -3.4879615946     0.7267448978
 ----------------------------------------------------------------

    9   -1510.2841950826      2.81E-09 Convergence criterion met
 Total energy in the final basis set = -1510.28419508
 Final energy is   -1510.28419508256
 **  OPTIMIZATION CONVERGED  **

                    Orbital Energies (a.u.)
 --------------------------------------------------------------

 Alpha MOs
 -- Occupied --
-18.954 -18.947 -18.932 -18.925 -18.900 -18.892 -18.890 -18.887
-18.876 -18.869 -10.116 -10.111 -10.100 -10.095 -10.080 -10.069
-10.065 -10.065 -10.061 -10.059 -10.058 -10.054 -10.048 -10.043
-10.042 -10.036 -10.023 -10.022 -10.022 -10.021  -1.028  -1.025
 -1.006  -1.003  -0.974  -0.971  -0.955  -0.949  -0.936  -0.930
 -0.769  -0.765  -0.728  -0.727  -0.715  -0.709  -0.701  -0.670
 -0.658  -0.617  -0.605  -0.587  -0.555  -0.548  -0.542  -0.539
 -0.518  -0.511  -0.487  -0.485  -0.471  -0.462  -0.461  -0.455
 -0.439  -0.432  -0.432  -0.423  -0.419  -0.413  -0.409  -0.407
 -0.396  -0.391  -0.380  -0.378  -0.363  -0.359  -0.358  -0.355
 -0.349  -0.344  -0.343  -0.335  -0.334  -0.328  -0.319  -0.316
 -0.313  -0.311  -0.306  -0.306  -0.299  -0.288  -0.285  -0.283
 -0.273  -0.264  -0.263  -0.249  -0.246  -0.237  -0.235  -0.195
 -0.192  -0.174  -0.171  -0.168  -0.165  -0.148  -0.148  -0.147
 -0.145

          Ground-State Mulliken Net Atomic Charges

     Atom                 Charge (a.u.)
  ----------------------------------------
      1 O                    -0.212688
      2 C                     0.215168
      3 C                    -0.080333
      4 C                    -0.080085
      5 C                     0.214189
      6 O                    -0.173855
      7 C                    -0.049587
      8 C                    -0.065768
      9 O                    -0.173995
     10 C                     0.202786
     11 C                    -0.083929
     12 C                    -0.082089
     13 C                     0.211569
     14 O                    -0.193161
     15 O                    -0.177276
     16 O                    -0.177575
     17 O                    -0.195202
     18 C                    -0.142911
     19 C                     0.026827
     20 C                    -0.144699
     21 C                    -0.143873
     22 C                     0.026704
     23 O                    -0.182729
     24 H                     0.082142
     25 H                     0.088774
     26 H                     0.091781
     27 H                     0.079761
     28 H                     0.074129
     29 H                     0.079555
     30 H                     0.075151
     31 H                     0.086159
     32 O                    -0.208930
     33 C                    -0.128958
     34 C                     0.024795
     35 C                    -0.144117
     36 C                    -0.144863
     37 C                     0.010497
     38 O                    -0.192976
     39 H                     0.084037
     40 H                     0.085481
     41 H                     0.090752
     42 H                     0.089216
     43 H                     0.077510
     44 H                     0.072975
     45 H                     0.076118
     46 H                     0.071497
     47 H                     0.097599
     48 H                     0.088293
     49 H                     0.087036
     50 H                     0.106287
     51 H                     0.084689
     52 H                     0.100396
     53 H                     0.083768
     54 H                     0.100189
     55 H                     0.094365
     56 H                     0.099402
  ----------------------------------------
  Sum of atomic charges =    -0.000000

                    Cartesian Multipole Moments
 -----------------------------------------------------------------
    Charge (ESU x 10^10)
                 0.0000
    Dipole Moment (Debye)
         X       3.4517      Y       0.4128      Z      -0.9829
       Tot       3.6125
    Quadrupole Moments (Debye-Ang)
        XX    -181.0413     XY     -15.4146     YY    -158.4332
        XZ      -8.7805     YZ      -2.0539     ZZ    -153.4169

 Total job time:  253.34s(wall), 12086.45s(cpu)
        *  Thank you very much for using Q-Chem.  Have a nice day.  *
