 Q-Chem 5.0, Q-Chem, Inc., Pleasanton, CA (2017)
 Q-Chem 5.0.1 for Intel X86 EM64T Linux

User input:
--------------------------------------------------------------
$molecule
0  1
O -3.94934 -3.66094 2.70899
C -3.26408 -4.56952 2.26188
C -3.36658 -6.02376 2.66595
C -3.23959 -7.07371 1.55
C -2.84717 -6.56022 0.18237
O -3.46501 -7.29952 -0.78569
C -3.66195 -6.57742 -2.00595
C -2.4484 -6.74089 -2.91518
O -2.00676 -8.10751 -2.90095
C -2.96211 -9.03187 -3.16929
C -2.43051 -10.224 -3.92881
C -3.28532 -11.49505 -3.81916
C -4.69038 -11.30239 -3.28494
O -5.68209 -11.90859 -3.66387
O -2.13285 -4.18774 1.61461
O -4.75936 -10.75258 -2.03969
O -4.11201 -8.71553 -3.44281
C -5.915 -10.62011 -1.29772
C -2.40008 -10.02819 -5.45769
C -1.35151 -10.95497 -6.06863
C -2.01557 -12.30254 -5.86719
C -3.37684 -11.8591 -5.31514
O -3.59914 -10.6049 -5.91383
H -1.39204 -10.40553 -3.56698
H -2.80262 -12.27819 -3.19418
H -2.21417 -8.975 -5.76248
H -1.32366 -10.73099 -7.15936
H -0.32498 -10.86593 -5.65251
H -2.12439 -12.79061 -6.86107
H -1.49895 -12.98599 -5.15884
H -4.14236 -12.63912 -5.52011
O -1.84378 -5.90518 -0.05951
C -1.8112 -2.8879 1.27896
C -2.17528 -6.42827 3.55819
C -2.53143 -7.66568 4.38211
C -2.50021 -8.73417 3.31042
C -2.06276 -7.90116 2.10179
O -1.21811 -6.92364 2.65636
H -4.30748 -6.13323 3.25104
H -4.15533 -7.7016 1.45482
H -1.72909 -2.26352 2.19438
H -1.83704 -5.60696 4.22814
H -1.69223 -7.85109 5.09013
H -3.48313 -7.58869 4.95073
H -1.70629 -9.46941 3.57037
H -3.46241 -9.26233 3.13516
H -1.60724 -8.55733 1.32676
H -2.58512 -2.46593 0.60252
H -0.83449 -2.8799 0.75344
H -5.67178 -10.13081 -0.33218
H -6.3565 -11.61854 -1.09169
H -6.64804 -9.98888 -1.84407
H -2.69318 -6.39651 -3.94362
H -1.60315 -6.12519 -2.54572
H -3.81623 -5.48631 -1.83155
H -4.64659 -6.85315 -2.42418
$end

$opt
CONSTRAINT
tors           1           2           3           4    +139.879
tors           3           4           5           6    -145.676
tors           4           5           6           7    +153.317
tors           5           6           7           8     +89.008
tors           6           7           8           9     +42.744
tors           7           8           9          10     +52.560
tors           8           9          10          11    +145.694
tors           9          10          11          12    +158.664
tors          11          12          13          14    +143.187
ENDCONSTRAINT
$end

$rem
JOBTYPE                   OPT
METHOD                    B3LYP
DFT_D                     d3_op
BASIS                     STO-3G
GEOM_OPT_MAX_CYCLES       100
GEOM_OPT_TOL_GRADIENT     300
GEOM_OPT_TOL_DISPLACEMENT 1200
GEOM_OPT_TOL_ENERGY       100
SYMMETRY                  False
THRESH                    12
SCF_CONVERGENCE           8
MAX_SUB_FILE_NUM          128
MEM_STATIC                400
MEM_TOTAL                 4000
$end
--------------------------------------------------------------

   16   -1510.1010385730      2.65E-09 Convergence criterion met
 Total energy in the final basis set = -1510.10103857
   14   -1510.1759592187      6.06E-09 Convergence criterion met
 Total energy in the final basis set = -1510.17595922
   14   -1510.2166849184      8.37E-09 Convergence criterion met
 Total energy in the final basis set = -1510.21668492
   14   -1510.2375278379      8.69E-09 Convergence criterion met
 Total energy in the final basis set = -1510.23752784
   14   -1510.2476562548      5.15E-09 Convergence criterion met
 Total energy in the final basis set = -1510.24765625
   13   -1510.2525100628      6.45E-09 Convergence criterion met
 Total energy in the final basis set = -1510.25251006
   13   -1510.2554032341      4.23E-09 Convergence criterion met
 Total energy in the final basis set = -1510.25540323
   12   -1510.2572884361      8.74E-09 Convergence criterion met
   10   -1510.2648407164      6.99E-09 Convergence criterion met
 Total energy in the final basis set = -1510.26484072
    9   -1510.2648442505      6.26E-09 Convergence criterion met
 Total energy in the final basis set = -1510.26484425
    9   -1510.2648488465      5.15E-09 Convergence criterion met
 Total energy in the final basis set = -1510.26484885
    9   -1510.2648601566      7.22E-09 Convergence criterion met
 Total energy in the final basis set = -1510.26486016
    9   -1510.2648631687      8.47E-09 Convergence criterion met
 Total energy in the final basis set = -1510.26486317
   11   -1510.2648655505      1.95E-09 Convergence criterion met
 Total energy in the final basis set = -1510.26486555

             Standard Nuclear Orientation (Angstroms)
    I     Atom           X                Y                Z
 ----------------------------------------------------------------
    1      O      -5.9844549342    -1.3729292496     1.4515446467
    2      C      -5.1513691666    -0.8850317003     0.6545994140
    3      C      -4.4462008157     0.5107171894     0.8018129212
    4      C      -2.9130445904     0.5917004815     0.4176529143
    5      C      -2.0943474808    -0.7482924554     0.4233128566
    6      O      -0.7672514243    -0.4046765770     0.8595974919
    7      C      -0.0997339352    -1.5566330705     1.5067846192
    8      C       0.6733405988    -2.4334655295     0.4453683350
    9      O       1.4374677220    -1.6638157309    -0.5654439119
   10      C       2.3347117863    -0.6944304517    -0.0077952131
   11      C       3.6079744919    -0.6040603428    -0.9231160093
   12      C       4.3663768489     0.7649603793    -0.7130979398
   13      C       3.4838154640     1.8776578296    -0.0398303427
   14      O       3.8475816865     2.7387192231     0.7879000750
   15      O      -4.8694134697    -1.4268815646    -0.6365189843
   16      O       2.2098473644     1.8780587494    -0.7085740720
   17      O       2.2186066529    -0.1307354225     1.1038484969
   18      C       1.2751175702     2.8067691300    -0.0379273037
   19      C       4.6800485185    -1.6116177559    -0.3181155731
   20      C       5.9535984630    -1.6486911902    -1.2544943473
   21      C       6.6731656027    -0.3070413445    -0.8542268633
   22      C       5.6183613087     0.3077900123     0.1447288210
   23      O       5.1384298890    -0.8828150473     0.8880725932
   24      H       3.3527184143    -0.8162011790    -1.9755296662
   25      H       4.6974735625     1.1676866465    -1.6887745311
   26      H       4.2717896729    -2.6038517056    -0.0432990598
   27      H       6.5755113827    -2.5287282363    -1.0258239448
   28      H       5.6776560438    -1.6797269124    -2.3208158970
   29      H       7.6261246763    -0.5008728975    -0.3362311615
   30      H       6.8662560411     0.3487911152    -1.7181965366
   31      H       5.9987707307     1.0779438572     0.8438833271
   32      O      -2.4673280487    -1.9261703661     0.2390848956
   33      C      -5.5723601075    -2.7175643900    -0.8100433817
   34      C      -5.0480073400     1.4834591226    -0.3097822913
   35      C      -4.5510377645     2.9626249554    -0.0459965668
   36      C      -3.0883914471     2.9092492749    -0.6258296251
   37      C      -2.9729698474     1.3744125413    -0.9743419810
   38      O      -4.3106597735     1.0663202537    -1.5240572808
   39      H      -4.6277100479     0.8770000837     1.8272715589
   40      H      -2.3954154357     1.2331951251     1.1524662692
   41      H      -6.6668410323    -2.6116235753    -0.6632025901
   42      H      -6.1394115173     1.3767457772    -0.4642962209
   43      H      -5.1792448870     3.6851578554    -0.5904566979
   44      H      -4.5719782269     3.2151480777     1.0263498532
   45      H      -2.9964760017     3.5168248806    -1.5405165078
   46      H      -2.3259271474     3.2372182986     0.0988655581
   47      H      -2.1793388857     1.1044998418    -1.6977548969
   48      H      -5.1921128734    -3.4831938587    -0.1033268750
   49      H      -5.3639534172    -3.0384042409    -1.8471262615
   50      H       0.4100970908     2.9236639206    -0.7167533202
   51      H       1.7429158194     3.7937822095     0.1529995597
   52      H       0.9285132557     2.3808824721     0.9268949350
   53      H       1.3531461520    -3.1324478254     0.9832698198
   54      H      -0.0572057564    -3.0247711242    -0.1432185611
   55      H      -0.8336965639    -2.2062115155     2.0309167830
   56      H       0.6202477738    -1.1152419758     2.2222801321
 ----------------------------------------------------------------

    9   -1510.2648659768      9.27E-09 Convergence criterion met
 Total energy in the final basis set = -1510.26486598
 Final energy is   -1510.26486597679
 **  OPTIMIZATION CONVERGED  **

                    Orbital Energies (a.u.)
 --------------------------------------------------------------

 Alpha MOs
 -- Occupied --
-18.930 -18.928 -18.926 -18.924 -18.891 -18.887 -18.881 -18.879
-18.870 -18.864 -10.103 -10.101 -10.095 -10.091 -10.075 -10.070
-10.063 -10.062 -10.061 -10.058 -10.058 -10.055 -10.038 -10.037
-10.037 -10.034 -10.022 -10.022 -10.021 -10.020  -1.016  -1.009
 -1.002  -1.000  -0.972  -0.971  -0.941  -0.935  -0.930  -0.926
 -0.764  -0.763  -0.728  -0.723  -0.715  -0.705  -0.696  -0.657
 -0.654  -0.620  -0.599  -0.582  -0.547  -0.545  -0.539  -0.537
 -0.515  -0.507  -0.481  -0.472  -0.460  -0.455  -0.452  -0.440
 -0.434  -0.433  -0.429  -0.412  -0.410  -0.407  -0.406  -0.403
 -0.392  -0.376  -0.373  -0.366  -0.362  -0.358  -0.353  -0.346
 -0.342  -0.336  -0.335  -0.332  -0.331  -0.327  -0.326  -0.315
 -0.312  -0.308  -0.305  -0.299  -0.294  -0.286  -0.284  -0.274
 -0.272  -0.252  -0.248  -0.244  -0.241  -0.235  -0.234  -0.185
 -0.172  -0.170  -0.166  -0.154  -0.150  -0.148  -0.145  -0.143
 -0.142

          Ground-State Mulliken Net Atomic Charges

     Atom                 Charge (a.u.)
  ----------------------------------------
      1 O                    -0.219060
      2 C                     0.208083
      3 C                    -0.079153
      4 C                    -0.080360
      5 C                     0.209356
      6 O                    -0.177414
      7 C                    -0.052907
      8 C                    -0.049975
      9 O                    -0.175871
     10 C                     0.221577
     11 C                    -0.076029
     12 C                    -0.079887
     13 C                     0.216791
     14 O                    -0.213175
     15 O                    -0.157678
     16 O                    -0.175690
     17 O                    -0.208179
     18 C                    -0.129506
     19 C                     0.023684
     20 C                    -0.144328
     21 C                    -0.142453
     22 C                     0.024123
     23 O                    -0.189794
     24 H                     0.087958
     25 H                     0.083583
     26 H                     0.080056
     27 H                     0.078203
     28 H                     0.074406
     29 H                     0.078250
     30 H                     0.073630
     31 H                     0.091169
     32 O                    -0.206922
     33 C                    -0.125322
     34 C                     0.026385
     35 C                    -0.145078
     36 C                    -0.142321
     37 C                     0.026933
     38 O                    -0.183384
     39 H                     0.084849
     40 H                     0.086457
     41 H                     0.086896
     42 H                     0.083221
     43 H                     0.078482
     44 H                     0.074363
     45 H                     0.077690
     46 H                     0.073527
     47 H                     0.085459
     48 H                     0.089123
     49 H                     0.090548
     50 H                     0.086346
     51 H                     0.090593
     52 H                     0.091008
     53 H                     0.080785
     54 H                     0.097105
     55 H                     0.087471
     56 H                     0.106373
  ----------------------------------------
  Sum of atomic charges =    -0.000000

                    Cartesian Multipole Moments
 -----------------------------------------------------------------
    Charge (ESU x 10^10)
                -0.0000
    Dipole Moment (Debye)
         X       0.8176      Y      -0.0789      Z      -1.3548
       Tot       1.5843
    Quadrupole Moments (Debye-Ang)
        XX    -161.4598     XY     -12.2335     YY    -152.2320
        XZ      -9.0673     YZ      -0.6093     ZZ    -163.3893

 Total job time:  81.31s(wall), 3871.71s(cpu)
        *  Thank you very much for using Q-Chem.  Have a nice day.  *
