 Q-Chem 5.0, Q-Chem, Inc., Pleasanton, CA (2017)
 Q-Chem 5.0.1 for Intel X86 EM64T Linux

User input:
--------------------------------------------------------------
$molecule
0  1
O -5.9844549342 -1.3729292496 1.4515446467
C -5.1513691666 -0.8850317003 0.654599414
C -4.4462008157 0.5107171894 0.8018129212
C -2.9130445904 0.5917004815 0.4176529143
C -2.0943474808 -0.7482924554 0.4233128566
O -0.7672514243 -0.404676577 0.8595974919
C -0.0997339352 -1.5566330705 1.5067846192
C 0.6733405988 -2.4334655295 0.445368335
O 1.437467722 -1.6638157309 -0.5654439119
C 2.3347117863 -0.6944304517 -0.0077952131
C 3.6079744919 -0.6040603428 -0.9231160093
C 4.3663768489 0.7649603793 -0.7130979398
C 3.483815464 1.8776578296 -0.0398303427
O 3.8475816865 2.7387192231 0.787900075
O -4.8694134697 -1.4268815646 -0.6365189843
O 2.2098473644 1.8780587494 -0.708574072
O 2.2186066529 -0.1307354225 1.1038484969
C 1.2751175702 2.80676913 -0.0379273037
C 4.6800485185 -1.6116177559 -0.3181155731
C 5.953598463 -1.6486911902 -1.2544943473
C 6.6731656027 -0.3070413445 -0.8542268633
C 5.6183613087 0.3077900123 0.144728821
O 5.138429889 -0.8828150473 0.8880725932
H 3.3527184143 -0.816201179 -1.9755296662
H 4.6974735625 1.1676866465 -1.6887745311
H 4.2717896729 -2.6038517056 -0.0432990598
H 6.5755113827 -2.5287282363 -1.0258239448
H 5.6776560438 -1.6797269124 -2.320815897
H 7.6261246763 -0.5008728975 -0.3362311615
H 6.8662560411 0.3487911152 -1.7181965366
H 5.9987707307 1.0779438572 0.8438833271
O -2.4673280487 -1.9261703661 0.2390848956
C -5.5723601075 -2.71756439 -0.8100433817
C -5.04800734 1.4834591226 -0.3097822913
C -4.5510377645 2.9626249554 -0.0459965668
C -3.0883914471 2.9092492749 -0.6258296251
C -2.9729698474 1.3744125413 -0.974341981
O -4.3106597735 1.0663202537 -1.5240572808
H -4.6277100479 0.8770000837 1.8272715589
H -2.3954154357 1.2331951251 1.1524662692
H -6.6668410323 -2.6116235753 -0.6632025901
H -6.1394115173 1.3767457772 -0.4642962209
H -5.179244887 3.6851578554 -0.5904566979
H -4.5719782269 3.2151480777 1.0263498532
H -2.9964760017 3.5168248806 -1.5405165078
H -2.3259271474 3.2372182986 0.0988655581
H -2.1793388857 1.1044998418 -1.6977548969
H -5.1921128734 -3.4831938587 -0.103326875
H -5.3639534172 -3.0384042409 -1.8471262615
H 0.4100970908 2.9236639206 -0.7167533202
H 1.7429158194 3.7937822095 0.1529995597
H 0.9285132557 2.3808824721 0.926894935
H 1.353146152 -3.1324478254 0.9832698198
H -0.0572057564 -3.0247711242 -0.1432185611
H -0.8336965639 -2.2062115155 2.030916783
H 0.6202477738 -1.1152419758 2.2222801321
$end

$rem
JOBTYPE                   OPT
METHOD                    B3LYP
DFT_D                     d3_op
BASIS                     STO-3G
GEOM_OPT_MAX_CYCLES       100
GEOM_OPT_TOL_GRADIENT     300
GEOM_OPT_TOL_DISPLACEMENT 1200
GEOM_OPT_TOL_ENERGY       100
SYMMETRY                  False
THRESH                    12
SCF_CONVERGENCE           8
MAX_SUB_FILE_NUM          128
MEM_STATIC                400
MEM_TOTAL                 4000
$end
--------------------------------------------------------------

   16   -1510.2649030111      5.67E-09 Convergence criterion met
 Total energy in the final basis set = -1510.26490301
   15   -1510.2713744498      3.49E-09 Convergence criterion met
 Total energy in the final basis set = -1510.27137445
   14   -1510.2761544148      4.75E-09 Convergence criterion met
 Total energy in the final basis set = -1510.27615441
   15   -1510.2795066797      3.41E-09 Convergence criterion met
 Total energy in the final basis set = -1510.27950668
   14   -1510.2822020985      9.12E-09 Convergence criterion met
 Total energy in the final basis set = -1510.28220210
   13   -1510.2842349698      9.17E-09 Convergence criterion met
 Total energy in the final basis set = -1510.28423497
   14   -1510.2862406203      1.47E-09 Convergence criterion met
 Total energy in the final basis set = -1510.28624062
   14   -1510.2881299798      2.74E-09 Convergence criterion met
   11   -1510.3070078872      5.74E-09 Convergence criterion met
 Total energy in the final basis set = -1510.30700789
   11   -1510.3070280726      3.17E-09 Convergence criterion met
 Total energy in the final basis set = -1510.30702807
   11   -1510.3070305388      4.75E-09 Convergence criterion met
 Total energy in the final basis set = -1510.30703054
    9   -1510.3070330622      5.69E-09 Convergence criterion met
 Total energy in the final basis set = -1510.30703306
    9   -1510.3070350316      9.71E-09 Convergence criterion met
 Total energy in the final basis set = -1510.30703503
    9   -1510.3070359950      9.41E-09 Convergence criterion met
 Total energy in the final basis set = -1510.30703600

             Standard Nuclear Orientation (Angstroms)
    I     Atom           X                Y                Z
 ----------------------------------------------------------------
    1      O      -3.8724929302    -1.4942014245    -1.6262292939
    2      C      -2.8902105111    -0.7880563185    -1.3150122628
    3      C      -2.9106682388     0.7059602395    -0.8330008881
    4      C      -2.2659091260     0.9165431060     0.6002605406
    5      C      -2.0136761880    -0.4402776812     1.3466296086
    6      O      -1.0062265006    -0.2695065316     2.3492096672
    7      C      -0.8217562210    -1.5285170938     3.1131309242
    8      C      -0.2074711196    -2.7018634661     2.2284945040
    9      O       0.1331702458    -2.2317037732     0.8687185401
   10      C       1.2063912361    -1.2838694883     0.9312571640
   11      C       1.3792383001    -0.6445580761    -0.4771640642
   12      C       2.2682380657     0.6627378274    -0.4412600322
   13      C       2.7118860814     1.0953933061     1.0014410335
   14      O       3.8572353372     1.0887769319     1.4949354229
   15      O      -1.5228996967    -1.2146499963    -1.4312409240
   16      O       1.5575899574     1.6548471566     1.6665266190
   17      O       1.8630400278    -1.0474702412     1.9708797778
   18      C       1.8596864339     1.9369427293     3.0834873377
   19      C       2.2429434709    -1.5627926892    -1.4416437131
   20      C       2.0894642119    -1.0032413922    -2.9116500038
   21      C       3.0182975993     0.2666387517    -2.8521644992
   22      C       3.4919512144     0.2257570139    -1.3459772649
   23      O       3.6361973127    -1.2245235295    -1.0736688473
   24      H       0.3704119034    -0.4226997850    -0.8909414449
   25      H       1.6985613120     1.4948012336    -0.8944589170
   26      H       2.0627716968    -2.6497066006    -1.3287298748
   27      H       2.4518872921    -1.7381279587    -3.6481969161
   28      H       1.0419595082    -0.7517997657    -3.1428184424
   29      H       3.8811109724     0.1672921986    -3.5301320616
   30      H       2.4813674942     1.1976128541    -3.0941236788
   31      H       4.4389878374     0.7539787557    -1.1218597385
   32      O      -2.6371533467    -1.5095343718     1.1605229484
   33      C      -1.4703277541    -2.6486544818    -1.7880388582
   34      C      -1.9488361722     1.6060925039    -1.7167283298
   35      C      -2.2089736085     3.1260415082    -1.3742061155
   36      C      -1.4612421588     3.2621825326     0.0053963979
   37      C      -0.9788278757     1.7791703842     0.2460425198
   38      O      -0.6202182111     1.3390456251    -1.1244381408
   39      H      -3.9574323046     1.0550808729    -0.8659770892
   40      H      -2.9471562342     1.5067690068     1.2420773698
   41      H      -1.9718181971    -2.8484166978    -2.7572213435
   42      H      -1.9511746410     1.3570571416    -2.7956935493
   43      H      -1.7658038620     3.7774699324    -2.1440034345
   44      H      -3.2847552659     3.3515232345    -1.2987796791
   45      H      -0.5918611203     3.9343160042    -0.0751160905
   46      H      -2.1159714504     3.6297290132     0.8113615485
   47      H      -0.0987984717     1.6618156503     0.9262816373
   48      H      -1.9462736402    -3.2723353155    -1.0044416862
   49      H      -0.3984243054    -2.9056939375    -1.8612699293
   50      H       0.9491600221     2.3985350046     3.5079344174
   51      H       2.7168934764     2.6330681876     3.1877983878
   52      H       2.0920858045     0.9996076101     3.6295730958
   53      H       0.6848865110    -3.1213102582     2.7403028807
   54      H      -0.9589693241    -3.5002609333     2.0763477744
   55      H      -1.7872176395    -1.8634716202     3.5482924194
   56      H      -0.1228055606    -1.2573350007     3.9276835305
 ----------------------------------------------------------------

    9   -1510.3070369075      3.56E-09 Convergence criterion met
 Total energy in the final basis set = -1510.30703691
 Final energy is   -1510.30703690752
 **  OPTIMIZATION CONVERGED  **

                    Orbital Energies (a.u.)
 --------------------------------------------------------------

 Alpha MOs
 -- Occupied --
-18.944 -18.936 -18.927 -18.927 -18.890 -18.882 -18.878 -18.877
-18.867 -18.866 -10.107 -10.098 -10.094 -10.093 -10.078 -10.075
-10.063 -10.059 -10.057 -10.052 -10.049 -10.044 -10.039 -10.036
-10.023 -10.021 -10.017 -10.017 -10.012 -10.011  -1.027  -1.010
 -1.003  -0.999  -0.972  -0.962  -0.944  -0.937  -0.929  -0.928
 -0.764  -0.754  -0.726  -0.719  -0.710  -0.702  -0.692  -0.656
 -0.654  -0.621  -0.596  -0.577  -0.545  -0.539  -0.538  -0.530
 -0.512  -0.502  -0.482  -0.475  -0.467  -0.458  -0.444  -0.441
 -0.429  -0.427  -0.422  -0.418  -0.409  -0.406  -0.405  -0.404
 -0.393  -0.378  -0.372  -0.367  -0.361  -0.355  -0.347  -0.343
 -0.343  -0.341  -0.332  -0.329  -0.324  -0.322  -0.317  -0.313
 -0.305  -0.303  -0.299  -0.297  -0.292  -0.284  -0.278  -0.273
 -0.268  -0.260  -0.249  -0.246  -0.244  -0.234  -0.221  -0.195
 -0.173  -0.170  -0.169  -0.160  -0.154  -0.147  -0.145  -0.142
 -0.136

          Ground-State Mulliken Net Atomic Charges

     Atom                 Charge (a.u.)
  ----------------------------------------
      1 O                    -0.212962
      2 C                     0.213668
      3 C                    -0.080278
      4 C                    -0.080271
      5 C                     0.214604
      6 O                    -0.167702
      7 C                    -0.050732
      8 C                    -0.050310
      9 O                    -0.170355
     10 C                     0.213381
     11 C                    -0.092959
     12 C                    -0.084430
     13 C                     0.220233
     14 O                    -0.210801
     15 O                    -0.173419
     16 O                    -0.178636
     17 O                    -0.214364
     18 C                    -0.125814
     19 C                     0.023703
     20 C                    -0.144004
     21 C                    -0.142918
     22 C                     0.024101
     23 O                    -0.191449
     24 H                     0.121156
     25 H                     0.092887
     26 H                     0.078096
     27 H                     0.074221
     28 H                     0.077881
     29 H                     0.075369
     30 H                     0.074154
     31 H                     0.086438
     32 O                    -0.212232
     33 C                    -0.125613
     34 C                     0.026161
     35 C                    -0.144937
     36 C                    -0.144104
     37 C                     0.005182
     38 O                    -0.195369
     39 H                     0.084600
     40 H                     0.084580
     41 H                     0.085513
     42 H                     0.081597
     43 H                     0.076594
     44 H                     0.073553
     45 H                     0.076334
     46 H                     0.071493
     47 H                     0.116957
     48 H                     0.093028
     49 H                     0.089339
     50 H                     0.087082
     51 H                     0.088732
     52 H                     0.093575
     53 H                     0.090658
     54 H                     0.094893
     55 H                     0.088881
     56 H                     0.095013
  ----------------------------------------
  Sum of atomic charges =    -0.000000

                    Cartesian Multipole Moments
 -----------------------------------------------------------------
    Charge (ESU x 10^10)
                -0.0000
    Dipole Moment (Debye)
         X      -1.9319      Y       1.4966      Z       0.4434
       Tot       2.4836
    Quadrupole Moments (Debye-Ang)
        XX    -180.6931     XY      -5.1126     YY    -151.0303
        XZ      -7.8909     YZ      -2.5677     ZZ    -148.4379

 Total job time:  140.96s(wall), 6711.45s(cpu)
        *  Thank you very much for using Q-Chem.  Have a nice day.  *
