 Q-Chem 5.0, Q-Chem, Inc., Pleasanton, CA (2017)
 Q-Chem 5.0.1 for Intel X86 EM64T Linux

User input:
--------------------------------------------------------------
$molecule
0  1
O -3.94934 -3.66094 2.70899
C -3.26408 -4.56952 2.26188
C -3.36658 -6.02376 2.66595
C -2.27144 -6.57393 3.5943
C -1.29549 -5.56497 4.15787
O -1.94754 -4.70775 4.99777
C -1.0783 -4.07611 5.94366
C -0.60406 -2.73045 5.40475
O 0.26741 -2.10135 6.35745
C 0.42504 -0.76266 6.20837
C 1.77722 -0.38804 5.64987
C 2.92218 -0.38552 6.67326
C 2.6363 -1.08606 7.98636
O 3.47667 -1.42118 8.80858
O -2.40875 -4.34867 1.24685
O 1.37041 -1.28068 8.31323
O -0.48707 0.03991 6.34721
C 0.90581 -1.91477 9.42662
C 2.37795 -1.31561 4.56801
C 3.38379 -0.51612 3.73437
C 4.5221 -0.37329 4.72579
C 3.97615 -1.19459 5.90119
O 3.20976 -2.19499 5.28148
H 1.63438 0.62999 5.22657
H 3.26046 0.64602 6.90377
H 1.63337 -1.81528 3.91932
H 3.72099 -1.1348 2.87511
H 2.9994 0.44653 3.34288
H 5.43425 -0.85145 4.31284
H 4.75962 0.67808 4.98704
H 4.7948 -1.58007 6.55898
O -0.09833 -5.53116 3.90025
C -2.21437 -3.09092 0.75167
C -4.61606 -6.31347 3.52994
C -4.95788 -7.80428 3.43754
C -3.86046 -8.40127 4.29673
C -3.1319 -7.13519 4.74335
O -4.1656 -6.18744 4.85293
H -3.42581 -6.59725 1.71572
H -1.68501 -7.36246 3.07739
H -1.86471 -2.45649 1.58438
H -5.49383 -5.67014 3.27762
H -5.94164 -7.98829 3.9196
H -4.99123 -8.20666 2.40594
H -4.31253 -8.90211 5.17766
H -3.21306 -9.12518 3.76604
H -2.5493 -7.28353 5.68677
H -3.16789 -2.70536 0.34595
H -1.45464 -3.1068 -0.04076
H -0.17912 -2.07252 9.31372
H 1.12794 -1.23684 10.24155
H 1.42774 -2.87159 9.47788
H -0.12151 -2.84451 4.42125
H -1.49122 -2.08004 5.24791
H -0.19998 -4.72038 6.16969
H -1.61984 -3.91935 6.89785
$end

$opt
CONSTRAINT
tors           1           2           3           4    -104.356
tors           3           4           5           6     +65.822
tors           4           5           6           7    +157.456
tors           5           6           7           8     +93.485
tors           6           7           8           9    -180.000
tors           7           8           9          10    -160.357
tors           8           9          10          11    -106.712
tors           9          10          11          12     -79.708
tors          11          12          13          14    +164.765
ENDCONSTRAINT
$end

$rem
JOBTYPE                   OPT
METHOD                    B3LYP
DFT_D                     d3_op
BASIS                     STO-3G
GEOM_OPT_MAX_CYCLES       100
GEOM_OPT_TOL_GRADIENT     300
GEOM_OPT_TOL_DISPLACEMENT 1200
GEOM_OPT_TOL_ENERGY       100
SYMMETRY                  False
THRESH                    12
SCF_CONVERGENCE           8
MAX_SUB_FILE_NUM          128
MEM_STATIC                400
MEM_TOTAL                 4000
$end
--------------------------------------------------------------

   15   -1510.1227026548      5.49E-09 Convergence criterion met
 Total energy in the final basis set = -1510.12270265
   14   -1510.1988819009      4.81E-09 Convergence criterion met
 Total energy in the final basis set = -1510.19888190
   14   -1510.2393158552      7.15E-09 Convergence criterion met
 Total energy in the final basis set = -1510.23931586
   14   -1510.2547806538      7.07E-09 Convergence criterion met
 Total energy in the final basis set = -1510.25478065
   14   -1510.2568434370      2.29E-09 Convergence criterion met
 Total energy in the final basis set = -1510.25684344
   13   -1510.2589814636      4.69E-09 Convergence criterion met
 Total energy in the final basis set = -1510.25898146
   12   -1510.2594365264      6.05E-09 Convergence criterion met
 Total energy in the final basis set = -1510.25943653
   12   -1510.2598365740      9.21E-09 Convergence criterion met
   11   -1510.2606801463      2.47E-09 Convergence criterion met
 Total energy in the final basis set = -1510.26068015
    9   -1510.2606883672      9.23E-09 Convergence criterion met
 Total energy in the final basis set = -1510.26068837
   10   -1510.2606944571      8.31E-09 Convergence criterion met
 Total energy in the final basis set = -1510.26069446
    9   -1510.2606978754      9.18E-09 Convergence criterion met
 Total energy in the final basis set = -1510.26069788
    9   -1510.2607008072      5.44E-09 Convergence criterion met
 Total energy in the final basis set = -1510.26070081
    9   -1510.2607018376      4.60E-09 Convergence criterion met
 Total energy in the final basis set = -1510.26070184

             Standard Nuclear Orientation (Angstroms)
    I     Atom           X                Y                Z
 ----------------------------------------------------------------
    1      O      -3.6548506304     0.8143146284     2.1504845480
    2      C      -3.7405129036     1.2315872792     0.9770994498
    3      C      -4.6956030055     0.7217477693    -0.1609524188
    4      C      -3.9391448298    -0.1706711086    -1.2376772631
    5      C      -2.3807065880    -0.1592847166    -1.1017674390
    6      O      -2.0074636272    -0.7829776114     0.1360725316
    7      C      -0.6101450259    -1.2751938536     0.0683523129
    8      C       0.3821313840    -0.1958883438     0.6336306365
    9      O       1.7451516335    -0.7557003745     0.5333683594
   10      C       2.6322903584    -0.0254900273     1.4480017318
   11      C       3.6293923889     0.9539468655     0.6985426750
   12      C       4.9132702288     0.2779962418     0.0538611468
   13      C       5.0019005171    -1.2854562121     0.1621096372
   14      O       5.7616368693    -2.0356000978    -0.4866356678
   15      O      -2.8854073838     2.2370866664     0.4144399485
   16      O       4.1035247982    -1.7471479362     1.1714139532
   17      O       2.4704519978    -0.0345991541     2.6865058150
   18      C       4.0557374217    -3.2242680968     1.2243375513
   19      C       2.9911019991     1.6360358081    -0.5873530342
   20      C       3.8543614073     2.9073231342    -0.9572060017
   21      C       5.1247077932     2.2381522367    -1.5994373352
   22      C       4.7590678451     0.7087319325    -1.4677678207
   23      O       3.2930907420     0.6799993821    -1.6763735429
   24      H       3.9352132802     1.7090672532     1.4451038793
   25      H       5.8396161546     0.6939446317     0.4922335892
   26      H       1.9036276860     1.8229895029    -0.5274667077
   27      H       3.3168218515     3.5347174591    -1.6858333455
   28      H       4.0946328990     3.5192620410    -0.0730407251
   29      H       5.2348070365     2.5157469165    -2.6597978081
   30      H       6.0566633953     2.4914100433    -1.0693116174
   31      H       5.2710067494     0.0306885656    -2.1784111770
   32      O      -1.5622250209     0.2287979673    -1.9640260977
   33      C      -1.9172625333     2.7047612417     1.4316439442
   34      C      -5.7156944036    -0.3364387628     0.4299749151
   35      C      -6.8202061119    -0.6469110345    -0.6565502129
   36      C      -6.0278155210    -1.5856890340    -1.6411825691
   37      C      -4.5996697271    -1.5921037095    -0.9660096194
   38      O      -4.9058014709    -1.5769745045     0.4802356341
   39      H      -5.1952107757     1.5846598650    -0.6367599270
   40      H      -4.1686113110     0.1843551595    -2.2579847158
   41      H      -1.3976671889     1.8558862610     1.9195493738
   42      H      -6.0927846426    -0.0850216651     1.4400027629
   43      H      -7.6773504981    -1.1676602652    -0.2010190063
   44      H      -7.1836331445     0.2700583313    -1.1475620134
   45      H      -6.4494732608    -2.6035739503    -1.6543321808
   46      H      -6.0011104992    -1.1995154543    -2.6726790601
   47      H      -3.9573883051    -2.4578038812    -1.2187747764
   48      H      -2.4150600054     3.3085950906     2.2180848651
   49      H      -1.1849318359     3.3348214971     0.8941477623
   50      H       3.3104703858    -3.4744816751     2.0015950464
   51      H       5.0430708558    -3.6482791778     1.4998533218
   52      H       3.7402093617    -3.6521479555     0.2511671235
   53      H       0.2756311236     0.7334544888     0.0290182479
   54      H       0.1064390535     0.0371647526     1.6865534082
   55      H      -0.3248841273    -1.5234708311    -0.9754359037
   56      H      -0.5723931446    -2.1882701033     0.6964487008
 ----------------------------------------------------------------

    9   -1510.2607017337      6.42E-09 Convergence criterion met
 Total energy in the final basis set = -1510.26070173
 Final energy is   -1510.26070173369
 **  OPTIMIZATION CONVERGED  **

                    Orbital Energies (a.u.)
 --------------------------------------------------------------

 Alpha MOs
 -- Occupied --
-18.951 -18.932 -18.929 -18.889 -18.889 -18.887 -18.882 -18.878
-18.876 -18.876 -10.108 -10.100 -10.099 -10.097 -10.071 -10.067
-10.064 -10.062 -10.061 -10.061 -10.060 -10.058 -10.041 -10.038
-10.037 -10.035 -10.022 -10.021 -10.020 -10.019  -1.021  -1.013
 -1.006  -0.993  -0.971  -0.969  -0.944  -0.936  -0.934  -0.923
 -0.764  -0.763  -0.726  -0.724  -0.709  -0.705  -0.691  -0.667
 -0.663  -0.607  -0.598  -0.583  -0.547  -0.545  -0.538  -0.537
 -0.517  -0.510  -0.488  -0.479  -0.466  -0.462  -0.448  -0.436
 -0.435  -0.431  -0.428  -0.416  -0.413  -0.410  -0.406  -0.396
 -0.392  -0.385  -0.379  -0.370  -0.358  -0.356  -0.351  -0.348
 -0.347  -0.340  -0.337  -0.332  -0.328  -0.325  -0.322  -0.313
 -0.308  -0.307  -0.306  -0.304  -0.298  -0.290  -0.286  -0.278
 -0.272  -0.255  -0.252  -0.246  -0.235  -0.233  -0.223  -0.187
 -0.178  -0.174  -0.161  -0.157  -0.149  -0.148  -0.147  -0.143
 -0.142

          Ground-State Mulliken Net Atomic Charges

     Atom                 Charge (a.u.)
  ----------------------------------------
      1 O                    -0.205430
      2 C                     0.211241
      3 C                    -0.077687
      4 C                    -0.079235
      5 C                     0.207786
      6 O                    -0.173668
      7 C                    -0.046681
      8 C                    -0.048828
      9 O                    -0.197676
     10 C                     0.227635
     11 C                    -0.082156
     12 C                    -0.078795
     13 C                     0.216441
     14 O                    -0.210020
     15 O                    -0.173521
     16 O                    -0.161073
     17 O                    -0.202703
     18 C                    -0.122850
     19 C                     0.025164
     20 C                    -0.144216
     21 C                    -0.143859
     22 C                     0.024924
     23 O                    -0.186170
     24 H                     0.082276
     25 H                     0.086319
     26 H                     0.081363
     27 H                     0.078427
     28 H                     0.073223
     29 H                     0.079002
     30 H                     0.073819
     31 H                     0.088708
     32 O                    -0.210394
     33 C                    -0.129535
     34 C                     0.025464
     35 C                    -0.144781
     36 C                    -0.143097
     37 C                     0.026578
     38 O                    -0.184104
     39 H                     0.085216
     40 H                     0.085168
     41 H                     0.091410
     42 H                     0.088189
     43 H                     0.078218
     44 H                     0.073099
     45 H                     0.078076
     46 H                     0.073770
     47 H                     0.083149
     48 H                     0.086838
     49 H                     0.088354
     50 H                     0.098616
     51 H                     0.092608
     52 H                     0.094697
     53 H                     0.073994
     54 H                     0.080640
     55 H                     0.094532
     56 H                     0.091538
  ----------------------------------------
  Sum of atomic charges =     0.000000

                    Cartesian Multipole Moments
 -----------------------------------------------------------------
    Charge (ESU x 10^10)
                 0.0000
    Dipole Moment (Debye)
         X      -0.2867      Y       1.6442      Z      -0.9381
       Tot       1.9146
    Quadrupole Moments (Debye-Ang)
        XX    -144.8812     XY       3.5991     YY    -149.4814
        XZ      10.5688     YZ       2.1678     ZZ    -170.6626

 Total job time:  62.12s(wall), 2951.69s(cpu)
        *  Thank you very much for using Q-Chem.  Have a nice day.  *
