 Q-Chem 5.0, Q-Chem, Inc., Pleasanton, CA (2017)
 Q-Chem 5.0.1 for Intel X86 EM64T Linux

User input:
--------------------------------------------------------------
$molecule
0  1
O -3.6548506304 0.8143146284 2.150484548
C -3.7405129036 1.2315872792 0.9770994498
C -4.6956030055 0.7217477693 -0.1609524188
C -3.9391448298 -0.1706711086 -1.2376772631
C -2.380706588 -0.1592847166 -1.101767439
O -2.0074636272 -0.7829776114 0.1360725316
C -0.6101450259 -1.2751938536 0.0683523129
C 0.382131384 -0.1958883438 0.6336306365
O 1.7451516335 -0.7557003745 0.5333683594
C 2.6322903584 -0.0254900273 1.4480017318
C 3.6293923889 0.9539468655 0.698542675
C 4.9132702288 0.2779962418 0.0538611468
C 5.0019005171 -1.2854562121 0.1621096372
O 5.7616368693 -2.0356000978 -0.4866356678
O -2.8854073838 2.2370866664 0.4144399485
O 4.1035247982 -1.7471479362 1.1714139532
O 2.4704519978 -0.0345991541 2.686505815
C 4.0557374217 -3.2242680968 1.2243375513
C 2.9911019991 1.6360358081 -0.5873530342
C 3.8543614073 2.9073231342 -0.9572060017
C 5.1247077932 2.2381522367 -1.5994373352
C 4.7590678451 0.7087319325 -1.4677678207
O 3.293090742 0.6799993821 -1.6763735429
H 3.9352132802 1.7090672532 1.4451038793
H 5.8396161546 0.6939446317 0.4922335892
H 1.903627686 1.8229895029 -0.5274667077
H 3.3168218515 3.5347174591 -1.6858333455
H 4.094632899 3.519262041 -0.0730407251
H 5.2348070365 2.5157469165 -2.6597978081
H 6.0566633953 2.4914100433 -1.0693116174
H 5.2710067494 0.0306885656 -2.178411177
O -1.5622250209 0.2287979673 -1.9640260977
C -1.9172625333 2.7047612417 1.4316439442
C -5.7156944036 -0.3364387628 0.4299749151
C -6.8202061119 -0.6469110345 -0.6565502129
C -6.027815521 -1.585689034 -1.6411825691
C -4.5996697271 -1.5921037095 -0.9660096194
O -4.9058014709 -1.5769745045 0.4802356341
H -5.1952107757 1.584659865 -0.636759927
H -4.168611311 0.1843551595 -2.2579847158
H -1.3976671889 1.855886261 1.9195493738
H -6.0927846426 -0.0850216651 1.4400027629
H -7.6773504981 -1.1676602652 -0.2010190063
H -7.1836331445 0.2700583313 -1.1475620134
H -6.4494732608 -2.6035739503 -1.6543321808
H -6.0011104992 -1.1995154543 -2.6726790601
H -3.9573883051 -2.4578038812 -1.2187747764
H -2.4150600054 3.3085950906 2.2180848651
H -1.1849318359 3.3348214971 0.8941477623
H 3.3104703858 -3.4744816751 2.0015950464
H 5.0430708558 -3.6482791778 1.4998533218
H 3.7402093617 -3.6521479555 0.2511671235
H 0.2756311236 0.7334544888 0.0290182479
H 0.1064390535 0.0371647526 1.6865534082
H -0.3248841273 -1.5234708311 -0.9754359037
H -0.5723931446 -2.1882701033 0.6964487008
$end

$rem
JOBTYPE                   OPT
METHOD                    B3LYP
DFT_D                     d3_op
BASIS                     STO-3G
GEOM_OPT_MAX_CYCLES       100
GEOM_OPT_TOL_GRADIENT     300
GEOM_OPT_TOL_DISPLACEMENT 1200
GEOM_OPT_TOL_ENERGY       100
SYMMETRY                  False
THRESH                    12
SCF_CONVERGENCE           8
MAX_SUB_FILE_NUM          128
MEM_STATIC                400
MEM_TOTAL                 4000
$end
--------------------------------------------------------------

   16   -1510.2607135014      5.11E-09 Convergence criterion met
 Total energy in the final basis set = -1510.26071350
   13   -1510.2648965261      9.96E-09 Convergence criterion met
 Total energy in the final basis set = -1510.26489653
   14   -1510.2690346490      5.13E-09 Convergence criterion met
 Total energy in the final basis set = -1510.26903465
   14   -1510.2730296916      2.07E-09 Convergence criterion met
 Total energy in the final basis set = -1510.27302969
   14   -1510.2770900512      3.47E-09 Convergence criterion met
 Total energy in the final basis set = -1510.27709005
   14   -1510.2808829640      2.82E-09 Convergence criterion met
 Total energy in the final basis set = -1510.28088296
   14   -1510.2837379824      2.06E-09 Convergence criterion met
 Total energy in the final basis set = -1510.28373798
   13   -1510.2858350768      8.55E-09 Convergence criterion met
   11   -1510.3001457319      5.50E-09 Convergence criterion met
 Total energy in the final basis set = -1510.30014573
   10   -1510.3001455922      6.57E-09 Convergence criterion met
 Total energy in the final basis set = -1510.30014559
   10   -1510.3001468234      4.40E-09 Convergence criterion met
 Total energy in the final basis set = -1510.30014682
    9   -1510.3001495188      6.78E-09 Convergence criterion met
 Total energy in the final basis set = -1510.30014952
    9   -1510.3001544398      2.45E-09 Convergence criterion met
 Total energy in the final basis set = -1510.30015444
    9   -1510.3001556682      3.16E-09 Convergence criterion met
 Total energy in the final basis set = -1510.30015567

             Standard Nuclear Orientation (Angstroms)
    I     Atom           X                Y                Z
 ----------------------------------------------------------------
    1      O      -1.7092832546    -0.3475265380     2.4161731113
    2      C      -2.5396975182     0.2373217223     1.6852200505
    3      C      -3.7301539667    -0.4284537810     0.9030452726
    4      C      -3.8710139727    -0.0582379369    -0.6359336464
    5      C      -2.7805628753     0.9146228112    -1.1977386043
    6      O      -1.5475151230     0.1980430455    -1.3769239342
    7      C      -0.5216175937     1.0722408565    -1.9922445655
    8      C       0.1301862937     2.0556825485    -0.9457724576
    9      O       1.5355031860     1.6334090878    -0.7548493673
   10      C       1.9408220877     1.6045708513     0.6136538712
   11      C       3.4130841074     1.0687576173     0.6318023398
   12      C       3.5575380057    -0.3076667746    -0.1460829291
   13      C       2.1721617282    -0.9032884512    -0.5968258896
   14      O       1.7998198424    -1.2126234577    -1.7498114462
   15      O      -2.5997365126     1.6484609346     1.4972687903
   16      O       1.3962032411    -1.0484126525     0.5902295509
   17      O       1.2408869411     1.9610398477     1.5881527675
   18      C       0.0698241824    -1.6544563229     0.3142136972
   19      C       4.3691099246     1.9891868471    -0.2445741498
   20      C       5.8665994548     1.5523626989     0.0184891456
   21      C       5.9593782316     0.2358727396    -0.8399622006
   22      C       4.4761240154     0.1162925973    -1.3646081929
   23      O       4.1012582696     1.5267758959    -1.6243804957
   24      H       3.7433447711     0.9928890165     1.6821853760
   25      H       4.0596422075    -1.0576795615     0.4920393055
   26      H       4.1724767989     3.0751923596    -0.1538199856
   27      H       6.5633589875     2.3244071345    -0.3446963790
   28      H       6.0614931627     1.3754830468     1.0883163870
   29      H       6.6564354424     0.3553293560    -1.6847750075
   30      H       6.2684127212    -0.6400162767    -0.2475612532
   31      H       4.3287183860    -0.4967483368    -2.2750556707
   32      O      -2.9310237899     2.1123190425    -1.5202994340
   33      C      -1.6200996625     2.3356817662     2.3797967976
   34      C      -3.5625443163    -2.0028803696     0.8268176023
   35      C      -4.9716782417    -2.6412606767     0.5152563721
   36      C      -5.1423428007    -2.2642341602    -1.0037715475
   37      C      -3.7841667845    -1.5075874087    -1.2875335132
   38      O      -2.8064010805    -2.2115117809    -0.4294587956
   39      H      -4.6594758178    -0.1532593681     1.4361339794
   40      H      -4.8492079026     0.4165946468    -0.8284343714
   41      H      -1.7813562744     2.0576519150     3.4402421176
   42      H      -3.0126150654    -2.4324739257     1.6867645551
   43      H      -4.9397848834    -3.7330411663     0.6585483145
   44      H      -5.7685519658    -2.2237306665     1.1510381944
   45      H      -5.2210025313    -3.1619525147    -1.6371907662
   46      H      -6.0195347345    -1.6234479215    -1.1874577409
   47      H      -3.4503006030    -1.5165255983    -2.3430836133
   48      H      -1.8165444197     3.4153641528     2.2485680934
   49      H      -0.5631560149     2.1113987776     2.0979411164
   50      H      -0.4459414039    -1.6801099791     1.2931261518
   51      H       0.1746931999    -2.6800899487    -0.0911739525
   52      H      -0.5429034538    -1.0416240152    -0.3857836108
   53      H       0.1163963201     3.0976472035    -1.3302636076
   54      H      -0.4229680972     2.0251291618     0.0144696804
   55      H      -0.9602340613     1.6444732067    -2.8352219899
   56      H       0.2631473862     0.3774473480    -2.3634405461
 ----------------------------------------------------------------

    9   -1510.3001557826      1.64E-09 Convergence criterion met
 Total energy in the final basis set = -1510.30015578
 Final energy is   -1510.30015578258
 **  OPTIMIZATION CONVERGED  **

                    Orbital Energies (a.u.)
 --------------------------------------------------------------

 Alpha MOs
 -- Occupied --
-18.942 -18.938 -18.933 -18.919 -18.890 -18.885 -18.884 -18.881
-18.876 -18.863 -10.108 -10.105 -10.100 -10.091 -10.072 -10.070
-10.063 -10.060 -10.059 -10.055 -10.044 -10.042 -10.040 -10.037
-10.032 -10.026 -10.022 -10.021 -10.019 -10.018  -1.020  -1.015
 -1.010  -0.997  -0.973  -0.968  -0.945  -0.940  -0.936  -0.925
 -0.766  -0.762  -0.729  -0.723  -0.711  -0.704  -0.695  -0.656
 -0.642  -0.616  -0.598  -0.583  -0.546  -0.543  -0.539  -0.535
 -0.514  -0.513  -0.485  -0.482  -0.465  -0.456  -0.447  -0.436
 -0.434  -0.429  -0.427  -0.422  -0.409  -0.404  -0.396  -0.395
 -0.390  -0.377  -0.373  -0.365  -0.362  -0.356  -0.353  -0.346
 -0.344  -0.334  -0.333  -0.331  -0.329  -0.327  -0.323  -0.311
 -0.308  -0.307  -0.303  -0.296  -0.295  -0.289  -0.286  -0.278
 -0.271  -0.255  -0.253  -0.245  -0.241  -0.232  -0.231  -0.191
 -0.178  -0.174  -0.163  -0.160  -0.158  -0.153  -0.145  -0.143
 -0.141

          Ground-State Mulliken Net Atomic Charges

     Atom                 Charge (a.u.)
  ----------------------------------------
      1 O                    -0.212298
      2 C                     0.208992
      3 C                    -0.078938
      4 C                    -0.079053
      5 C                     0.212002
      6 O                    -0.170440
      7 C                    -0.053128
      8 C                    -0.053166
      9 O                    -0.168209
     10 C                     0.222147
     11 C                    -0.076598
     12 C                    -0.078052
     13 C                     0.212529
     14 O                    -0.220228
     15 O                    -0.173874
     16 O                    -0.178463
     17 O                    -0.214860
     18 C                    -0.149799
     19 C                     0.025617
     20 C                    -0.144196
     21 C                    -0.143360
     22 C                     0.024096
     23 O                    -0.186076
     24 H                     0.086907
     25 H                     0.083978
     26 H                     0.081357
     27 H                     0.077624
     28 H                     0.073720
     29 H                     0.077664
     30 H                     0.073320
     31 H                     0.089594
     32 O                    -0.208216
     33 C                    -0.146826
     34 C                     0.023238
     35 C                    -0.143836
     36 C                    -0.144128
     37 C                     0.026407
     38 O                    -0.187709
     39 H                     0.085510
     40 H                     0.086739
     41 H                     0.083734
     42 H                     0.089884
     43 H                     0.078676
     44 H                     0.073530
     45 H                     0.078694
     46 H                     0.073790
     47 H                     0.085230
     48 H                     0.084961
     49 H                     0.113809
     50 H                     0.095059
     51 H                     0.079481
     52 H                     0.107351
     53 H                     0.090380
     54 H                     0.100159
     55 H                     0.093046
     56 H                     0.112229
  ----------------------------------------
  Sum of atomic charges =     0.000000

                    Cartesian Multipole Moments
 -----------------------------------------------------------------
    Charge (ESU x 10^10)
                 0.0000
    Dipole Moment (Debye)
         X      -0.6574      Y      -0.1194      Z       0.6547
       Tot       0.9355
    Quadrupole Moments (Debye-Ang)
        XX    -136.1717     XY       6.2130     YY    -160.5582
        XZ       2.8641     YZ       1.5581     ZZ    -164.4177

 Total job time:  152.97s(wall), 7288.92s(cpu)
        *  Thank you very much for using Q-Chem.  Have a nice day.  *
