 Q-Chem 5.0, Q-Chem, Inc., Pleasanton, CA (2017)
 Q-Chem 5.0.1 for Intel X86 EM64T Linux

User input:
--------------------------------------------------------------
$molecule
0  1
O -3.94934 -3.66094 2.70899
C -3.26408 -4.56952 2.26188
C -3.36658 -6.02376 2.66595
C -4.60334 -6.80088 2.18598
C -5.5105 -6.08749 1.20811
O -5.91889 -6.95555 0.23593
C -7.06644 -6.49434 -0.48495
C -8.33522 -6.76795 0.31596
O -8.54006 -5.72343 1.28027
C -9.45788 -5.98989 2.24243
C -10.24583 -7.24936 1.97128
C -10.78793 -7.95575 3.22245
C -10.77884 -7.13863 4.49875
O -11.72815 -6.51096 4.94529
O -2.29686 -4.24954 1.35995
O -9.5774 -7.04359 5.12712
O -9.84846 -5.09007 2.97032
C -9.35615 -6.31268 6.27537
C -11.57677 -6.93334 1.23452
C -12.05833 -8.1623 0.46295
C -12.43141 -9.07764 1.61254
C -12.26762 -8.10854 2.79301
O -12.54541 -6.84529 2.24594
H -9.82129 -8.11986 1.45491
H -10.32739 -8.94363 3.45288
H -11.50925 -6.05524 0.55521
H -12.98801 -7.85584 -0.06889
H -11.3455 -8.59282 -0.27293
H -13.49012 -9.39173 1.47893
H -11.77829 -9.96765 1.74314
H -12.91701 -8.42232 3.64054
O -6.02042 -4.99683 1.43279
C -2.05904 -2.97574 0.88742
C -2.24472 -6.92144 2.08335
C -2.03074 -8.13541 2.98373
C -3.29251 -8.91687 2.70259
C -3.91136 -8.05547 1.59463
O -2.80586 -7.49906 0.93047
H -3.25894 -6.03056 3.77412
H -5.25741 -7.05338 3.04986
H -1.78625 -2.30057 1.72645
H -1.27247 -6.40027 1.94671
H -1.1651 -8.69839 2.56563
H -1.83688 -7.91412 4.0553
H -3.00344 -9.91917 2.31477
H -3.98479 -9.02871 3.56507
H -4.57714 -8.70119 0.98396
H -2.96102 -2.58609 0.36872
H -1.21733 -3.007 0.16563
H -8.29108 -6.41107 6.56936
H -9.99282 -6.69578 7.10133
H -9.5796 -5.23944 6.09491
H -9.19851 -6.79693 -0.38766
H -8.05379 -7.75167 0.75361
H -7.12808 -7.15585 -1.37619
H -6.98152 -5.45509 -0.87561
$end

$opt
CONSTRAINT
tors           1           2           3           4     +71.887
tors           3           4           5           6    +138.705
tors           4           5           6           7    +162.483
tors           5           6           7           8     -80.221
tors           6           7           8           9     +83.042
tors           7           8           9          10    -166.203
tors           8           9          10          11      -9.474
tors           9          10          11          12    +152.843
tors          11          12          13          14     +96.479
ENDCONSTRAINT
$end

$rem
JOBTYPE                   OPT
METHOD                    B3LYP
DFT_D                     d3_op
BASIS                     STO-3G
GEOM_OPT_MAX_CYCLES       100
GEOM_OPT_TOL_GRADIENT     300
GEOM_OPT_TOL_DISPLACEMENT 1200
GEOM_OPT_TOL_ENERGY       100
SYMMETRY                  False
THRESH                    12
SCF_CONVERGENCE           8
MAX_SUB_FILE_NUM          128
MEM_STATIC                400
MEM_TOTAL                 4000
$end
--------------------------------------------------------------

   15   -1510.1132406176      8.87E-09 Convergence criterion met
 Total energy in the final basis set = -1510.11324062
   14   -1510.1864851725      9.40E-09 Convergence criterion met
 Total energy in the final basis set = -1510.18648517
   15   -1510.2261118455      1.79E-09 Convergence criterion met
 Total energy in the final basis set = -1510.22611185
   14   -1510.2473663750      8.07E-09 Convergence criterion met
 Total energy in the final basis set = -1510.24736637
   14   -1510.2563006184      4.48E-09 Convergence criterion met
 Total energy in the final basis set = -1510.25630062
   13   -1510.2603378299      6.39E-09 Convergence criterion met
 Total energy in the final basis set = -1510.26033783
   13   -1510.2621985970      3.72E-09 Convergence criterion met
 Total energy in the final basis set = -1510.26219860
   13   -1510.2628351975      1.99E-09 Convergence criterion met
   10   -1510.2638144191      9.20E-09 Convergence criterion met
 Total energy in the final basis set = -1510.26381442
   11   -1510.2638282845      5.97E-09 Convergence criterion met
 Total energy in the final basis set = -1510.26382828
   10   -1510.2638411925      7.54E-09 Convergence criterion met
 Total energy in the final basis set = -1510.26384119
   10   -1510.2638478565      7.99E-09 Convergence criterion met
 Total energy in the final basis set = -1510.26384786
    9   -1510.2638518744      8.58E-09 Convergence criterion met
 Total energy in the final basis set = -1510.26385187
    9   -1510.2638538857      5.58E-09 Convergence criterion met
 Total energy in the final basis set = -1510.26385389

             Standard Nuclear Orientation (Angstroms)
    I     Atom           X                Y                Z
 ----------------------------------------------------------------
    1      O      -3.2726027214     1.7618334200     1.8892774787
    2      C      -3.9937118783     1.0918851343     1.1190902602
    3      C      -3.8663438932     1.0128118119    -0.4449986026
    4      C      -2.6088878265     0.1985037172    -0.9738836621
    5      C      -2.0104184407    -0.7919430665     0.0980848759
    6      O      -1.6612027586    -2.0339011433    -0.5453631095
    7      C      -0.7343338478    -2.8154095082     0.3013631648
    8      C       0.7410145248    -2.2893097413     0.1624355475
    9      O       0.8697202662    -1.1351821531     1.0760344053
   10      C       2.0289615561    -0.3015428819     0.9004034328
   11      C       3.1876851278    -0.7572517398    -0.0616666875
   12      C       4.0033519745     0.4562094507    -0.6754291459
   13      C       3.6394895919     1.8598713125    -0.0589591267
   14      O       4.2333436313     2.4660592921     0.8566499829
   15      O      -5.0388596535     0.2172914216     1.5588636345
   16      O       2.4936133672     2.3604672320    -0.7628520619
   17      O       2.0541369317     0.7576632212     1.5666834639
   18      C       2.0265509650     3.6133559391    -0.1281225036
   19      C       4.3417869953    -1.5484792443     0.7041313413
   20      C       5.1594887613    -2.3573960448    -0.3785635331
   21      C       5.9485858583    -1.1934536380    -1.0856419319
   22      C       5.4759193520     0.0579045020    -0.2443628575
   23      O       5.2809714118    -0.4875470792     1.1210089460
   24      H       2.7880164486    -1.3774513285    -0.8781636083
   25      H       3.8743115139     0.5005191765    -1.7713510322
   26      H       4.0017010104    -2.1351364685     1.5799748946
   27      H       5.8430375754    -3.0689316427     0.1116585889
   28      H       4.5055233489    -2.9132793746    -1.0694008408
   29      H       7.0377447428    -1.3308537947    -0.9956875276
   30      H       5.6923245822    -1.0943999116    -2.1526486431
   31      H       6.1839784625     0.9082525209    -0.2161838027
   32      O      -1.8733189499    -0.5906076249     1.3221920248
   33      C      -5.1002558812     0.2154665115     3.0381157019
   34      C      -5.0496592864     0.2986705447    -1.2309646517
   35      C      -5.0984119326     0.9369640198    -2.6726739021
   36      C      -3.7673866158     0.3638594011    -3.2880892610
   37      C      -3.2923758632    -0.6220344177    -2.1465154107
   38      O      -4.5498900839    -1.0697293424    -1.5003347028
   39      H      -3.7722098325     2.0591814759    -0.7906210045
   40      H      -1.8011394280     0.8696311389    -1.3206954100
   41      H      -5.3795909289     1.2119882807     3.4377178606
   42      H      -6.0109313882     0.2618350434    -0.6840460688
   43      H      -5.9818762146     0.5724182445    -3.2210675716
   44      H      -5.1235915669     2.0380875743    -2.6502418368
   45      H      -3.9537963241    -0.1860491603    -4.2239987837
   46      H      -3.0205290000     1.1498769517    -3.4841175223
   47      H      -2.6994239739    -1.4926981324    -2.4839135224
   48      H      -4.1281436992    -0.0816859578     3.4818396146
   49      H      -5.8770587698    -0.5224606891     3.3107376193
   50      H       1.1600296734     3.9558405561    -0.7231676599
   51      H       2.8137023848     4.3948773332    -0.1336537253
   52      H       1.7111297211     3.4349022671     0.9204815987
   53      H       1.4543604692    -3.1001727777     0.4340292877
   54      H       0.9115221039    -2.0102682210    -0.8995200375
   55      H      -0.7924596011    -3.8597143971    -0.0668023640
   56      H      -1.0386996660    -2.7743489198     1.3696024897
 ----------------------------------------------------------------

    9   -1510.2638542878      3.54E-09 Convergence criterion met
 Total energy in the final basis set = -1510.26385429
 Final energy is   -1510.26385428783
 **  OPTIMIZATION CONVERGED  **

                    Orbital Energies (a.u.)
 --------------------------------------------------------------

 Alpha MOs
 -- Occupied --
-18.938 -18.933 -18.926 -18.919 -18.892 -18.884 -18.883 -18.882
-18.865 -18.862 -10.105 -10.101 -10.091 -10.089 -10.087 -10.081
-10.067 -10.060 -10.056 -10.056 -10.055 -10.052 -10.042 -10.039
-10.036 -10.032 -10.026 -10.023 -10.020 -10.018  -1.017  -1.009
 -1.001  -0.997  -0.973  -0.967  -0.944  -0.938  -0.926  -0.924
 -0.765  -0.761  -0.728  -0.725  -0.715  -0.708  -0.700  -0.654
 -0.654  -0.616  -0.602  -0.585  -0.551  -0.543  -0.541  -0.536
 -0.517  -0.511  -0.492  -0.476  -0.463  -0.460  -0.456  -0.440
 -0.439  -0.433  -0.431  -0.416  -0.410  -0.404  -0.402  -0.401
 -0.398  -0.388  -0.374  -0.367  -0.359  -0.352  -0.351  -0.349
 -0.338  -0.335  -0.332  -0.330  -0.329  -0.326  -0.320  -0.313
 -0.311  -0.308  -0.306  -0.304  -0.293  -0.281  -0.277  -0.276
 -0.274  -0.256  -0.250  -0.244  -0.244  -0.237  -0.230  -0.185
 -0.172  -0.170  -0.165  -0.155  -0.151  -0.147  -0.144  -0.140
 -0.138

          Ground-State Mulliken Net Atomic Charges

     Atom                 Charge (a.u.)
  ----------------------------------------
      1 O                    -0.207688
      2 C                     0.209985
      3 C                    -0.081202
      4 C                    -0.075723
      5 C                     0.212957
      6 O                    -0.176242
      7 C                    -0.047743
      8 C                    -0.048313
      9 O                    -0.166991
     10 C                     0.210183
     11 C                    -0.085705
     12 C                    -0.079421
     13 C                     0.215165
     14 O                    -0.208469
     15 O                    -0.171187
     16 O                    -0.178509
     17 O                    -0.191295
     18 C                    -0.129245
     19 C                     0.024588
     20 C                    -0.143411
     21 C                    -0.145048
     22 C                     0.026219
     23 O                    -0.182589
     24 H                     0.076388
     25 H                     0.082141
     26 H                     0.082456
     27 H                     0.079045
     28 H                     0.070118
     29 H                     0.079195
     30 H                     0.072934
     31 H                     0.089060
     32 O                    -0.196059
     33 C                    -0.128390
     34 C                     0.023294
     35 C                    -0.142567
     36 C                    -0.145864
     37 C                     0.022107
     38 O                    -0.191274
     39 H                     0.081594
     40 H                     0.086898
     41 H                     0.086367
     42 H                     0.090218
     43 H                     0.077070
     44 H                     0.072890
     45 H                     0.076888
     46 H                     0.072301
     47 H                     0.090412
     48 H                     0.094971
     49 H                     0.088320
     50 H                     0.085280
     51 H                     0.086487
     52 H                     0.097383
     53 H                     0.081678
     54 H                     0.083708
     55 H                     0.090442
     56 H                     0.104192
  ----------------------------------------
  Sum of atomic charges =    -0.000000

                    Cartesian Multipole Moments
 -----------------------------------------------------------------
    Charge (ESU x 10^10)
                 0.0000
    Dipole Moment (Debye)
         X      -0.3015      Y      -2.6360      Z      -4.3655
       Tot       5.1085
    Quadrupole Moments (Debye-Ang)
        XX    -159.9976     XY     -15.5117     YY    -151.9271
        XZ     -12.3043     YZ      -7.8929     ZZ    -160.9619

 Total job time:  65.57s(wall), 3118.48s(cpu)
        *  Thank you very much for using Q-Chem.  Have a nice day.  *
