 Q-Chem 5.0, Q-Chem, Inc., Pleasanton, CA (2017)
 Q-Chem 5.0.1 for Intel X86 EM64T Linux

User input:
--------------------------------------------------------------
$molecule
0  1
O -3.2726027214 1.76183342 1.8892774787
C -3.9937118783 1.0918851343 1.1190902602
C -3.8663438932 1.0128118119 -0.4449986026
C -2.6088878265 0.1985037172 -0.9738836621
C -2.0104184407 -0.7919430665 0.0980848759
O -1.6612027586 -2.0339011433 -0.5453631095
C -0.7343338478 -2.8154095082 0.3013631648
C 0.7410145248 -2.2893097413 0.1624355475
O 0.8697202662 -1.1351821531 1.0760344053
C 2.0289615561 -0.3015428819 0.9004034328
C 3.1876851278 -0.7572517398 -0.0616666875
C 4.0033519745 0.4562094507 -0.6754291459
C 3.6394895919 1.8598713125 -0.0589591267
O 4.2333436313 2.4660592921 0.8566499829
O -5.0388596535 0.2172914216 1.5588636345
O 2.4936133672 2.360467232 -0.7628520619
O 2.0541369317 0.7576632212 1.5666834639
C 2.026550965 3.6133559391 -0.1281225036
C 4.3417869953 -1.5484792443 0.7041313413
C 5.1594887613 -2.3573960448 -0.3785635331
C 5.9485858583 -1.193453638 -1.0856419319
C 5.475919352 0.057904502 -0.2443628575
O 5.2809714118 -0.4875470792 1.121008946
H 2.7880164486 -1.3774513285 -0.8781636083
H 3.8743115139 0.5005191765 -1.7713510322
H 4.0017010104 -2.1351364685 1.5799748946
H 5.8430375754 -3.0689316427 0.1116585889
H 4.5055233489 -2.9132793746 -1.0694008408
H 7.0377447428 -1.3308537947 -0.9956875276
H 5.6923245822 -1.0943999116 -2.1526486431
H 6.1839784625 0.9082525209 -0.2161838027
O -1.8733189499 -0.5906076249 1.3221920248
C -5.1002558812 0.2154665115 3.0381157019
C -5.0496592864 0.2986705447 -1.2309646517
C -5.0984119326 0.9369640198 -2.6726739021
C -3.7673866158 0.3638594011 -3.288089261
C -3.2923758632 -0.6220344177 -2.1465154107
O -4.5498900839 -1.0697293424 -1.5003347028
H -3.7722098325 2.0591814759 -0.7906210045
H -1.801139428 0.8696311389 -1.32069541
H -5.3795909289 1.2119882807 3.4377178606
H -6.0109313882 0.2618350434 -0.6840460688
H -5.9818762146 0.5724182445 -3.2210675716
H -5.1235915669 2.0380875743 -2.6502418368
H -3.9537963241 -0.1860491603 -4.2239987837
H -3.020529 1.1498769517 -3.4841175223
H -2.6994239739 -1.4926981324 -2.4839135224
H -4.1281436992 -0.0816859578 3.4818396146
H -5.8770587698 -0.5224606891 3.3107376193
H 1.1600296734 3.9558405561 -0.7231676599
H 2.8137023848 4.3948773332 -0.1336537253
H 1.7111297211 3.4349022671 0.9204815987
H 1.4543604692 -3.1001727777 0.4340292877
H 0.9115221039 -2.010268221 -0.8995200375
H -0.7924596011 -3.8597143971 -0.066802364
H -1.038699666 -2.7743489198 1.3696024897
$end

$rem
JOBTYPE                   OPT
METHOD                    B3LYP
DFT_D                     d3_op
BASIS                     STO-3G
GEOM_OPT_MAX_CYCLES       100
GEOM_OPT_TOL_GRADIENT     300
GEOM_OPT_TOL_DISPLACEMENT 1200
GEOM_OPT_TOL_ENERGY       100
SYMMETRY                  False
THRESH                    12
SCF_CONVERGENCE           8
MAX_SUB_FILE_NUM          128
MEM_STATIC                400
MEM_TOTAL                 4000
$end
--------------------------------------------------------------

   16   -1510.2637556083      6.47E-09 Convergence criterion met
 Total energy in the final basis set = -1510.26375561
   13   -1510.2663638143      5.67E-09 Convergence criterion met
 Total energy in the final basis set = -1510.26636381
   13   -1510.2687080346      6.96E-09 Convergence criterion met
 Total energy in the final basis set = -1510.26870803
   14   -1510.2706620874      1.56E-09 Convergence criterion met
 Total energy in the final basis set = -1510.27066209
   13   -1510.2721260525      5.39E-09 Convergence criterion met
 Total energy in the final basis set = -1510.27212605
   14   -1510.2732384374      1.32E-09 Convergence criterion met
 Total energy in the final basis set = -1510.27323844
   13   -1510.2740122680      4.58E-09 Convergence criterion met
 Total energy in the final basis set = -1510.27401227
   13   -1510.2745604819      7.55E-09 Convergence criterion met
   11   -1510.2756266748      6.02E-09 Convergence criterion met
 Total energy in the final basis set = -1510.27562667
   11   -1510.2756098485      5.57E-09 Convergence criterion met
 Total energy in the final basis set = -1510.27560985
   10   -1510.2756178959      7.86E-09 Convergence criterion met
 Total energy in the final basis set = -1510.27561790
   11   -1510.2756023383      5.44E-09 Convergence criterion met
 Total energy in the final basis set = -1510.27560234
   10   -1510.2755979657      9.13E-09 Convergence criterion met
 Total energy in the final basis set = -1510.27559797
    9   -1510.2756002560      7.85E-09 Convergence criterion met
 Total energy in the final basis set = -1510.27560026

             Standard Nuclear Orientation (Angstroms)
    I     Atom           X                Y                Z
 ----------------------------------------------------------------
    1      O       3.8038085410    -1.2756927182     2.5918715731
    2      C       4.1362629228    -0.5363506376     1.6406645692
    3      C       4.0517728637    -0.8831271808     0.1094187225
    4      C       2.9588885983    -0.0614866484    -0.6915257690
    5      C       2.1366608438     0.9163165834     0.2112407565
    6      O       1.4883724906     1.8897563001    -0.6215571046
    7      C       0.5168914592     2.6636677176     0.1846804087
    8      C      -0.9198720876     2.0824663119    -0.0626405737
    9      O      -0.7905462480     0.6279004244     0.1815666629
   10      C      -1.9642543680    -0.1539345418    -0.0811686169
   11      C      -3.3490701773     0.5720495885    -0.2608281619
   12      C      -4.4700906114    -0.4050501779    -0.8044580965
   13      C      -3.9682184391    -1.8491608990    -1.1837203924
   14      O      -4.2710796440    -2.9250213206    -0.6271135893
   15      O       4.7687811197     0.7420229864     1.7913783760
   16      O      -3.2242468819    -1.7435831307    -2.4088412124
   17      O      -1.8247562746    -1.3987536930    -0.0765983935
   18      C      -2.6976096992    -3.0730733832    -2.7868811281
   19      C      -3.9577098034     0.9457538800     1.1657127404
   20      C      -5.1869205527     1.9153978641     0.9450934472
   21      C      -6.2863476977     0.9035766913     0.4478020785
   22      C      -5.4679073546    -0.4452799740     0.4249649384
   23      O      -4.5759825572    -0.3226969223     1.6028978401
   24      H      -3.2491906570     1.4578809116    -0.9092653990
   25      H      -4.9486599017     0.0316382852    -1.6997923858
   26      H      -3.2136035455     1.2874802048     1.9115523606
   27      H      -5.4747669671     2.3952083739     1.8939226602
   28      H      -4.9656530237     2.7000922648     0.2039811657
   29      H      -7.1222938937     0.8363537738     1.1621880511
   30      H      -6.6885352939     1.1649677354    -0.5440382597
   31      H      -6.0625437472    -1.3770284756     0.4906644144
   32      O       2.0276116530     0.8782818317     1.4570439615
   33      C       4.8044505258     1.1121970732     3.2227933296
   34      C       5.3647757280    -0.4636010475    -0.6824238978
   35      C       5.3620951176    -1.2124857597    -2.0749842925
   36      C       4.2781296543    -0.3865624911    -2.8628214914
   37      C       3.8565198724     0.6766895009    -1.7734720528
   38      O       5.1160105109     0.9501889810    -1.0473787369
   39      H       3.8584625222    -1.9673762433     0.0313300307
   40      H       2.2330160129    -0.7383085657    -1.1803127783
   41      H       5.3397718643     0.3544130018     3.8308550611
   42      H       6.3015144827    -0.5529765761    -0.0994438595
   43      H       6.3515635776    -1.1424076875    -2.5541515075
   44      H       5.0940421553    -2.2759242001    -1.9709388039
   45      H       4.7114330083     0.1146570058    -3.7430509478
   46      H       3.4260786756    -1.0035453719    -3.1901182788
   47      H       3.4142820428     1.6134950461    -2.1638967982
   48      H       3.7798673569     1.2317299348     3.6314433322
   49      H       5.3401589334     2.0777062730     3.2769852153
   50      H      -2.1574687257    -2.9305001860    -3.7411007450
   51      H      -3.5123103545    -3.8126230632    -2.9287986256
   52      H      -1.9982600915    -3.4618750032    -2.0184659900
   53      H      -1.6454591899     2.5653395945     0.6280635500
   54      H      -1.2323335317     2.2867741707    -1.1097363007
   55      H       0.5639556041     3.7229209976    -0.1405068239
   56      H       0.7851935280     2.5712545979     1.2591803167
 ----------------------------------------------------------------

    9   -1510.2755996073      2.84E-09 Convergence criterion met
 Total energy in the final basis set = -1510.27559961
 Final energy is   -1510.27559960735
 **  OPTIMIZATION CONVERGED  **

                    Orbital Energies (a.u.)
 --------------------------------------------------------------

 Alpha MOs
 -- Occupied --
-18.944 -18.939 -18.918 -18.917 -18.892 -18.888 -18.885 -18.885
-18.861 -18.856 -10.110 -10.106 -10.091 -10.090 -10.085 -10.081
-10.069 -10.060 -10.058 -10.056 -10.054 -10.050 -10.045 -10.038
-10.036 -10.029 -10.027 -10.024 -10.018 -10.017  -1.023  -1.013
 -0.997  -0.994  -0.975  -0.967  -0.950  -0.940  -0.924  -0.920
 -0.767  -0.760  -0.729  -0.726  -0.716  -0.709  -0.700  -0.655
 -0.649  -0.616  -0.604  -0.584  -0.551  -0.542  -0.542  -0.535
 -0.519  -0.511  -0.492  -0.482  -0.464  -0.461  -0.458  -0.442
 -0.437  -0.430  -0.425  -0.417  -0.409  -0.404  -0.404  -0.399
 -0.398  -0.396  -0.377  -0.363  -0.361  -0.354  -0.351  -0.349
 -0.339  -0.335  -0.332  -0.330  -0.327  -0.324  -0.321  -0.316
 -0.314  -0.311  -0.306  -0.302  -0.294  -0.281  -0.279  -0.275
 -0.271  -0.255  -0.254  -0.244  -0.239  -0.239  -0.231  -0.184
 -0.182  -0.164  -0.161  -0.160  -0.157  -0.149  -0.141  -0.141
 -0.136

          Ground-State Mulliken Net Atomic Charges

     Atom                 Charge (a.u.)
  ----------------------------------------
      1 O                    -0.216376
      2 C                     0.213225
      3 C                    -0.080776
      4 C                    -0.077274
      5 C                     0.223840
      6 O                    -0.172185
      7 C                    -0.050685
      8 C                    -0.045952
      9 O                    -0.170073
     10 C                     0.216144
     11 C                    -0.084396
     12 C                    -0.080176
     13 C                     0.217346
     14 O                    -0.214887
     15 O                    -0.171679
     16 O                    -0.179519
     17 O                    -0.190677
     18 C                    -0.128719
     19 C                     0.023349
     20 C                    -0.144485
     21 C                    -0.143730
     22 C                     0.025042
     23 O                    -0.185252
     24 H                     0.079042
     25 H                     0.082510
     26 H                     0.080762
     27 H                     0.079155
     28 H                     0.070920
     29 H                     0.079467
     30 H                     0.073674
     31 H                     0.092400
     32 O                    -0.205274
     33 C                    -0.128055
     34 C                     0.026466
     35 C                    -0.144317
     36 C                    -0.143716
     37 C                     0.024430
     38 O                    -0.187380
     39 H                     0.084488
     40 H                     0.090284
     41 H                     0.086219
     42 H                     0.084532
     43 H                     0.077075
     44 H                     0.074010
     45 H                     0.077026
     46 H                     0.073379
     47 H                     0.087940
     48 H                     0.090448
     49 H                     0.086389
     50 H                     0.084985
     51 H                     0.086355
     52 H                     0.093011
     53 H                     0.083219
     54 H                     0.083861
     55 H                     0.089165
     56 H                     0.105425
  ----------------------------------------
  Sum of atomic charges =     0.000000

                    Cartesian Multipole Moments
 -----------------------------------------------------------------
    Charge (ESU x 10^10)
                -0.0000
    Dipole Moment (Debye)
         X      -1.3544      Y       4.0642      Z      -3.0768
       Tot       5.2744
    Quadrupole Moments (Debye-Ang)
        XX    -154.7570     XY     -16.8289     YY    -157.3642
        XZ       1.7478     YZ      10.5361     ZZ    -159.1876

 Total job time:  78.35s(wall), 3734.05s(cpu)
        *  Thank you very much for using Q-Chem.  Have a nice day.  *
