 Q-Chem 5.0, Q-Chem, Inc., Pleasanton, CA (2017)
 Q-Chem 5.0.1 for Intel X86 EM64T Linux

User input:
--------------------------------------------------------------
$molecule
0  1
O -2.9548931998 1.5466229652 2.1377311883
C -3.084725737 1.6735680274 0.9028866093
C -4.286163686 1.1975522146 0.0028979207
C -4.0457239825 -0.2022060896 -0.7025257813
C -2.6021236654 -0.7647732773 -0.4848931513
O -2.3083873715 -1.6373700221 -1.5743574541
C -0.9584659542 -2.2674269368 -1.5263667087
C 0.2086858761 -1.3112264427 -1.0759670525
O 1.4445000027 -2.1223090374 -1.0958587358
C 2.407564723 -1.6930195552 -0.0918146691
C 2.6910805718 -0.1406894937 -0.1033048942
C 3.7070459597 0.5192986811 0.9112895592
C 5.0667088195 -0.2051170916 1.2749046763
O 6.0358318878 0.3737665137 1.817722818
O -2.1202791856 2.3063732487 0.0453007992
O 5.1395204182 -1.5254734129 0.750246528
O 2.9287645562 -2.5690809645 0.6249215776
C 6.4762311298 -2.1047708498 1.0219934905
C 3.137318785 0.5181670996 -1.4912430417
C 2.3356760343 1.8721860895 -1.6031031003
C 2.9872986284 2.6757148389 -0.4155740786
C 4.18786822 1.7296914943 -0.0094152951
O 4.5186591458 0.9953485408 -1.2594733574
H 1.7126662246 0.3057303919 0.1524280399
H 3.2040845208 0.8466117716 1.8391402307
H 3.089420389 -0.1524955653 -2.3710350702
H 2.5334421508 2.3569679806 -2.5728057962
H 1.2481729268 1.7377738214 -1.486919304
H 3.36178593 3.6580284673 -0.7434826034
H 2.2891068766 2.8283579427 0.4232849739
H 5.0840622462 2.2459481017 0.3862205172
O -1.862328952 -0.526204543 0.4989300204
C -0.9127331685 2.6579102438 0.8240819642
C -5.5356496695 0.8527319628 0.9167994424
C -6.8127377263 0.6872962219 0.0017422694
C -6.5539686865 -0.7300290084 -0.6321773207
C -5.1584140854 -1.0962036891 0.0087198806
O -5.2433598165 -0.5286358419 1.3703969622
H -4.5069339543 1.9822585599 -0.7422790136
H -4.2293159897 -0.1451685165 -1.7900860269
H -0.4175452955 1.7498847577 1.2268689986
H -5.6553212878 1.5230732293 1.7895166645
H -7.7298703179 0.6965543524 0.611580408
H -6.8842527089 1.4842115142 -0.7558135616
H -7.3189901748 -1.4582571332 -0.3182774908
H -6.5163962197 -0.7082994822 -1.7329892746
H -4.9246300506 -2.178013051 0.0469481355
H -1.1490685945 3.3329956872 1.671692098
H -0.2313098365 3.1719769941 0.1211823288
H 6.458909872 -3.1169453195 0.578029345
H 6.6748824625 -2.179659081 2.1103458285
H 7.2831302093 -1.5036674809 0.5552640928
H 0.2705567057 -0.4510013824 -1.7799391551
H -0.0656019437 -0.9283796009 -0.0711059838
H -0.7803411288 -2.6439455657 -2.5540101491
H -0.9842228839 -3.1379286262 -0.8337510352
$end

$rem
JOBTYPE                   OPT
METHOD                    B3LYP
DFT_D                     d3_op
BASIS                     STO-3G
GEOM_OPT_MAX_CYCLES       100
GEOM_OPT_TOL_GRADIENT     300
GEOM_OPT_TOL_DISPLACEMENT 1200
GEOM_OPT_TOL_ENERGY       100
SYMMETRY                  False
THRESH                    12
SCF_CONVERGENCE           8
MAX_SUB_FILE_NUM          128
MEM_STATIC                400
MEM_TOTAL                 4000
$end
--------------------------------------------------------------

   16   -1510.2491119956      4.64E-09 Convergence criterion met
 Total energy in the final basis set = -1510.24911200
   14   -1510.2527173833      5.55E-09 Convergence criterion met
 Total energy in the final basis set = -1510.25271738
   14   -1510.2546995588      2.36E-09 Convergence criterion met
 Total energy in the final basis set = -1510.25469956
   13   -1510.2576278065      5.66E-09 Convergence criterion met
 Total energy in the final basis set = -1510.25762781
   13   -1510.2599046615      4.12E-09 Convergence criterion met
 Total energy in the final basis set = -1510.25990466
   13   -1510.2621287837      6.01E-09 Convergence criterion met
 Total energy in the final basis set = -1510.26212878
   13   -1510.2639853455      4.63E-09 Convergence criterion met
 Total energy in the final basis set = -1510.26398535
   13   -1510.2658706075      4.67E-09 Convergence criterion met
   10   -1510.2837429291      6.50E-09 Convergence criterion met
 Total energy in the final basis set = -1510.28374293
    9   -1510.2837432416      7.85E-09 Convergence criterion met
 Total energy in the final basis set = -1510.28374324
    9   -1510.2837415602      3.59E-09 Convergence criterion met
 Total energy in the final basis set = -1510.28374156
    9   -1510.2837400559      6.20E-09 Convergence criterion met
 Total energy in the final basis set = -1510.28374006
    9   -1510.2837380007      4.80E-09 Convergence criterion met
 Total energy in the final basis set = -1510.28373800
    9   -1510.2837357357      8.69E-09 Convergence criterion met
 Total energy in the final basis set = -1510.28373574

             Standard Nuclear Orientation (Angstroms)
    I     Atom           X                Y                Z
 ----------------------------------------------------------------
    1      O      -2.4624649356     1.4929975429     2.2914488423
    2      C      -2.4472689215     1.7493772124     1.0687228529
    3      C      -3.4787916749     1.2655780263    -0.0147987690
    4      C      -3.1666577602    -0.1734566903    -0.6049096847
    5      C      -1.8473778678    -0.7955055552    -0.0392726336
    6      O      -1.8892262540    -2.2125830254    -0.1739702821
    7      C      -0.6091618911    -2.8236226012     0.2655938802
    8      C       0.3924538990    -2.9040003491    -0.9562458922
    9      O       1.7832721308    -3.1362343710    -0.5238225597
   10      C       2.5043643626    -1.9721682720    -0.0647556093
   11      C       1.9228900846    -0.5384703349    -0.3340373593
   12      C       2.8044278446     0.6080442874     0.3183041168
   13      C       4.0615125985     0.1041316042     1.1258919250
   14      O       4.1182779863    -0.0787037789     2.3617766981
   15      O      -1.5100089679     2.6354406426     0.4400410723
   16      O       5.1901001124     0.0354444122     0.2429582923
   17      O       3.6018333576    -2.2007118435     0.4936076081
   18      C       6.3576786844    -0.5032765649     0.9725121499
   19      C       2.0023061073    -0.1231282189    -1.8721860434
   20      C       1.0502407344     1.1257866033    -2.0653107022
   21      C       1.9304547719     2.2696951432    -1.4420100698
   22      C       3.1977768701     1.4576486414    -0.9638857127
   23      O       3.3623352798     0.4330518096    -2.0202776217
   24      H       0.8771296376    -0.4675781743     0.0375724753
   25      H       2.1859891625     1.1991396353     1.0174047711
   26      H       1.8555270466    -0.9474832616    -2.5960134735
   27      H       0.8474057436     1.3032516392    -3.1334104225
   28      H       0.0931547812     1.0023319240    -1.5316821440
   29      H       2.2173215990     3.0164184849    -2.1995655698
   30      H       1.4267963457     2.7843529164    -0.6099195382
   31      H       4.1259438247     2.0497538721    -0.8525130759
   32      O      -0.8811748885    -0.1593596822     0.4516809297
   33      C      -0.5054365640     3.0728818339     1.4355112636
   34      C      -4.9068842300     1.0065693026     0.6323128552
   35      C      -5.9718073197     0.9041023856    -0.5296821771
   36      C      -5.6547269346    -0.5243482239    -1.1095732155
   37      C      -4.4672519182    -0.9758824653    -0.1722907823
   38      O      -4.8079113965    -0.3821337117     1.1392608228
   39      H      -3.5174399716     2.0189864410    -0.8210832034
   40      H      -3.0688989059    -0.1389187015    -1.7065530564
   41      H       0.1641864789     2.2347285650     1.7193451014
   42      H      -5.1659189662     1.6982281466     1.4569299056
   43      H      -6.9934843681     0.9566413156    -0.1212061585
   44      H      -5.8471206375     1.7043672407    -1.2763233143
   45      H      -6.5128733664    -1.2058910283    -0.9980178042
   46      H      -5.3590264157    -0.4979407673    -2.1705253260
   47      H      -4.3123040601    -2.0684636472    -0.0833773960
   48      H      -0.9843065334     3.4661406047     2.3549745644
   49      H       0.0847296803     3.8723366193     0.9510866842
   50      H       7.2020355930    -0.4817665541     0.2591402333
   51      H       6.1751835655    -1.5470680331     1.3008703888
   52      H       6.6054169405     0.1096545089     1.8634515157
   53      H       0.1338081142    -3.7784362189    -1.5873144646
   54      H       0.2743490611    -1.9917403694    -1.5739704484
   55      H      -0.8590638835    -3.8374747862     0.6347018311
   56      H      -0.1600906082    -2.2282762552     1.0886705298
 ----------------------------------------------------------------

    9   -1510.2837343228      3.78E-09 Convergence criterion met
 Total energy in the final basis set = -1510.28373432
 Final energy is   -1510.28373432279
 **  OPTIMIZATION CONVERGED  **

                    Orbital Energies (a.u.)
 --------------------------------------------------------------

 Alpha MOs
 -- Occupied --
-18.968 -18.940 -18.932 -18.912 -18.911 -18.897 -18.885 -18.885
-18.871 -18.848 -10.131 -10.104 -10.100 -10.091 -10.089 -10.082
-10.070 -10.067 -10.063 -10.060 -10.056 -10.054 -10.045 -10.044
-10.029 -10.027 -10.026 -10.025 -10.018 -10.016  -1.043  -1.013
 -1.009  -0.989  -0.979  -0.968  -0.967  -0.943  -0.934  -0.914
 -0.775  -0.757  -0.737  -0.724  -0.717  -0.709  -0.703  -0.665
 -0.644  -0.630  -0.600  -0.593  -0.556  -0.546  -0.543  -0.535
 -0.525  -0.514  -0.496  -0.483  -0.473  -0.465  -0.459  -0.453
 -0.440  -0.435  -0.431  -0.418  -0.413  -0.409  -0.404  -0.403
 -0.398  -0.393  -0.386  -0.375  -0.366  -0.360  -0.356  -0.347
 -0.342  -0.341  -0.335  -0.334  -0.330  -0.326  -0.324  -0.321
 -0.316  -0.313  -0.311  -0.306  -0.297  -0.289  -0.285  -0.276
 -0.272  -0.265  -0.255  -0.251  -0.243  -0.236  -0.230  -0.211
 -0.184  -0.176  -0.175  -0.155  -0.154  -0.152  -0.151  -0.141
 -0.130

          Ground-State Mulliken Net Atomic Charges

     Atom                 Charge (a.u.)
  ----------------------------------------
      1 O                    -0.213992
      2 C                     0.211691
      3 C                    -0.081103
      4 C                    -0.077667
      5 C                     0.220676
      6 O                    -0.164160
      7 C                    -0.053676
      8 C                    -0.050445
      9 O                    -0.168350
     10 C                     0.210124
     11 C                    -0.102250
     12 C                    -0.080460
     13 C                     0.213999
     14 O                    -0.224859
     15 O                    -0.172441
     16 O                    -0.171085
     17 O                    -0.190790
     18 C                    -0.127328
     19 C                     0.020137
     20 C                    -0.146532
     21 C                    -0.144149
     22 C                     0.026261
     23 O                    -0.186497
     24 H                     0.102661
     25 H                     0.079627
     26 H                     0.076224
     27 H                     0.073840
     28 H                     0.075756
     29 H                     0.075951
     30 H                     0.074376
     31 H                     0.087312
     32 O                    -0.210540
     33 C                    -0.128962
     34 C                     0.026229
     35 C                    -0.144208
     36 C                    -0.143731
     37 C                     0.024411
     38 O                    -0.186254
     39 H                     0.085946
     40 H                     0.087622
     41 H                     0.088994
     42 H                     0.088173
     43 H                     0.079924
     44 H                     0.074369
     45 H                     0.080115
     46 H                     0.073422
     47 H                     0.091160
     48 H                     0.092320
     49 H                     0.086984
     50 H                     0.085829
     51 H                     0.092432
     52 H                     0.084647
     53 H                     0.094284
     54 H                     0.084674
     55 H                     0.098667
     56 H                     0.100644
  ----------------------------------------
  Sum of atomic charges =    -0.000000

                    Cartesian Multipole Moments
 -----------------------------------------------------------------
    Charge (ESU x 10^10)
                -0.0000
    Dipole Moment (Debye)
         X      -4.0542      Y       1.1281      Z      -3.3919
       Tot       5.4050
    Quadrupole Moments (Debye-Ang)
        XX    -163.6055     XY       5.7785     YY    -154.3830
        XZ       8.6829     YZ       3.0551     ZZ    -168.8673

 Total job time:  132.44s(wall), 6320.16s(cpu)
        *  Thank you very much for using Q-Chem.  Have a nice day.  *
