 Q-Chem 5.0, Q-Chem, Inc., Pleasanton, CA (2017)
 Q-Chem 5.0.1 for Intel X86 EM64T Linux

User input:
--------------------------------------------------------------
$molecule
0  1
O -3.94934 -3.66094 2.70899
C -3.26408 -4.56952 2.26188
C -3.36658 -6.02376 2.66595
C -2.3791 -6.52839 3.73089
C -1.51749 -5.48159 4.40165
O -0.36565 -6.05374 4.86137
C 0.50541 -5.1221 5.51142
C 0.54298 -3.80895 4.73659
O 1.4181 -2.87826 5.39299
C 1.08253 -1.57078 5.26245
C 0.82145 -1.17056 3.82985
C 0.43724 0.30265 3.62906
C 0.71341 1.22318 4.80084
O 0.75287 2.44397 4.74921
O -2.38392 -4.31416 1.26975
O 1.02898 0.79437 6.0202
O 0.38658 -1.29916 6.23156
C 1.16955 1.43629 7.18659
C 2.00788 -1.28437 2.84907
C 1.4537 -1.4217 1.42138
C 0.94266 -0.01547 1.17862
C 1.3878 0.66696 2.47815
O 2.57703 0.00091 2.83057
H -0.02325 -1.75612 3.41893
H -0.63009 0.45028 3.35063
H 2.7048 -2.11662 3.08367
H 2.29611 -1.61926 0.72344
H 0.6889 -2.21845 1.29519
H 1.48379 0.4189 0.30935
H -0.15513 0.06174 1.00713
H 1.4783 1.76646 2.3327
O -2.08147 -4.49661 4.8622
C -2.1988 -3.05606 0.74752
C -4.70197 -6.35067 3.37036
C -4.98218 -7.85394 3.25358
C -3.98307 -8.40267 4.24956
C -3.36269 -7.10118 4.76632
O -4.4289 -6.18491 4.73868
H -3.31972 -6.61247 1.72176
H -1.70821 -7.32179 3.32839
H -1.84566 -2.39533 1.56255
H -5.55973 -5.76254 2.97623
H -6.00946 -8.06087 3.62701
H -4.88048 -8.25797 2.22239
H -4.53756 -8.90528 5.07245
H -3.23416 -9.10537 3.82259
H -2.88922 -7.25444 5.76193
H -3.159 -2.6817 0.33144
H -1.44064 -3.10679 -0.05649
H 1.35293 0.64889 7.95138
H 0.22488 1.97017 7.45333
H 2.0553 2.0904 7.09925
H 0.87835 -3.9835 3.69043
H -0.40523 -3.29144 4.72983
H 1.52168 -5.56432 5.57688
H 0.13972 -4.92354 6.54289
$end

$opt
CONSTRAINT
tors           1           2           3           4     -96.818
tors           3           4           5           6    -154.652
tors           4           5           6           7    -180.000
tors           5           6           7           8     -41.492
tors           6           7           8           9    -180.000
tors           7           8           9          10    -148.844
tors           8           9          10          11     -49.984
tors           9          10          11          12    -180.000
tors          11          12          13          14    +163.383
ENDCONSTRAINT
$end

$rem
JOBTYPE                   OPT
METHOD                    B3LYP
DFT_D                     d3_op
BASIS                     STO-3G
GEOM_OPT_MAX_CYCLES       100
GEOM_OPT_TOL_GRADIENT     300
GEOM_OPT_TOL_DISPLACEMENT 1200
GEOM_OPT_TOL_ENERGY       100
SYMMETRY                  False
THRESH                    12
SCF_CONVERGENCE           8
MAX_SUB_FILE_NUM          128
MEM_STATIC                400
MEM_TOTAL                 4000
$end
--------------------------------------------------------------

   16   -1510.0251852669      3.77E-09 Convergence criterion met
 Total energy in the final basis set = -1510.02518527
   14   -1510.1145038861      9.87E-09 Convergence criterion met
 Total energy in the final basis set = -1510.11450389
   14   -1510.1658519095      8.73E-09 Convergence criterion met
 Total energy in the final basis set = -1510.16585191
   15   -1510.2021600966      1.85E-09 Convergence criterion met
 Total energy in the final basis set = -1510.20216010
   14   -1510.2207054702      6.43E-09 Convergence criterion met
 Total energy in the final basis set = -1510.22070547
   14   -1510.2314938529      7.27E-09 Convergence criterion met
 Total energy in the final basis set = -1510.23149385
   13   -1510.2384302774      9.87E-09 Convergence criterion met
 Total energy in the final basis set = -1510.23843028
   14   -1510.2429221357      2.65E-09 Convergence criterion met
   12   -1510.2492007723      2.46E-09 Convergence criterion met
 Total energy in the final basis set = -1510.24920077
   12   -1510.2492169402      1.91E-09 Convergence criterion met
 Total energy in the final basis set = -1510.24921694
   11   -1510.2492295057      9.62E-09 Convergence criterion met
 Total energy in the final basis set = -1510.24922951
   10   -1510.2492370337      7.96E-09 Convergence criterion met
 Total energy in the final basis set = -1510.24923703
   11   -1510.2492408753      4.10E-09 Convergence criterion met
 Total energy in the final basis set = -1510.24924088
    9   -1510.2492426651      9.43E-09 Convergence criterion met
 Total energy in the final basis set = -1510.24924267

             Standard Nuclear Orientation (Angstroms)
    I     Atom           X                Y                Z
 ----------------------------------------------------------------
    1      O      -2.9548931998     1.5466229652     2.1377311883
    2      C      -3.0847257370     1.6735680274     0.9028866093
    3      C      -4.2861636860     1.1975522146     0.0028979207
    4      C      -4.0457239825    -0.2022060896    -0.7025257813
    5      C      -2.6021236654    -0.7647732773    -0.4848931513
    6      O      -2.3083873715    -1.6373700221    -1.5743574541
    7      C      -0.9584659542    -2.2674269368    -1.5263667087
    8      C       0.2086858761    -1.3112264427    -1.0759670525
    9      O       1.4445000027    -2.1223090374    -1.0958587358
   10      C       2.4075647230    -1.6930195552    -0.0918146691
   11      C       2.6910805718    -0.1406894937    -0.1033048942
   12      C       3.7070459597     0.5192986811     0.9112895592
   13      C       5.0667088195    -0.2051170916     1.2749046763
   14      O       6.0358318878     0.3737665137     1.8177228180
   15      O      -2.1202791856     2.3063732487     0.0453007992
   16      O       5.1395204182    -1.5254734129     0.7502465280
   17      O       2.9287645562    -2.5690809645     0.6249215776
   18      C       6.4762311298    -2.1047708498     1.0219934905
   19      C       3.1373187850     0.5181670996    -1.4912430417
   20      C       2.3356760343     1.8721860895    -1.6031031003
   21      C       2.9872986284     2.6757148389    -0.4155740786
   22      C       4.1878682200     1.7296914943    -0.0094152951
   23      O       4.5186591458     0.9953485408    -1.2594733574
   24      H       1.7126662246     0.3057303919     0.1524280399
   25      H       3.2040845208     0.8466117716     1.8391402307
   26      H       3.0894203890    -0.1524955653    -2.3710350702
   27      H       2.5334421508     2.3569679806    -2.5728057962
   28      H       1.2481729268     1.7377738214    -1.4869193040
   29      H       3.3617859300     3.6580284673    -0.7434826034
   30      H       2.2891068766     2.8283579427     0.4232849739
   31      H       5.0840622462     2.2459481017     0.3862205172
   32      O      -1.8623289520    -0.5262045430     0.4989300204
   33      C      -0.9127331685     2.6579102438     0.8240819642
   34      C      -5.5356496695     0.8527319628     0.9167994424
   35      C      -6.8127377263     0.6872962219     0.0017422694
   36      C      -6.5539686865    -0.7300290084    -0.6321773207
   37      C      -5.1584140854    -1.0962036891     0.0087198806
   38      O      -5.2433598165    -0.5286358419     1.3703969622
   39      H      -4.5069339543     1.9822585599    -0.7422790136
   40      H      -4.2293159897    -0.1451685165    -1.7900860269
   41      H      -0.4175452955     1.7498847577     1.2268689986
   42      H      -5.6553212878     1.5230732293     1.7895166645
   43      H      -7.7298703179     0.6965543524     0.6115804080
   44      H      -6.8842527089     1.4842115142    -0.7558135616
   45      H      -7.3189901748    -1.4582571332    -0.3182774908
   46      H      -6.5163962197    -0.7082994822    -1.7329892746
   47      H      -4.9246300506    -2.1780130510     0.0469481355
   48      H      -1.1490685945     3.3329956872     1.6716920980
   49      H      -0.2313098365     3.1719769941     0.1211823288
   50      H       6.4589098720    -3.1169453195     0.5780293450
   51      H       6.6748824625    -2.1796590810     2.1103458285
   52      H       7.2831302093    -1.5036674809     0.5552640928
   53      H       0.2705567057    -0.4510013824    -1.7799391551
   54      H      -0.0656019437    -0.9283796009    -0.0711059838
   55      H      -0.7803411288    -2.6439455657    -2.5540101491
   56      H      -0.9842228839    -3.1379286262    -0.8337510352
 ----------------------------------------------------------------

    9   -1510.2492436329      5.50E-09 Convergence criterion met
 Total energy in the final basis set = -1510.24924363
 Final energy is   -1510.24924363291
 **  OPTIMIZATION CONVERGED  **

                    Orbital Energies (a.u.)
 --------------------------------------------------------------

 Alpha MOs
 -- Occupied --
-18.952 -18.934 -18.929 -18.912 -18.894 -18.894 -18.893 -18.891
-18.872 -18.863 -10.117 -10.104 -10.098 -10.094 -10.081 -10.069
-10.067 -10.065 -10.065 -10.062 -10.061 -10.057 -10.046 -10.040
-10.040 -10.038 -10.026 -10.025 -10.025 -10.024  -1.027  -1.009
 -1.007  -1.001  -0.975  -0.974  -0.954  -0.937  -0.933  -0.927
 -0.768  -0.766  -0.731  -0.725  -0.718  -0.706  -0.701  -0.665
 -0.657  -0.619  -0.604  -0.591  -0.552  -0.549  -0.542  -0.541
 -0.520  -0.513  -0.481  -0.478  -0.469  -0.463  -0.456  -0.447
 -0.442  -0.438  -0.433  -0.416  -0.414  -0.414  -0.404  -0.400
 -0.394  -0.389  -0.385  -0.370  -0.368  -0.363  -0.353  -0.350
 -0.347  -0.339  -0.337  -0.337  -0.334  -0.332  -0.317  -0.316
 -0.313  -0.312  -0.309  -0.307  -0.298  -0.296  -0.285  -0.281
 -0.272  -0.263  -0.254  -0.246  -0.245  -0.239  -0.235  -0.193
 -0.176  -0.173  -0.169  -0.162  -0.152  -0.150  -0.149  -0.145
 -0.143

          Ground-State Mulliken Net Atomic Charges

     Atom                 Charge (a.u.)
  ----------------------------------------
      1 O                    -0.207722
      2 C                     0.214248
      3 C                    -0.080242
      4 C                    -0.078755
      5 C                     0.215426
      6 O                    -0.168225
      7 C                    -0.047839
      8 C                    -0.063383
      9 O                    -0.189363
     10 C                     0.217594
     11 C                    -0.086681
     12 C                    -0.075677
     13 C                     0.211002
     14 O                    -0.221709
     15 O                    -0.177708
     16 O                    -0.156564
     17 O                    -0.173704
     18 C                    -0.125956
     19 C                     0.023308
     20 C                    -0.141988
     21 C                    -0.147037
     22 C                     0.023450
     23 O                    -0.190170
     24 H                     0.078736
     25 H                     0.084693
     26 H                     0.086527
     27 H                     0.078539
     28 H                     0.070772
     29 H                     0.079662
     30 H                     0.072415
     31 H                     0.090204
     32 O                    -0.210845
     33 C                    -0.129927
     34 C                     0.025941
     35 C                    -0.144713
     36 C                    -0.142843
     37 C                     0.026208
     38 O                    -0.184936
     39 H                     0.084759
     40 H                     0.087493
     41 H                     0.086759
     42 H                     0.088505
     43 H                     0.079168
     44 H                     0.073696
     45 H                     0.079418
     46 H                     0.074421
     47 H                     0.084385
     48 H                     0.089854
     49 H                     0.085490
     50 H                     0.092726
     51 H                     0.089055
     52 H                     0.089635
     53 H                     0.071462
     54 H                     0.104852
     55 H                     0.094472
     56 H                     0.091107
  ----------------------------------------
  Sum of atomic charges =    -0.000000

                    Cartesian Multipole Moments
 -----------------------------------------------------------------
    Charge (ESU x 10^10)
                -0.0000
    Dipole Moment (Debye)
         X      -2.8028      Y       1.7170      Z      -2.8937
       Tot       4.3792
    Quadrupole Moments (Debye-Ang)
        XX    -159.9747     XY      -1.3041     YY    -157.9623
        XZ       7.9527     YZ       0.9241     ZZ    -166.7708

 Total job time:  76.00s(wall), 3619.97s(cpu)
        *  Thank you very much for using Q-Chem.  Have a nice day.  *
