 Q-Chem 5.0, Q-Chem, Inc., Pleasanton, CA (2017)
 Q-Chem 5.0.1 for Intel X86 EM64T Linux

User input:
--------------------------------------------------------------
$molecule
0  1
O -3.94934 -3.66094 2.70899
C -3.26408 -4.56952 2.26188
C -3.36658 -6.02376 2.66595
C -2.63225 -7.05037 1.78806
C -1.73188 -6.49278 0.70801
O -2.3876 -5.51421 0.01673
C -1.50385 -4.61515 -0.66146
C -1.11985 -5.18332 -2.02376
O -2.12207 -6.11177 -2.46695
C -1.81575 -7.42268 -2.30313
C -1.39415 -8.0935 -3.58878
C -0.2277 -7.41421 -4.32108
C 0.56469 -6.40786 -3.51109
O 1.76677 -6.461 -3.29487
O -1.97231 -4.17447 2.06135
O 0.29763 -5.2057 -4.12784
O -2.44838 -8.07757 -1.4897
C 1.09752 -4.06617 -4.18639
C -0.80491 -9.51163 -3.40059
C -0.9818 -10.30896 -4.69107
C 0.00774 -9.60367 -5.59521
C 0.66095 -8.64396 -4.59153
O 0.58932 -9.32649 -3.36407
H -2.31 -8.17114 -4.21854
H -0.59505 -6.95388 -5.2696
H -1.24419 -10.07214 -2.5472
H -0.60497 -11.33697 -4.48541
H -2.01927 -10.37467 -5.08354
H 0.7385 -10.35531 -5.96819
H -0.43964 -9.04943 -6.44845
H 1.67985 -8.36537 -4.93999
O -0.52391 -6.69821 0.64882
C -1.51392 -2.86829 2.11173
C -2.69823 -6.2994 4.02766
C -3.30155 -7.55285 4.6584
C -2.71524 -8.6276 3.7666
C -1.80899 -7.77995 2.86657
O -1.39653 -6.72384 3.69975
H -4.45492 -6.2487 2.73322
H -3.34998 -7.72365 1.26948
H -1.69114 -2.43738 3.12017
H -2.77095 -5.44105 4.73127
H -2.857 -7.65497 5.6744
H -4.40968 -7.55553 4.74121
H -2.10585 -9.31254 4.3973
H -3.45444 -9.21138 3.1764
H -1.00203 -8.41272 2.43655
H -2.02799 -2.25197 1.34364
H -0.4225 -2.85446 1.91483
H 0.5386 -3.18868 -3.80352
H 1.36381 -3.86682 -5.24432
H 2.03238 -4.15618 -3.59428
H -1.04067 -4.28848 -2.66341
H -0.22679 -5.6741 -1.59048
H -0.65438 -4.20879 -0.06602
H -2.15314 -3.73805 -0.87825
$end

$opt
CONSTRAINT
tors           1           2           3           4    +167.493
tors           3           4           5           6     -47.368
tors           4           5           6           7    +158.333
tors           5           6           7           8     +85.263
tors           6           7           8           9     +23.719
tors           7           8           9          10    -101.041
tors           8           9          10          11    -103.033
tors           9          10          11          12     +55.099
tors          11          12          13          14    +122.179
ENDCONSTRAINT
$end

$rem
JOBTYPE                   OPT
METHOD                    B3LYP
DFT_D                     d3_op
BASIS                     STO-3G
GEOM_OPT_MAX_CYCLES       100
GEOM_OPT_TOL_GRADIENT     300
GEOM_OPT_TOL_DISPLACEMENT 1200
GEOM_OPT_TOL_ENERGY       100
SYMMETRY                  False
THRESH                    12
SCF_CONVERGENCE           8
MAX_SUB_FILE_NUM          128
MEM_STATIC                400
MEM_TOTAL                 4000
$end
--------------------------------------------------------------

   16   -1510.0124848032      3.57E-09 Convergence criterion met
 Total energy in the final basis set = -1510.01248480
   15   -1510.0968944838      2.12E-09 Convergence criterion met
 Total energy in the final basis set = -1510.09689448
   14   -1510.1501499283      9.68E-09 Convergence criterion met
 Total energy in the final basis set = -1510.15014993
   14   -1510.1844843949      6.52E-09 Convergence criterion met
 Total energy in the final basis set = -1510.18448439
   14   -1510.2051410055      5.35E-09 Convergence criterion met
 Total energy in the final basis set = -1510.20514101
   14   -1510.2182307525      3.43E-09 Convergence criterion met
 Total energy in the final basis set = -1510.21823075
   13   -1510.2271032706      9.11E-09 Convergence criterion met
 Total energy in the final basis set = -1510.22710327
   13   -1510.2330713261      8.02E-09 Convergence criterion met
   12   -1510.2477420406      3.08E-09 Convergence criterion met
 Total energy in the final basis set = -1510.24774204
   11   -1510.2477733710      5.83E-09 Convergence criterion met
 Total energy in the final basis set = -1510.24777337
   11   -1510.2478010097      3.80E-09 Convergence criterion met
 Total energy in the final basis set = -1510.24780101
   11   -1510.2478248346      4.46E-09 Convergence criterion met
 Total energy in the final basis set = -1510.24782483
    9   -1510.2478335875      7.15E-09 Convergence criterion met
 Total energy in the final basis set = -1510.24783359
   10   -1510.2478380549      8.95E-09 Convergence criterion met
 Total energy in the final basis set = -1510.24783805

             Standard Nuclear Orientation (Angstroms)
    I     Atom           X                Y                Z
 ----------------------------------------------------------------
    1      O       5.0624915154    -2.0839198570    -0.4518005384
    2      C       4.2061316639    -1.2359019650    -0.1178634580
    3      C       4.0600872556     0.2138738819    -0.6986697237
    4      C       2.7253753665     0.9810825866    -0.3413044983
    5      C       1.5099936976     0.0950899768     0.1004689941
    6      O       1.3742612313    -0.9967898229    -0.8341588980
    7      C       0.6241936847    -2.0976068707    -0.1957296884
    8      C      -0.9508640268    -1.8998175326    -0.3256736997
    9      O      -1.2920740280    -1.0336460577    -1.4806798085
   10      C      -1.5980789905     0.3229820511    -1.0742738594
   11      C      -3.1346410263     0.7430765021    -1.0379811705
   12      C      -4.1807971803    -0.0946857472    -0.1904953543
   13      C      -3.9292782113    -1.6102824331     0.0964273183
   14      O      -3.8510131675    -2.1678561832     1.2136849480
   15      O       3.3518176014    -1.3872576244     1.0223853424
   16      O      -3.9672935599    -2.3061419871    -1.1557989849
   17      O      -0.6903605540     1.1732528506    -0.9393569956
   18      C      -3.9121402002    -3.7718024890    -0.9438744166
   19      C      -3.1775690403     2.0995705186    -0.2118300897
   20      C      -4.6098070484     2.7643454279    -0.2772090628
   21      C      -5.4023802221     1.9106098941     0.7841630034
   22      C      -4.3304866253     0.8037593995     1.1124075118
   23      O      -3.0738485041     1.5836839562     1.1765146150
   24      H      -3.4806663064     0.8483269571    -2.0837215947
   25      H      -5.1330508252    -0.0765531997    -0.7534226968
   26      H      -2.3231372641     2.7669277052    -0.4356597167
   27      H      -4.5568390238     3.8259334584     0.0109043342
   28      H      -5.0468991240     2.6958827982    -1.2865241494
   29      H      -5.6297797235     2.5024231512     1.6855063732
   30      H      -6.3408945408     1.4920867269     0.3865970517
   31      H      -4.4846907735     0.2265784155     2.0451416620
   32      O       0.8212399349     0.2242575908     1.1340545067
   33      C       3.5968990529    -2.6919084707     1.6759372524
   34      C       5.1015364340     1.1218319997     0.1002196838
   35      C       5.1659921853     2.5643274648    -0.5446853153
   36      C       3.8621696111     3.2269613262     0.0397690669
   37      C       3.2180908940     1.9915635422     0.7784449925
   38      O       4.3966753724     1.3277780053     1.3858518969
   39      H       4.2598066520     0.1890997231    -1.7840092430
   40      H       2.3947302218     1.5467533642    -1.2329089814
   41      H       4.6591359230    -2.8042455491     1.9735999524
   42      H       6.0845696585     0.6391458599     0.2660546398
   43      H       6.0750160427     3.0925026001    -0.2164756353
   44      H       5.1619277470     2.5210853547    -1.6457971095
   45      H       4.1058393337     4.0231533648     0.7614912036
   46      H       3.2041773068     3.6417531664    -0.7400522278
   47      H       2.4539475179     2.2172187506     1.5476443406
   48      H       3.3257244434    -3.5392382827     1.0131617417
   49      H       2.9550896978    -2.7058434743     2.5760705897
   50      H      -3.1113657796    -4.1920141822    -1.5824258495
   51      H      -4.8826362788    -4.2182073445    -1.2396822402
   52      H      -3.7131660494    -3.9898014124     0.1248866232
   53      H      -1.4167633573    -2.8877966084    -0.5136264452
   54      H      -1.3466324678    -1.4953649711     0.6279689692
   55      H       0.8945535854    -2.1984032442     0.8755234513
   56      H       0.9314479822    -3.0102232462    -0.7446023618
 ----------------------------------------------------------------

    9   -1510.2478385003      4.84E-09 Convergence criterion met
 Total energy in the final basis set = -1510.24783850
 Final energy is   -1510.24783850032
 **  OPTIMIZATION CONVERGED  **

                    Orbital Energies (a.u.)
 --------------------------------------------------------------

 Alpha MOs
 -- Occupied --
-18.939 -18.933 -18.916 -18.904 -18.903 -18.885 -18.883 -18.881
-18.868 -18.862 -10.110 -10.107 -10.095 -10.091 -10.068 -10.064
-10.063 -10.062 -10.058 -10.056 -10.055 -10.050 -10.042 -10.040
-10.033 -10.027 -10.021 -10.020 -10.016 -10.013  -1.017  -1.012
 -1.008  -0.992  -0.969  -0.964  -0.942  -0.937  -0.931  -0.921
 -0.764  -0.757  -0.723  -0.719  -0.706  -0.702  -0.692  -0.666
 -0.659  -0.611  -0.598  -0.580  -0.547  -0.540  -0.536  -0.530
 -0.513  -0.504  -0.485  -0.475  -0.465  -0.455  -0.444  -0.434
 -0.433  -0.432  -0.422  -0.419  -0.414  -0.412  -0.406  -0.396
 -0.392  -0.383  -0.377  -0.371  -0.362  -0.357  -0.351  -0.347
 -0.342  -0.339  -0.335  -0.332  -0.328  -0.325  -0.315  -0.314
 -0.306  -0.304  -0.300  -0.299  -0.292  -0.284  -0.279  -0.275
 -0.264  -0.253  -0.246  -0.239  -0.235  -0.233  -0.228  -0.181
 -0.176  -0.170  -0.166  -0.157  -0.151  -0.149  -0.143  -0.140
 -0.138

          Ground-State Mulliken Net Atomic Charges

     Atom                 Charge (a.u.)
  ----------------------------------------
      1 O                    -0.217343
      2 C                     0.212728
      3 C                    -0.076062
      4 C                    -0.078673
      5 C                     0.227274
      6 O                    -0.175270
      7 C                    -0.049810
      8 C                    -0.050347
      9 O                    -0.194047
     10 C                     0.226498
     11 C                    -0.077428
     12 C                    -0.082311
     13 C                     0.209270
     14 O                    -0.215488
     15 O                    -0.167728
     16 O                    -0.167481
     17 O                    -0.179106
     18 C                    -0.136826
     19 C                     0.022060
     20 C                    -0.146234
     21 C                    -0.141725
     22 C                     0.022063
     23 O                    -0.189677
     24 H                     0.087083
     25 H                     0.086158
     26 H                     0.092337
     27 H                     0.078968
     28 H                     0.072731
     29 H                     0.078727
     30 H                     0.072472
     31 H                     0.089850
     32 O                    -0.215673
     33 C                    -0.127281
     34 C                     0.024293
     35 C                    -0.144969
     36 C                    -0.142171
     37 C                     0.024620
     38 O                    -0.190812
     39 H                     0.086971
     40 H                     0.086458
     41 H                     0.091806
     42 H                     0.082187
     43 H                     0.077333
     44 H                     0.073533
     45 H                     0.076964
     46 H                     0.074094
     47 H                     0.092556
     48 H                     0.085982
     49 H                     0.091460
     50 H                     0.087410
     51 H                     0.086190
     52 H                     0.100371
     53 H                     0.082656
     54 H                     0.091580
     55 H                     0.090082
     56 H                     0.081701
  ----------------------------------------
  Sum of atomic charges =    -0.000000

                    Cartesian Multipole Moments
 -----------------------------------------------------------------
    Charge (ESU x 10^10)
                -0.0000
    Dipole Moment (Debye)
         X      -2.5550      Y      -0.4161      Z      -1.5996
       Tot       3.0430
    Quadrupole Moments (Debye-Ang)
        XX    -149.5633     XY       4.4229     YY    -147.4052
        XZ       3.6081     YZ      -5.9738     ZZ    -165.7523

 Total job time:  83.05s(wall), 3953.45s(cpu)
        *  Thank you very much for using Q-Chem.  Have a nice day.  *
