 Q-Chem 5.0, Q-Chem, Inc., Pleasanton, CA (2017)
 Q-Chem 5.0.1 for Intel X86 EM64T Linux

User input:
--------------------------------------------------------------
$molecule
0  1
O 5.0624915154 -2.083919857 -0.4518005384
C 4.2061316639 -1.235901965 -0.117863458
C 4.0600872556 0.2138738819 -0.6986697237
C 2.7253753665 0.9810825866 -0.3413044983
C 1.5099936976 0.0950899768 0.1004689941
O 1.3742612313 -0.9967898229 -0.834158898
C 0.6241936847 -2.0976068707 -0.1957296884
C -0.9508640268 -1.8998175326 -0.3256736997
O -1.292074028 -1.0336460577 -1.4806798085
C -1.5980789905 0.3229820511 -1.0742738594
C -3.1346410263 0.7430765021 -1.0379811705
C -4.1807971803 -0.0946857472 -0.1904953543
C -3.9292782113 -1.6102824331 0.0964273183
O -3.8510131675 -2.1678561832 1.213684948
O 3.3518176014 -1.3872576244 1.0223853424
O -3.9672935599 -2.3061419871 -1.1557989849
O -0.690360554 1.1732528506 -0.9393569956
C -3.9121402002 -3.771802489 -0.9438744166
C -3.1775690403 2.0995705186 -0.2118300897
C -4.6098070484 2.7643454279 -0.2772090628
C -5.4023802221 1.9106098941 0.7841630034
C -4.3304866253 0.8037593995 1.1124075118
O -3.0738485041 1.5836839562 1.176514615
H -3.4806663064 0.8483269571 -2.0837215947
H -5.1330508252 -0.0765531997 -0.7534226968
H -2.3231372641 2.7669277052 -0.4356597167
H -4.5568390238 3.8259334584 0.0109043342
H -5.046899124 2.6958827982 -1.2865241494
H -5.6297797235 2.5024231512 1.6855063732
H -6.3408945408 1.4920867269 0.3865970517
H -4.4846907735 0.2265784155 2.045141662
O 0.8212399349 0.2242575908 1.1340545067
C 3.5968990529 -2.6919084707 1.6759372524
C 5.101536434 1.1218319997 0.1002196838
C 5.1659921853 2.5643274648 -0.5446853153
C 3.8621696111 3.2269613262 0.0397690669
C 3.218090894 1.9915635422 0.7784449925
O 4.3966753724 1.3277780053 1.3858518969
H 4.259806652 0.1890997231 -1.784009243
H 2.3947302218 1.5467533642 -1.2329089814
H 4.659135923 -2.8042455491 1.9735999524
H 6.0845696585 0.6391458599 0.2660546398
H 6.0750160427 3.0925026001 -0.2164756353
H 5.161927747 2.5210853547 -1.6457971095
H 4.1058393337 4.0231533648 0.7614912036
H 3.2041773068 3.6417531664 -0.7400522278
H 2.4539475179 2.2172187506 1.5476443406
H 3.3257244434 -3.5392382827 1.0131617417
H 2.9550896978 -2.7058434743 2.5760705897
H -3.1113657796 -4.1920141822 -1.5824258495
H -4.8826362788 -4.2182073445 -1.2396822402
H -3.7131660494 -3.9898014124 0.1248866232
H -1.4167633573 -2.8877966084 -0.5136264452
H -1.3466324678 -1.4953649711 0.6279689692
H 0.8945535854 -2.1984032442 0.8755234513
H 0.9314479822 -3.0102232462 -0.7446023618
$end

$rem
JOBTYPE                   OPT
METHOD                    B3LYP
DFT_D                     d3_op
BASIS                     STO-3G
GEOM_OPT_MAX_CYCLES       100
GEOM_OPT_TOL_GRADIENT     300
GEOM_OPT_TOL_DISPLACEMENT 1200
GEOM_OPT_TOL_ENERGY       100
SYMMETRY                  False
THRESH                    12
SCF_CONVERGENCE           8
MAX_SUB_FILE_NUM          128
MEM_STATIC                400
MEM_TOTAL                 4000
$end
--------------------------------------------------------------

   16   -1510.2476740842      5.03E-09 Convergence criterion met
 Total energy in the final basis set = -1510.24767408
   14   -1510.2531503462      6.44E-09 Convergence criterion met
 Total energy in the final basis set = -1510.25315035
   14   -1510.2576694937      6.60E-09 Convergence criterion met
 Total energy in the final basis set = -1510.25766949
   14   -1510.2623374262      6.44E-09 Convergence criterion met
 Total energy in the final basis set = -1510.26233743
   14   -1510.2670975970      6.28E-09 Convergence criterion met
 Total energy in the final basis set = -1510.26709760
   14   -1510.2718255958      4.54E-09 Convergence criterion met
 Total energy in the final basis set = -1510.27182560
   14   -1510.2759148448      1.99E-09 Convergence criterion met
 Total energy in the final basis set = -1510.27591484
   14   -1510.2786743275      5.85E-09 Convergence criterion met
   13   -1510.2915758723      9.79E-09 Convergence criterion met
 Total energy in the final basis set = -1510.29157587
   12   -1510.2916113506      6.64E-09 Convergence criterion met
 Total energy in the final basis set = -1510.29161135
   11   -1510.2916363151      5.85E-09 Convergence criterion met
 Total energy in the final basis set = -1510.29163632
   13   -1510.2916727434      3.31E-09 Convergence criterion met
 Total energy in the final basis set = -1510.29167274
   11   -1510.2916749932      5.72E-09 Convergence criterion met
 Total energy in the final basis set = -1510.29167499
   11   -1510.2916777708      3.65E-09 Convergence criterion met
 Total energy in the final basis set = -1510.29167777

             Standard Nuclear Orientation (Angstroms)
    I     Atom           X                Y                Z
 ----------------------------------------------------------------
    1      O       3.4716528922    -1.2141108808    -2.4714116936
    2      C       3.5728766967    -0.7396824528    -1.3198822306
    3      C       3.2704339582     0.7253030175    -0.8610318135
    4      C       2.3642704939     0.8049261835     0.4374310824
    5      C       1.8776019279    -0.5880090392     0.9655135235
    6      O       1.2487575319    -1.2782075362    -0.1332553810
    7      C       0.6394347654    -2.5404626542     0.3379168672
    8      C      -0.7465104933    -2.2697549403     1.0323112073
    9      O      -1.6552909919    -1.5412838789     0.1164972862
   10      C      -1.4996546295    -0.1232607015     0.2555031354
   11      C      -2.4943792437     0.5616950545    -0.7459390873
   12      C      -3.9998003580     0.0883298377    -0.5695922413
   13      C      -4.1831069982    -0.9469692783     0.5905493351
   14      O      -3.9351795765    -0.7809350976     1.8055156049
   15      O       4.0357970965    -1.4813990025    -0.1814458406
   16      O      -4.7277878476    -2.1515276564     0.0327904779
   17      O      -0.7104773694     0.4384591064     1.0442659078
   18      C      -4.8991242755    -3.1744467860     1.0905021000
   19      C      -2.6212061915     2.1115868406    -0.4535051880
   20      C      -3.2883345476     2.8041313835    -1.7044289024
   21      C      -4.7828939715     2.3351577072    -1.5472460915
   22      C      -4.6975189683     1.4750009429    -0.2243749337
   23      O      -3.6766135654     2.1776274595     0.5849566616
   24      H      -2.1407868066     0.3612840205    -1.7742598087
   25      H      -4.3957090117    -0.3581987569    -1.4982606558
   26      H      -1.6858539808     2.5740197637    -0.0827019840
   27      H      -3.1997607316     3.8997170320    -1.6312734554
   28      H      -2.8360312321     2.4752558278    -2.6537624155
   29      H      -5.4620677229     3.1909204852    -1.4055994214
   30      H      -5.1368370196     1.7426292038    -2.4060366189
   31      H      -5.6450189352     1.3838234611     0.3412024611
   32      O       1.9531167685    -1.0408020976     2.1254561089
   33      C       4.2781326749    -2.8912686338    -0.5586766026
   34      C       4.5819091079     1.4577263916    -0.3360927619
   35      C       4.2717283315     3.0032546536    -0.2152865589
   36      C       3.4155140897     3.0426100002     1.1053420839
   37      C       3.3443598311     1.5080413694     1.4623861096
   38      O       4.6820253352     1.0040365923     1.0682167709
   39      H       2.8149088494     1.2581828757    -1.7138753462
   40      H       1.4586278377     1.4135849183     0.2539751443
   41      H       5.0746498747    -2.9791668328    -1.3256306368
   42      H       5.5045697428     1.2042101872    -0.8936355600
   43      H       5.2059191474     3.5777913225    -0.1117199369
   44      H       3.7196727513     3.3815466900    -1.0905443138
   45      H       3.9313774167     3.5997047537     1.9035163727
   46      H       2.4170189687     3.4830316447     0.9545165510
   47      H       3.1330739853     1.2631353848     2.5213934611
   48      H       3.3584061540    -3.3712487427    -0.9512175558
   49      H       4.5982595668    -3.4038445324     0.3670601800
   50      H      -4.2694194016    -4.0530862652     0.8483019589
   51      H      -5.9618508114    -3.4847596457     1.1233006777
   52      H      -4.5951758937    -2.7443850380     2.0667560783
   53      H      -1.2435071130    -3.2331659162     1.2659359986
   54      H      -0.5881171979    -1.6906918243     1.9665847304
   55      H       1.3068599774    -3.0648420892     1.0558424722
   56      H       0.4959699968    -3.1643314905    -0.5672804142
 ----------------------------------------------------------------

   11   -1510.2916784288      1.93E-09 Convergence criterion met
 Total energy in the final basis set = -1510.29167843
 Final energy is   -1510.29167842879
 **  OPTIMIZATION CONVERGED  **

                    Orbital Energies (a.u.)
 --------------------------------------------------------------

 Alpha MOs
 -- Occupied --
-18.938 -18.931 -18.930 -18.927 -18.889 -18.883 -18.882 -18.873
-18.871 -18.870 -10.106 -10.098 -10.098 -10.095 -10.075 -10.074
-10.062 -10.062 -10.060 -10.058 -10.057 -10.053 -10.040 -10.038
-10.034 -10.032 -10.022 -10.021 -10.017 -10.015  -1.021  -1.011
 -1.007  -1.000  -0.971  -0.966  -0.944  -0.934  -0.933  -0.932
 -0.765  -0.760  -0.728  -0.722  -0.711  -0.704  -0.697  -0.661
 -0.658  -0.619  -0.597  -0.584  -0.549  -0.541  -0.538  -0.532
 -0.512  -0.507  -0.485  -0.475  -0.462  -0.461  -0.454  -0.435
 -0.434  -0.428  -0.426  -0.422  -0.412  -0.410  -0.409  -0.405
 -0.395  -0.379  -0.373  -0.365  -0.362  -0.358  -0.352  -0.348
 -0.347  -0.341  -0.337  -0.332  -0.328  -0.327  -0.321  -0.311
 -0.307  -0.306  -0.301  -0.296  -0.292  -0.288  -0.286  -0.275
 -0.272  -0.254  -0.248  -0.247  -0.247  -0.235  -0.230  -0.192
 -0.173  -0.172  -0.167  -0.161  -0.154  -0.153  -0.145  -0.145
 -0.139

          Ground-State Mulliken Net Atomic Charges

     Atom                 Charge (a.u.)
  ----------------------------------------
      1 O                    -0.215277
      2 C                     0.212555
      3 C                    -0.079387
      4 C                    -0.078045
      5 C                     0.224908
      6 O                    -0.181017
      7 C                    -0.051315
      8 C                    -0.052807
      9 O                    -0.173649
     10 C                     0.218919
     11 C                    -0.078299
     12 C                    -0.078374
     13 C                     0.212439
     14 O                    -0.217631
     15 O                    -0.167759
     16 O                    -0.169883
     17 O                    -0.211805
     18 C                    -0.137171
     19 C                     0.024391
     20 C                    -0.144086
     21 C                    -0.143821
     22 C                     0.025768
     23 O                    -0.185877
     24 H                     0.086873
     25 H                     0.087494
     26 H                     0.087921
     27 H                     0.078219
     28 H                     0.073368
     29 H                     0.078410
     30 H                     0.074037
     31 H                     0.083855
     32 O                    -0.212345
     33 C                    -0.127828
     34 C                     0.025692
     35 C                    -0.144061
     36 C                    -0.143502
     37 C                     0.025200
     38 O                    -0.186709
     39 H                     0.083757
     40 H                     0.090878
     41 H                     0.088328
     42 H                     0.081530
     43 H                     0.077249
     44 H                     0.072711
     45 H                     0.077895
     46 H                     0.074224
     47 H                     0.091818
     48 H                     0.085732
     49 H                     0.091413
     50 H                     0.082900
     51 H                     0.084479
     52 H                     0.101812
     53 H                     0.089072
     54 H                     0.103890
     55 H                     0.094284
     56 H                     0.088623
  ----------------------------------------
  Sum of atomic charges =    -0.000000

                    Cartesian Multipole Moments
 -----------------------------------------------------------------
    Charge (ESU x 10^10)
                -0.0000
    Dipole Moment (Debye)
         X      -1.4426      Y      -0.6702      Z      -2.3861
       Tot       2.8677
    Quadrupole Moments (Debye-Ang)
        XX    -156.5462     XY       4.4055     YY    -144.3292
        XZ       2.5817     YZ      -7.8435     ZZ    -170.0193

 Total job time:  100.68s(wall), 4801.75s(cpu)
        *  Thank you very much for using Q-Chem.  Have a nice day.  *
