 Q-Chem 5.0, Q-Chem, Inc., Pleasanton, CA (2017)
 Q-Chem 5.0.1 for Intel X86 EM64T Linux

User input:
--------------------------------------------------------------
$molecule
0  1
O 1.8805889081 0.8081051681 -1.1662861563
C 2.8361921007 1.4063595873 -0.6262317853
C 3.8511384814 0.8585655498 0.4521798691
C 4.11809154 -0.6987350827 0.3294353031
C 3.0257051697 -1.5162365929 -0.4440355765
O 1.7926039681 -1.3988229798 0.2775745201
C 0.6987660062 -2.0618144888 -0.471786558
C -0.5182203374 -2.1678483738 0.5172658982
O -1.7583055619 -2.3916951385 -0.2568105036
C -2.5962047219 -1.2387529711 -0.4530299191
C -2.768014588 -0.2157366195 0.7309334358
C -3.7164733332 0.9992231747 0.3685784233
C -4.486362349 0.8583835441 -1.0010589764
O -4.3027156822 1.5588611947 -2.0208530358
O 3.1292433475 2.7861904962 -0.8678817245
O -5.581782683 -0.0527177516 -0.8327118742
O -3.2433253541 -1.1798528851 -1.5240895956
C -6.2958170111 -0.2119095535 -2.1178336021
C -3.4926465685 -0.8203362425 2.0128335435
C -3.1186958638 0.1007275472 3.2404879486
C -3.9619721479 1.3883389534 2.910338961
C -4.720797735 0.9370018016 1.5977686538
O -4.9219478585 -0.519304417 1.790899903
H -1.7774022372 0.1802994025 1.0112729915
H -3.1503326677 1.946210621 0.3355052605
H -3.3388900324 -1.9068131122 2.1640397108
H -3.4488345076 -0.365663607 4.1824625946
H -2.036916166 0.3002813106 3.3040344599
H -4.6804871622 1.6177987895 3.7128467678
H -3.3316880776 2.2751723437 2.7367808921
H -5.6920612388 1.4377660818 1.4211129274
O 3.1758501914 -2.1834095383 -1.4891946313
C 2.1770203516 3.3392569668 -1.8586975342
C 5.2980131198 1.4036970851 0.0931543836
C 6.3420533469 0.9717634549 1.1981436406
C 6.6118726906 -0.5297004302 0.8072827385
C 5.5536348444 -0.7220103966 -0.3453956632
O 5.6383029217 0.5621935237 -1.0810912424
H 3.5032468161 1.1466942926 1.4612692234
H 4.1730992647 -1.1296834909 1.3465064678
H 1.1294593822 3.2726892161 -1.500163415
H 5.3074462212 2.4754989589 -0.1817813422
H 7.2560949281 1.5818492947 1.1248864484
H 5.9305019436 1.0772325288 2.2149809617
H 7.6331670299 -0.6653333316 0.4166500824
H 6.456900311 -1.2268351484 1.6461719902
H 5.7198293462 -1.5764729725 -1.0301613262
H 2.2499823815 2.8116575058 -2.8314642128
H 2.4577140132 4.4003408357 -1.9903355667
H -7.1557867072 -0.8748776844 -1.9101740581
H -5.6429247486 -0.6799560374 -2.8829154985
H -6.6600102466 0.7598406309 -2.5102621897
H -0.3911065486 -3.0486306063 1.1810721487
H -0.5452522152 -1.2615612532 1.1520916823
H 1.0074813767 -3.0624471265 -0.841157507
H 0.4151598406 -1.4390816578 -1.3496369941
$end

$rem
JOBTYPE                   OPT
METHOD                    B3LYP
DFT_D                     d3_op
BASIS                     STO-3G
GEOM_OPT_MAX_CYCLES       100
GEOM_OPT_TOL_GRADIENT     300
GEOM_OPT_TOL_DISPLACEMENT 1200
GEOM_OPT_TOL_ENERGY       100
SYMMETRY                  False
THRESH                    12
SCF_CONVERGENCE           8
MAX_SUB_FILE_NUM          128
MEM_STATIC                400
MEM_TOTAL                 4000
$end
--------------------------------------------------------------

   16   -1510.2646246733      7.13E-09 Convergence criterion met
 Total energy in the final basis set = -1510.26462467
   14   -1510.2675256379      2.49E-09 Convergence criterion met
 Total energy in the final basis set = -1510.26752564
   14   -1510.2700244181      3.04E-09 Convergence criterion met
 Total energy in the final basis set = -1510.27002442
   14   -1510.2720114371      2.12E-09 Convergence criterion met
 Total energy in the final basis set = -1510.27201144
   14   -1510.2738251403      3.84E-09 Convergence criterion met
 Total energy in the final basis set = -1510.27382514
   14   -1510.2752520892      4.05E-09 Convergence criterion met
 Total energy in the final basis set = -1510.27525209
   14   -1510.2757650822      2.43E-09 Convergence criterion met
 Total energy in the final basis set = -1510.27576508
   13   -1510.2767429295      4.46E-09 Convergence criterion met
   11   -1510.2972782559      8.76E-09 Convergence criterion met
 Total energy in the final basis set = -1510.29727826
   12   -1510.2972968540      2.93E-09 Convergence criterion met
 Total energy in the final basis set = -1510.29729685
   11   -1510.2973044730      6.69E-09 Convergence criterion met
 Total energy in the final basis set = -1510.29730447
   11   -1510.2973067088      4.32E-09 Convergence criterion met
 Total energy in the final basis set = -1510.29730671
   10   -1510.2973104065      6.81E-09 Convergence criterion met
 Total energy in the final basis set = -1510.29731041
    9   -1510.2973123193      8.10E-09 Convergence criterion met
 Total energy in the final basis set = -1510.29731232

             Standard Nuclear Orientation (Angstroms)
    I     Atom           X                Y                Z
 ----------------------------------------------------------------
    1      O      -1.6164581446     0.8852948759     1.6669871651
    2      C      -1.5133429173     1.2645572738     0.4755458562
    3      C      -2.2572656830     0.6408986388    -0.7499905714
    4      C      -2.8029717987    -0.8115387008    -0.4413889729
    5      C      -2.3894523907    -1.3574042524     0.9736725555
    6      O      -0.9820885319    -1.6835668965     0.9130059639
    7      C      -0.4892725494    -2.1416793882     2.2319018756
    8      C       0.9615097570    -2.7211123467     2.0288261923
    9      O       2.0498211882    -1.7835557052     2.3813354217
   10      C       2.3311048680    -0.7292486976     1.4473649950
   11      C       1.5553728529    -0.6514157964     0.0882387189
   12      C       1.8185594105     0.7159332958    -0.6675817381
   13      C       2.9401298334     1.6125789351    -0.0148511271
   14      O       2.7557086298     2.6519703083     0.6720739699
   15      O      -0.6965272499     2.3390018042     0.0279783064
   16      O       4.2244653223     1.2055100517    -0.4835923034
   17      O       3.2066118751     0.0966972302     1.8033241493
   18      C       5.2741853645     2.0321605676     0.1528816748
   19      C       2.0476565074    -1.7001225941    -1.0120490413
   20      C       0.8813055838    -1.8293075440    -2.0696783523
   21      C       1.0154369398    -0.4526536694    -2.8206513554
   22      C       2.2664564942     0.1821463348    -2.0899867694
   23      O       3.1073976917    -0.9911477223    -1.7556131873
   24      H       0.4730310833    -0.8113706824     0.2902452181
   25      H       0.8916635973     1.3240031651    -0.7030193857
   26      H       2.4383366156    -2.6583421213    -0.6184943600
   27      H       1.0653938454    -2.6783691992    -2.7471027709
   28      H      -0.0993177077    -1.9633426785    -1.5852562236
   29      H       1.2246934803    -0.5951932415    -3.8926682645
   30      H       0.1178083969     0.1775971873    -2.7181618446
   31      H       2.8421547518     0.9095886673    -2.6935706295
   32      O      -3.1244501839    -1.6285887716     1.9432543995
   33      C      -0.0346086624     3.0256933081     1.1757578190
   34      C      -3.6218820035     1.4126180711    -1.0274424515
   35      C      -4.1829322362     0.9454772018    -2.4286724840
   36      C      -4.7511845190    -0.4782877312    -2.0725635172
   37      C      -4.3679090323    -0.5829126508    -0.5454361364
   38      O      -4.5494767129     0.8024005076    -0.0498561494
   39      H      -1.5936117922     0.6648403156    -1.6314487924
   40      H      -2.4444080994    -1.5304288676    -1.2006091054
   41      H       1.0793679985     2.9448905413     1.0338478396
   42      H      -3.5628012821     2.5089626625    -0.8827975733
   43      H      -4.9789283956     1.6258873403    -2.7703865354
   44      H      -3.3942445188     0.9093423105    -3.1973078469
   45      H      -5.8449650456    -0.5184836701    -2.1969615958
   46      H      -4.2969764943    -1.2819703928    -2.6739606344
   47      H      -4.9688395828    -1.2897555817     0.0590756543
   48      H      -0.3516634132     2.5409666705     2.1188507539
   49      H      -0.3582407140     4.0836802749     1.1665785703
   50      H       6.2338571473     1.6824214207    -0.2697583280
   51      H       5.2769376021     1.8926335692     1.2530945968
   52      H       5.1368991207     3.1102460505    -0.0691673928
   53      H       1.1044687921    -3.5663376097     2.7328836661
   54      H       1.0512372231    -3.1139420307     0.9949749071
   55      H      -1.1625695370    -2.9279208424     2.6359428165
   56      H      -0.4702578694    -1.2964830740     2.9557168961
 ----------------------------------------------------------------

    9   -1510.2973127828      2.42E-09 Convergence criterion met
 Total energy in the final basis set = -1510.29731278
 Final energy is   -1510.29731278284
 **  OPTIMIZATION CONVERGED  **

                    Orbital Energies (a.u.)
 --------------------------------------------------------------

 Alpha MOs
 -- Occupied --
-18.942 -18.941 -18.941 -18.928 -18.895 -18.889 -18.886 -18.886
-18.885 -18.865 -10.111 -10.109 -10.106 -10.097 -10.088 -10.082
-10.068 -10.065 -10.062 -10.059 -10.054 -10.048 -10.046 -10.029
-10.027 -10.027 -10.026 -10.025 -10.023 -10.022  -1.024  -1.015
 -1.013  -1.002  -0.977  -0.971  -0.949  -0.943  -0.941  -0.927
 -0.772  -0.761  -0.733  -0.722  -0.721  -0.710  -0.706  -0.653
 -0.653  -0.620  -0.598  -0.592  -0.554  -0.547  -0.545  -0.541
 -0.519  -0.515  -0.492  -0.485  -0.472  -0.466  -0.465  -0.445
 -0.435  -0.434  -0.429  -0.413  -0.411  -0.409  -0.403  -0.402
 -0.400  -0.396  -0.382  -0.374  -0.366  -0.363  -0.356  -0.348
 -0.345  -0.343  -0.336  -0.334  -0.334  -0.329  -0.323  -0.319
 -0.315  -0.313  -0.311  -0.306  -0.296  -0.291  -0.284  -0.277
 -0.276  -0.259  -0.251  -0.249  -0.242  -0.241  -0.233  -0.188
 -0.182  -0.180  -0.167  -0.167  -0.160  -0.154  -0.152  -0.144
 -0.140

          Ground-State Mulliken Net Atomic Charges

     Atom                 Charge (a.u.)
  ----------------------------------------
      1 O                    -0.211535
      2 C                     0.212595
      3 C                    -0.079329
      4 C                    -0.081293
      5 C                     0.221913
      6 O                    -0.185891
      7 C                    -0.051909
      8 C                    -0.048943
      9 O                    -0.167439
     10 C                     0.211589
     11 C                    -0.105401
     12 C                    -0.091055
     13 C                     0.224198
     14 O                    -0.226076
     15 O                    -0.172856
     16 O                    -0.163814
     17 O                    -0.195717
     18 C                    -0.126528
     19 C                     0.023155
     20 C                    -0.145107
     21 C                    -0.144209
     22 C                     0.026638
     23 O                    -0.185267
     24 H                     0.105405
     25 H                     0.094481
     26 H                     0.077405
     27 H                     0.075975
     28 H                     0.073177
     29 H                     0.077353
     30 H                     0.068478
     31 H                     0.085503
     32 O                    -0.204036
     33 C                    -0.161846
     34 C                     0.025945
     35 C                    -0.143744
     36 C                    -0.143822
     37 C                     0.025265
     38 O                    -0.186480
     39 H                     0.083528
     40 H                     0.082390
     41 H                     0.122095
     42 H                     0.086447
     43 H                     0.080064
     44 H                     0.073860
     45 H                     0.079980
     46 H                     0.073346
     47 H                     0.090959
     48 H                     0.090683
     49 H                     0.077250
     50 H                     0.089219
     51 H                     0.095455
     52 H                     0.086939
     53 H                     0.096209
     54 H                     0.089759
     55 H                     0.094966
     56 H                     0.100076
  ----------------------------------------
  Sum of atomic charges =     0.000000

                    Cartesian Multipole Moments
 -----------------------------------------------------------------
    Charge (ESU x 10^10)
                -0.0000
    Dipole Moment (Debye)
         X      -1.2883      Y      -1.8566      Z      -3.4046
       Tot       4.0863
    Quadrupole Moments (Debye-Ang)
        XX    -171.0580     XY       2.6607     YY    -152.5683
        XZ       7.6496     YZ      -3.8329     ZZ    -162.6438

 Total job time:  219.49s(wall), 10473.60s(cpu)
        *  Thank you very much for using Q-Chem.  Have a nice day.  *
