 Q-Chem 5.0, Q-Chem, Inc., Pleasanton, CA (2017)
 Q-Chem 5.0.1 for Intel X86 EM64T Linux

User input:
--------------------------------------------------------------
$molecule
0  1
O -3.94934 -3.66094 2.70899
C -3.26408 -4.56952 2.26188
C -3.36658 -6.02376 2.66595
C -4.74834 -6.53523 3.10524
C -5.90939 -5.5831 2.92222
O -5.71755 -4.46563 3.68373
C -6.72424 -3.46784 3.48313
C -6.62662 -2.39765 4.5654
O -7.31004 -1.20804 4.14039
C -6.51402 -0.21097 3.68067
C -5.23591 -0.06625 4.47196
C -4.29911 1.05102 3.9899
C -4.91288 2.06765 3.04839
O -4.62022 2.20956 1.86992
O -2.18469 -4.23697 1.50451
O -5.90282 2.85206 3.55987
O -6.90545 0.48975 2.76277
C -6.57724 3.82233 2.84843
C -5.39684 0.32438 5.95609
C -4.17235 -0.14464 6.74064
C -3.11523 0.81182 6.21735
C -3.97803 1.72382 5.33578
O -5.23235 1.72241 5.97706
H -4.56634 -0.9337 4.33213
H -3.39911 0.65312 3.46429
H -6.33041 -0.06458 6.41679
H -4.36563 0.09178 7.81166
H -3.92514 -1.2237 6.6441
H -2.69504 1.37541 7.07962
H -2.29591 0.34022 5.63249
H -3.4977 2.71798 5.201
O -6.85756 -5.76305 2.16473
C -1.88132 -2.95259 1.10264
C -3.13064 -6.96667 1.45632
C -2.66522 -8.33692 1.94688
C -3.94688 -8.87015 2.54643
C -4.91479 -7.74418 2.16793
O -4.41302 -7.24834 0.95428
H -2.55481 -6.21142 3.40366
H -4.75617 -6.83765 4.17595
H -1.71663 -2.302 1.98819
H -2.39903 -6.57821 0.71535
H -2.42172 -8.94016 1.04262
H -1.78687 -8.3304 2.62748
H -4.21481 -9.81404 2.02152
H -3.92391 -9.03836 3.64499
H -5.95754 -8.13075 2.1475
H -2.70704 -2.54137 0.48326
H -0.9535 -2.97105 0.49501
H -7.32633 4.30329 3.51017
H -7.10453 3.36635 1.98342
H -5.86622 4.59687 2.4897
H -7.16259 -2.78998 5.45569
H -5.62687 -2.38119 5.0021
H -7.76358 -3.87058 3.48334
H -6.5233 -2.99637 2.49507
$end

$opt
CONSTRAINT
tors           1           2           3           4     +30.441
tors           3           4           5           6     -62.358
tors           4           5           6           7    +175.329
tors           5           6           7           8    +167.675
tors           6           7           8           9    +161.299
tors           7           8           9          10    -101.306
tors           8           9          10          11     -39.032
tors           9          10          11          12    -180.000
tors          11          12          13          14    -112.473
ENDCONSTRAINT
$end

$rem
JOBTYPE                   OPT
METHOD                    B3LYP
DFT_D                     d3_op
BASIS                     STO-3G
GEOM_OPT_MAX_CYCLES       100
GEOM_OPT_TOL_GRADIENT     300
GEOM_OPT_TOL_DISPLACEMENT 1200
GEOM_OPT_TOL_ENERGY       100
SYMMETRY                  False
THRESH                    12
SCF_CONVERGENCE           8
MAX_SUB_FILE_NUM          128
MEM_STATIC                400
MEM_TOTAL                 4000
$end
--------------------------------------------------------------

   15   -1510.1178048183      7.26E-09 Convergence criterion met
 Total energy in the final basis set = -1510.11780482
   14   -1510.1886533620      3.82E-09 Convergence criterion met
 Total energy in the final basis set = -1510.18865336
   14   -1510.2290403420      3.13E-09 Convergence criterion met
 Total energy in the final basis set = -1510.22904034
   14   -1510.2489870969      4.14E-09 Convergence criterion met
 Total energy in the final basis set = -1510.24898710
    2   -1510.2489870970      4.57E-09 Convergence criterion met
 Total energy in the final basis set = -1510.24898710
   14   -1510.2567346804      2.32E-09 Convergence criterion met
 Total energy in the final basis set = -1510.25673468
   13   -1510.2598243270      7.17E-09 Convergence criterion met
 Total energy in the final basis set = -1510.25982433
   13   -1510.2609180960      2.44E-09 Convergence criterion met
   11   -1510.2646918031      8.49E-09 Convergence criterion met
 Total energy in the final basis set = -1510.26469180
   10   -1510.2647108055      5.55E-09 Convergence criterion met
 Total energy in the final basis set = -1510.26471081
    9   -1510.2647253403      8.27E-09 Convergence criterion met
 Total energy in the final basis set = -1510.26472534
    9   -1510.2647383181      8.50E-09 Convergence criterion met
 Total energy in the final basis set = -1510.26473832
    9   -1510.2647408599      5.80E-09 Convergence criterion met
 Total energy in the final basis set = -1510.26474086
    9   -1510.2647340681      3.49E-09 Convergence criterion met
 Total energy in the final basis set = -1510.26473407

             Standard Nuclear Orientation (Angstroms)
    I     Atom           X                Y                Z
 ----------------------------------------------------------------
    1      O       1.8805889081     0.8081051681    -1.1662861563
    2      C       2.8361921007     1.4063595873    -0.6262317853
    3      C       3.8511384814     0.8585655498     0.4521798691
    4      C       4.1180915400    -0.6987350827     0.3294353031
    5      C       3.0257051697    -1.5162365929    -0.4440355765
    6      O       1.7926039681    -1.3988229798     0.2775745201
    7      C       0.6987660062    -2.0618144888    -0.4717865580
    8      C      -0.5182203374    -2.1678483738     0.5172658982
    9      O      -1.7583055619    -2.3916951385    -0.2568105036
   10      C      -2.5962047219    -1.2387529711    -0.4530299191
   11      C      -2.7680145880    -0.2157366195     0.7309334358
   12      C      -3.7164733332     0.9992231747     0.3685784233
   13      C      -4.4863623490     0.8583835441    -1.0010589764
   14      O      -4.3027156822     1.5588611947    -2.0208530358
   15      O       3.1292433475     2.7861904962    -0.8678817245
   16      O      -5.5817826830    -0.0527177516    -0.8327118742
   17      O      -3.2433253541    -1.1798528851    -1.5240895956
   18      C      -6.2958170111    -0.2119095535    -2.1178336021
   19      C      -3.4926465685    -0.8203362425     2.0128335435
   20      C      -3.1186958638     0.1007275472     3.2404879486
   21      C      -3.9619721479     1.3883389534     2.9103389610
   22      C      -4.7207977350     0.9370018016     1.5977686538
   23      O      -4.9219478585    -0.5193044170     1.7908999030
   24      H      -1.7774022372     0.1802994025     1.0112729915
   25      H      -3.1503326677     1.9462106210     0.3355052605
   26      H      -3.3388900324    -1.9068131122     2.1640397108
   27      H      -3.4488345076    -0.3656636070     4.1824625946
   28      H      -2.0369161660     0.3002813106     3.3040344599
   29      H      -4.6804871622     1.6177987895     3.7128467678
   30      H      -3.3316880776     2.2751723437     2.7367808921
   31      H      -5.6920612388     1.4377660818     1.4211129274
   32      O       3.1758501914    -2.1834095383    -1.4891946313
   33      C       2.1770203516     3.3392569668    -1.8586975342
   34      C       5.2980131198     1.4036970851     0.0931543836
   35      C       6.3420533469     0.9717634549     1.1981436406
   36      C       6.6118726906    -0.5297004302     0.8072827385
   37      C       5.5536348444    -0.7220103966    -0.3453956632
   38      O       5.6383029217     0.5621935237    -1.0810912424
   39      H       3.5032468161     1.1466942926     1.4612692234
   40      H       4.1730992647    -1.1296834909     1.3465064678
   41      H       1.1294593822     3.2726892161    -1.5001634150
   42      H       5.3074462212     2.4754989589    -0.1817813422
   43      H       7.2560949281     1.5818492947     1.1248864484
   44      H       5.9305019436     1.0772325288     2.2149809617
   45      H       7.6331670299    -0.6653333316     0.4166500824
   46      H       6.4569003110    -1.2268351484     1.6461719902
   47      H       5.7198293462    -1.5764729725    -1.0301613262
   48      H       2.2499823815     2.8116575058    -2.8314642128
   49      H       2.4577140132     4.4003408357    -1.9903355667
   50      H      -7.1557867072    -0.8748776844    -1.9101740581
   51      H      -5.6429247486    -0.6799560374    -2.8829154985
   52      H      -6.6600102466     0.7598406309    -2.5102621897
   53      H      -0.3911065486    -3.0486306063     1.1810721487
   54      H      -0.5452522152    -1.2615612532     1.1520916823
   55      H       1.0074813767    -3.0624471265    -0.8411575070
   56      H       0.4151598406    -1.4390816578    -1.3496369941
 ----------------------------------------------------------------

    9   -1510.2647348440      3.21E-09 Convergence criterion met
 Total energy in the final basis set = -1510.26473484
 Final energy is   -1510.26473484405
 **  OPTIMIZATION CONVERGED  **

                    Orbital Energies (a.u.)
 --------------------------------------------------------------

 Alpha MOs
 -- Occupied --
-18.941 -18.935 -18.930 -18.914 -18.894 -18.892 -18.887 -18.882
-18.875 -18.852 -10.110 -10.105 -10.101 -10.086 -10.083 -10.071
-10.068 -10.066 -10.061 -10.060 -10.059 -10.047 -10.044 -10.042
-10.039 -10.034 -10.025 -10.023 -10.023 -10.021  -1.019  -1.014
 -1.008  -0.992  -0.972  -0.971  -0.946  -0.942  -0.935  -0.917
 -0.766  -0.765  -0.728  -0.724  -0.716  -0.708  -0.702  -0.665
 -0.647  -0.613  -0.601  -0.589  -0.550  -0.547  -0.541  -0.539
 -0.518  -0.512  -0.490  -0.478  -0.467  -0.459  -0.455  -0.448
 -0.440  -0.434  -0.432  -0.417  -0.413  -0.408  -0.403  -0.399
 -0.396  -0.381  -0.379  -0.373  -0.363  -0.357  -0.350  -0.342
 -0.339  -0.338  -0.337  -0.333  -0.331  -0.327  -0.325  -0.317
 -0.314  -0.311  -0.310  -0.303  -0.301  -0.283  -0.282  -0.276
 -0.272  -0.261  -0.253  -0.246  -0.238  -0.236  -0.235  -0.185
 -0.179  -0.177  -0.160  -0.158  -0.154  -0.151  -0.146  -0.146
 -0.135

          Ground-State Mulliken Net Atomic Charges

     Atom                 Charge (a.u.)
  ----------------------------------------
      1 O                    -0.213088
      2 C                     0.212667
      3 C                    -0.075358
      4 C                    -0.081554
      5 C                     0.214505
      6 O                    -0.176723
      7 C                    -0.048062
      8 C                    -0.046455
      9 O                    -0.174326
     10 C                     0.216858
     11 C                    -0.084944
     12 C                    -0.079953
     13 C                     0.214162
     14 O                    -0.223223
     15 O                    -0.170282
     16 O                    -0.169483
     17 O                    -0.184224
     18 C                    -0.127354
     19 C                     0.023680
     20 C                    -0.143135
     21 C                    -0.145150
     22 C                     0.027247
     23 O                    -0.182216
     24 H                     0.079369
     25 H                     0.082283
     26 H                     0.083977
     27 H                     0.078754
     28 H                     0.070534
     29 H                     0.078573
     30 H                     0.073306
     31 H                     0.086394
     32 O                    -0.211080
     33 C                    -0.127802
     34 C                     0.022455
     35 C                    -0.145718
     36 C                    -0.142168
     37 C                     0.022750
     38 O                    -0.191833
     39 H                     0.085475
     40 H                     0.082070
     41 H                     0.089395
     42 H                     0.092126
     43 H                     0.078594
     44 H                     0.072494
     45 H                     0.078574
     46 H                     0.072721
     47 H                     0.090791
     48 H                     0.093418
     49 H                     0.091824
     50 H                     0.086873
     51 H                     0.091886
     52 H                     0.084855
     53 H                     0.088861
     54 H                     0.087505
     55 H                     0.093577
     56 H                     0.095574
  ----------------------------------------
  Sum of atomic charges =    -0.000000

                    Cartesian Multipole Moments
 -----------------------------------------------------------------
    Charge (ESU x 10^10)
                 0.0000
    Dipole Moment (Debye)
         X       2.0788      Y       1.6735      Z       4.6917
       Tot       5.3976
    Quadrupole Moments (Debye-Ang)
        XX    -164.2525     XY      -2.0104     YY    -157.1357
        XZ       5.2622     YZ      -2.4683     ZZ    -161.6041

 Total job time:  69.33s(wall), 3300.60s(cpu)
        *  Thank you very much for using Q-Chem.  Have a nice day.  *
