 Q-Chem 5.0, Q-Chem, Inc., Pleasanton, CA (2017)
 Q-Chem 5.0.1 for Intel X86 EM64T Linux

User input:
--------------------------------------------------------------
$molecule
0  1
O -4.5060715108 0.3215754198 2.4172995803
C -4.4462044616 0.9702500972 1.352452032
C -5.0950058548 0.6065128181 -0.0318584301
C -4.0297557654 0.0803814957 -1.0867861903
C -2.558994835 0.1544270688 -0.5624950705
O -1.7450896701 0.7628790075 -1.5762178023
C -0.3455800583 0.8668444955 -1.1022958747
C 0.4560014417 -0.4723436411 -1.3768208114
O 1.7300057409 -0.1858051191 -2.0544789233
C 2.9042982341 0.0129107562 -1.2421140733
C 3.4493430688 -1.1002131123 -0.2383133789
C 4.7504222807 -0.5523478154 0.4913724648
C 5.4660506238 0.6765190063 -0.1859195602
O 5.7092405896 1.7833572979 0.3404064886
O -3.7079377778 2.1877779859 1.1837026547
O 6.0708450605 0.2024990799 -1.4056548137
O 3.5687122161 1.0497612405 -1.4887215395
C 6.7598934427 1.3207196118 -2.0830914145
C 2.5430481558 -1.3097816316 1.0607651812
C 3.183943353 -2.428470428 1.984182304
C 4.2905314436 -1.6134302175 2.7491443375
C 4.2265015407 -0.255971157 1.9553720776
O 2.7675157238 -0.0455001156 1.7942300856
H 3.6278883703 -2.0377533931 -0.7965409428
H 5.504068533 -1.3611017186 0.5184260301
H 1.4643667578 -1.4646066164 0.8913055977
H 2.4258728414 -2.8373505182 2.6706132338
H 3.6025075091 -3.2567020375 1.3899939807
H 4.0166876564 -1.4575288888 3.804995626
H 5.2841393978 -2.0869282169 2.7034272051
H 4.6983657728 0.6248534721 2.4332548437
O -2.1179182343 -0.236251079 0.5410904969
C -2.9424083758 2.4843636465 2.4158459949
C -6.0226329079 -0.668966957 0.1174315236
C -6.8906236549 -0.8283585698 -1.1918640661
C -5.818864576 -1.3816554783 -2.2032365148
C -4.5304213972 -1.41767623 -1.2904499343
O -5.0583762297 -1.7928052984 0.0384935965
H -5.6367987829 1.4856690792 -0.4241900324
H -4.0807295814 0.6526143182 -2.0296061346
H -2.218135194 1.6740410734 2.6395634895
H -6.5801800674 -0.711182823 1.0729276035
H -7.7041234353 -1.5529278148 -1.0298149873
H -7.3288377346 0.1284034505 -1.5180655418
H -6.0732592563 -2.3982474092 -2.5435547279
H -5.6896043129 -0.7357057939 -3.0862745084
H -3.7438045143 -2.1279358385 -1.6115984732
H -3.6084382012 2.6154015522 3.292897545
H -2.3979307326 3.4263554126 2.2197265833
H 7.275524874 0.8822417414 -2.9574839503
H 7.5019208564 1.8094811602 -1.4190040229
H 6.0370389909 2.0886266124 -2.4285559322
H 0.5479554577 -1.0694154127 -0.4544293948
H -0.1324605267 -1.0688612043 -2.1081382141
H -0.3135580718 1.1258858207 -0.0234487713
H 0.1156678819 1.6811696683 -1.6978850362
$end

$rem
JOBTYPE                   OPT
METHOD                    B3LYP
DFT_D                     d3_op
BASIS                     STO-3G
GEOM_OPT_MAX_CYCLES       100
GEOM_OPT_TOL_GRADIENT     300
GEOM_OPT_TOL_DISPLACEMENT 1200
GEOM_OPT_TOL_ENERGY       100
SYMMETRY                  False
THRESH                    12
SCF_CONVERGENCE           8
MAX_SUB_FILE_NUM          128
MEM_STATIC                400
MEM_TOTAL                 4000
$end
--------------------------------------------------------------

   15   -1510.2559007628      9.39E-09 Convergence criterion met
 Total energy in the final basis set = -1510.25590076
   14   -1510.2602046062      2.47E-09 Convergence criterion met
 Total energy in the final basis set = -1510.26020461
   14   -1510.2647403560      3.32E-09 Convergence criterion met
 Total energy in the final basis set = -1510.26474036
   14   -1510.2684591785      3.94E-09 Convergence criterion met
 Total energy in the final basis set = -1510.26845918
   13   -1510.2702336521      8.37E-09 Convergence criterion met
 Total energy in the final basis set = -1510.27023365
   14   -1510.2716573850      1.64E-09 Convergence criterion met
 Total energy in the final basis set = -1510.27165739
   13   -1510.2729726256      4.58E-09 Convergence criterion met
 Total energy in the final basis set = -1510.27297263
   13   -1510.2741508486      8.24E-09 Convergence criterion met
   11   -1510.2856898843      8.23E-09 Convergence criterion met
 Total energy in the final basis set = -1510.28568988
   11   -1510.2857097816      7.58E-09 Convergence criterion met
 Total energy in the final basis set = -1510.28570978
   11   -1510.2857039240      5.73E-09 Convergence criterion met
 Total energy in the final basis set = -1510.28570392
   10   -1510.2857207185      8.03E-09 Convergence criterion met
 Total energy in the final basis set = -1510.28572072
   10   -1510.2857182486      8.50E-09 Convergence criterion met
 Total energy in the final basis set = -1510.28571825
   10   -1510.2857232049      4.38E-09 Convergence criterion met
 Total energy in the final basis set = -1510.28572320

             Standard Nuclear Orientation (Angstroms)
    I     Atom           X                Y                Z
 ----------------------------------------------------------------
    1      O       1.7465685213    -2.5172372581    -0.0383609553
    2      C       2.6264629026    -1.9094144208    -0.6900444725
    3      C       3.6655112830    -0.8660834284    -0.1358249360
    4      C       3.3740852157     0.6426200214    -0.5183230485
    5      C       1.9985633301     0.8277517413    -1.2364595065
    6      O       1.7342283002     2.2212451462    -1.3935676481
    7      C       0.3456924405     2.4338329826    -1.8761996271
    8      C      -0.5919404364     2.7553576681    -0.6456111531
    9      O      -2.0044243501     2.6808129596    -1.0691191055
   10      C      -2.7472022159     1.5152543280    -0.6604204500
   11      C      -2.2299073128     0.6191006889     0.5252234044
   12      C      -3.3799207354    -0.2866481228     1.1376156788
   13      C      -4.7841842980    -0.1521126305     0.4373834744
   14      O      -5.3397461222    -0.9867463606    -0.3073901212
   15      O       2.9483458926    -2.1838778826    -2.0556297564
   16      O      -5.4195537221     1.0351515446     0.9429777788
   17      O      -3.8303730031     1.3239506772    -1.2599933811
   18      C      -6.7255333952     1.2196126599     0.2739278490
   19      C      -1.1995653121    -0.5046050604     0.0493084611
   20      C      -0.4737131087    -1.0799278691     1.3265751470
   21      C      -1.6126164918    -1.9699630873     1.9472999619
   22      C      -2.7806110379    -1.7365187780     0.9105834427
   23      O      -2.0780203660    -1.6082744972    -0.3864471335
   24      H      -1.7923143254     1.2566572773     1.3125056747
   25      H      -3.5117893147    -0.0571210401     2.2102706344
   26      H      -0.5036470723    -0.2193554950    -0.7682203672
   27      H       0.4006183685    -1.6802303278     1.0058148403
   28      H      -0.1305943313    -0.2821581860     2.0046652968
   29      H      -1.3261096280    -3.0335542839     1.9707065463
   30      H      -1.8957277785    -1.6585048768     2.9658058405
   31      H      -3.5482858558    -2.5326361458     0.8542696982
   32      O       1.2128543197    -0.0813037926    -1.5983531852
   33      C       1.9478399598    -3.1155586416    -2.6257989014
   34      C       3.6176688133    -0.7882278688     1.4494887554
   35      C       4.9709709565    -0.1525650595     1.9520111155
   36      C       4.7703798766     1.3509152650     1.5319663505
   37      C       3.3135652978     1.3088136366     0.9252504907
   38      O       2.6190145130     0.2733971454     1.7225742185
   39      H       4.6656834233    -1.1644678759    -0.4978818808
   40      H       4.1739593535     1.0804031281    -1.1427869396
   41      H       0.9263161535    -2.6868352331    -2.5718279555
   42      H       3.3146986288    -1.7342011084     1.9384899611
   43      H       5.0620924905    -0.2562256838     3.0450446025
   44      H       5.8510971685    -0.6152061012     1.4776343169
   45      H       4.8046012374     2.0244084273     2.4027929849
   46      H       5.5141041974     1.6892714354     0.7929623292
   47      H       2.7569986724     2.2658927568     0.9495383614
   48      H       1.9515924094    -4.0913812849    -2.0984807048
   49      H       2.2355409565    -3.2636273560    -3.6828361142
   50      H      -7.1857119670     2.1128709154     0.7353157433
   51      H      -7.3888844320     0.3422983108     0.4190248391
   52      H      -6.5977133450     1.3883976265    -0.8151414949
   53      H      -0.3394576898     2.0677523636     0.1843080973
   54      H      -0.4107880151     3.7953546593    -0.3019052354
   55      H      -0.0176242926     1.5213622406    -2.3948830088
   56      H       0.3715032503     3.2853710076    -2.5842943163
 ----------------------------------------------------------------

   10   -1510.2857236649      3.67E-09 Convergence criterion met
 Total energy in the final basis set = -1510.28572366
 Final energy is   -1510.28572366494
 **  OPTIMIZATION CONVERGED  **

                    Orbital Energies (a.u.)
 --------------------------------------------------------------

 Alpha MOs
 -- Occupied --
-18.960 -18.937 -18.933 -18.908 -18.908 -18.898 -18.882 -18.875
-18.872 -18.849 -10.125 -10.104 -10.103 -10.086 -10.084 -10.080
-10.072 -10.067 -10.060 -10.055 -10.045 -10.044 -10.043 -10.039
-10.032 -10.030 -10.028 -10.023 -10.002  -9.989  -1.038  -1.010
 -1.009  -0.987  -0.981  -0.962  -0.956  -0.940  -0.935  -0.913
 -0.775  -0.750  -0.737  -0.723  -0.709  -0.704  -0.691  -0.662
 -0.644  -0.626  -0.596  -0.588  -0.556  -0.547  -0.532  -0.524
 -0.522  -0.507  -0.494  -0.476  -0.469  -0.466  -0.451  -0.446
 -0.441  -0.438  -0.417  -0.415  -0.410  -0.406  -0.404  -0.398
 -0.394  -0.391  -0.383  -0.374  -0.364  -0.358  -0.355  -0.350
 -0.346  -0.339  -0.335  -0.330  -0.326  -0.319  -0.319  -0.314
 -0.313  -0.305  -0.299  -0.295  -0.289  -0.284  -0.282  -0.271
 -0.265  -0.263  -0.253  -0.246  -0.242  -0.233  -0.220  -0.204
 -0.181  -0.175  -0.171  -0.157  -0.154  -0.154  -0.150  -0.131
 -0.130

          Ground-State Mulliken Net Atomic Charges

     Atom                 Charge (a.u.)
  ----------------------------------------
      1 O                    -0.215829
      2 C                     0.221032
      3 C                    -0.081677
      4 C                    -0.076947
      5 C                     0.219969
      6 O                    -0.168970
      7 C                    -0.054080
      8 C                    -0.049985
      9 O                    -0.170963
     10 C                     0.213572
     11 C                    -0.086673
     12 C                    -0.079748
     13 C                     0.215841
     14 O                    -0.217836
     15 O                    -0.171507
     16 O                    -0.178931
     17 O                    -0.191132
     18 C                    -0.128600
     19 C                     0.010040
     20 C                    -0.158761
     21 C                    -0.145090
     22 C                     0.025168
     23 O                    -0.189826
     24 H                     0.078116
     25 H                     0.081530
     26 H                     0.089014
     27 H                     0.100446
     28 H                     0.065823
     29 H                     0.075949
     30 H                     0.067937
     31 H                     0.086178
     32 O                    -0.204823
     33 C                    -0.128208
     34 C                     0.024475
     35 C                    -0.143443
     36 C                    -0.143997
     37 C                     0.024144
     38 O                    -0.191752
     39 H                     0.086813
     40 H                     0.091077
     41 H                     0.098294
     42 H                     0.090891
     43 H                     0.079805
     44 H                     0.075183
     45 H                     0.079945
     46 H                     0.075275
     47 H                     0.085445
     48 H                     0.088733
     49 H                     0.088977
     50 H                     0.084100
     51 H                     0.085267
     52 H                     0.091857
     53 H                     0.089619
     54 H                     0.090089
     55 H                     0.102762
     56 H                     0.095413
  ----------------------------------------
  Sum of atomic charges =    -0.000000

                    Cartesian Multipole Moments
 -----------------------------------------------------------------
    Charge (ESU x 10^10)
                -0.0000
    Dipole Moment (Debye)
         X       5.5483      Y       2.1106      Z       1.3820
       Tot       6.0949
    Quadrupole Moments (Debye-Ang)
        XX    -157.4188     XY      -1.9231     YY    -157.8100
        XZ      -7.9364     YZ       0.3717     ZZ    -158.5589

 Total job time:  113.64s(wall), 5414.20s(cpu)
        *  Thank you very much for using Q-Chem.  Have a nice day.  *
