 Q-Chem 5.0, Q-Chem, Inc., Pleasanton, CA (2017)
 Q-Chem 5.0.1 for Intel X86 EM64T Linux

User input:
--------------------------------------------------------------
$molecule
0  1
O -3.94934 -3.66094 2.70899
C -3.26408 -4.56952 2.26188
C -3.36658 -6.02376 2.66595
C -2.26084 -6.57905 3.57855
C -1.27332 -5.5744 4.12954
O 0.00141 -6.03188 3.95286
C 0.99752 -5.12329 4.43399
C 1.23116 -5.34101 5.92534
O 2.63687 -5.47971 6.18537
C 3.28801 -4.332 6.49832
C 2.72506 -3.65141 7.72329
C 3.42934 -2.34553 8.11944
C 4.32914 -1.73374 7.06456
O 4.22594 -0.60165 6.6148
O -2.26326 -4.27028 1.39344
O 5.55361 -2.31807 6.93543
O 4.37107 -4.14615 5.98299
C 6.58255 -1.82799 6.15636
C 1.30533 -2.89902 7.54492
C 0.5933 -2.88942 8.8944
C 1.46189 -1.90162 9.64265
C 2.31783 -1.37889 8.4795
O 1.53478 -1.52676 7.35381
H 2.64275 -4.3915 8.55119
H 4.0896 -2.52501 8.99726
H 0.59429 -3.18696 6.76772
H -0.40034 -2.41461 8.71987
H 0.43618 -3.87091 9.39046
H 0.80832 -1.11543 10.08064
H 2.11253 -2.34479 10.42795
H 2.698 -0.35273 8.67868
O -1.58093 -4.55196 4.73312
C -1.98249 -2.99862 0.94014
C -4.59869 -6.27753 3.56559
C -4.98804 -7.75586 3.52561
C -3.87714 -8.36072 4.35502
C -3.11058 -7.09678 4.75314
O -4.11345 -6.11974 4.87467
H -3.4952 -6.6061 1.72629
H -1.70465 -7.41653 3.0976
H -1.71955 -2.33759 1.79354
H -5.47794 -5.65423 3.29095
H -5.94537 -7.86912 4.08312
H -5.10448 -8.17751 2.50406
H -4.32738 -8.82748 5.25953
H -3.2364 -9.1 3.82755
H -2.50158 -7.28783 5.66501
H -2.85926 -2.5834 0.39852
H -1.12028 -3.04294 0.24367
H 7.45433 -2.50929 6.23522
H 6.88496 -0.8188 6.50876
H 6.26398 -1.77585 5.09326
H 0.52157 -5.13298 6.7406
H 0.97272 -6.42031 5.99429
H 0.82312 -4.05779 4.16281
H 1.92959 -5.41582 3.90315
$end

$opt
CONSTRAINT
tors           1           2           3           4    -105.179
tors           3           4           5           6    -132.058
tors           4           5           6           7    +179.161
tors           5           6           7           8     +85.263
tors           6           7           8           9    +129.650
tors           7           8           9          10     +92.152
tors           8           9          10          11     +58.938
tors           9          10          11          12    -180.000
tors          11          12          13          14    +123.158
ENDCONSTRAINT
$end

$rem
JOBTYPE                   OPT
METHOD                    B3LYP
DFT_D                     d3_op
BASIS                     STO-3G
GEOM_OPT_MAX_CYCLES       100
GEOM_OPT_TOL_GRADIENT     300
GEOM_OPT_TOL_DISPLACEMENT 1200
GEOM_OPT_TOL_ENERGY       100
SYMMETRY                  False
THRESH                    12
SCF_CONVERGENCE           8
MAX_SUB_FILE_NUM          128
MEM_STATIC                400
MEM_TOTAL                 4000
$end
--------------------------------------------------------------

   15   -1510.0730665450      6.78E-09 Convergence criterion met
 Total energy in the final basis set = -1510.07306654
   14   -1510.1506270238      8.21E-09 Convergence criterion met
 Total energy in the final basis set = -1510.15062702
   14   -1510.1933088083      8.89E-09 Convergence criterion met
 Total energy in the final basis set = -1510.19330881
   14   -1510.2173537558      7.79E-09 Convergence criterion met
 Total energy in the final basis set = -1510.21735376
   14   -1510.2291131228      3.74E-09 Convergence criterion met
 Total energy in the final basis set = -1510.22911312
   14   -1510.2353210799      2.69E-09 Convergence criterion met
 Total energy in the final basis set = -1510.23532108
   13   -1510.2392320724      9.57E-09 Convergence criterion met
 Total energy in the final basis set = -1510.23923207
   13   -1510.2421838095      5.68E-09 Convergence criterion met
   11   -1510.2556767276      5.43E-09 Convergence criterion met
 Total energy in the final basis set = -1510.25567673
   11   -1510.2557860995      5.58E-09 Convergence criterion met
 Total energy in the final basis set = -1510.25578610
   11   -1510.2558371288      5.57E-09 Convergence criterion met
 Total energy in the final basis set = -1510.25583713
   11   -1510.2558625878      4.54E-09 Convergence criterion met
 Total energy in the final basis set = -1510.25586259
   11   -1510.2558738754      1.76E-09 Convergence criterion met
 Total energy in the final basis set = -1510.25587388
   10   -1510.2558765827      1.00E-08 Convergence criterion met
 Total energy in the final basis set = -1510.25587658

             Standard Nuclear Orientation (Angstroms)
    I     Atom           X                Y                Z
 ----------------------------------------------------------------
    1      O      -4.5060715108     0.3215754198     2.4172995803
    2      C      -4.4462044616     0.9702500972     1.3524520320
    3      C      -5.0950058548     0.6065128181    -0.0318584301
    4      C      -4.0297557654     0.0803814957    -1.0867861903
    5      C      -2.5589948350     0.1544270688    -0.5624950705
    6      O      -1.7450896701     0.7628790075    -1.5762178023
    7      C      -0.3455800583     0.8668444955    -1.1022958747
    8      C       0.4560014417    -0.4723436411    -1.3768208114
    9      O       1.7300057409    -0.1858051191    -2.0544789233
   10      C       2.9042982341     0.0129107562    -1.2421140733
   11      C       3.4493430688    -1.1002131123    -0.2383133789
   12      C       4.7504222807    -0.5523478154     0.4913724648
   13      C       5.4660506238     0.6765190063    -0.1859195602
   14      O       5.7092405896     1.7833572979     0.3404064886
   15      O      -3.7079377778     2.1877779859     1.1837026547
   16      O       6.0708450605     0.2024990799    -1.4056548137
   17      O       3.5687122161     1.0497612405    -1.4887215395
   18      C       6.7598934427     1.3207196118    -2.0830914145
   19      C       2.5430481558    -1.3097816316     1.0607651812
   20      C       3.1839433530    -2.4284704280     1.9841823040
   21      C       4.2905314436    -1.6134302175     2.7491443375
   22      C       4.2265015407    -0.2559711570     1.9553720776
   23      O       2.7675157238    -0.0455001156     1.7942300856
   24      H       3.6278883703    -2.0377533931    -0.7965409428
   25      H       5.5040685330    -1.3611017186     0.5184260301
   26      H       1.4643667578    -1.4646066164     0.8913055977
   27      H       2.4258728414    -2.8373505182     2.6706132338
   28      H       3.6025075091    -3.2567020375     1.3899939807
   29      H       4.0166876564    -1.4575288888     3.8049956260
   30      H       5.2841393978    -2.0869282169     2.7034272051
   31      H       4.6983657728     0.6248534721     2.4332548437
   32      O      -2.1179182343    -0.2362510790     0.5410904969
   33      C      -2.9424083758     2.4843636465     2.4158459949
   34      C      -6.0226329079    -0.6689669570     0.1174315236
   35      C      -6.8906236549    -0.8283585698    -1.1918640661
   36      C      -5.8188645760    -1.3816554783    -2.2032365148
   37      C      -4.5304213972    -1.4176762300    -1.2904499343
   38      O      -5.0583762297    -1.7928052984     0.0384935965
   39      H      -5.6367987829     1.4856690792    -0.4241900324
   40      H      -4.0807295814     0.6526143182    -2.0296061346
   41      H      -2.2181351940     1.6740410734     2.6395634895
   42      H      -6.5801800674    -0.7111828230     1.0729276035
   43      H      -7.7041234353    -1.5529278148    -1.0298149873
   44      H      -7.3288377346     0.1284034505    -1.5180655418
   45      H      -6.0732592563    -2.3982474092    -2.5435547279
   46      H      -5.6896043129    -0.7357057939    -3.0862745084
   47      H      -3.7438045143    -2.1279358385    -1.6115984732
   48      H      -3.6084382012     2.6154015522     3.2928975450
   49      H      -2.3979307326     3.4263554126     2.2197265833
   50      H       7.2755248740     0.8822417414    -2.9574839503
   51      H       7.5019208564     1.8094811602    -1.4190040229
   52      H       6.0370389909     2.0886266124    -2.4285559322
   53      H       0.5479554577    -1.0694154127    -0.4544293948
   54      H      -0.1324605267    -1.0688612043    -2.1081382141
   55      H      -0.3135580718     1.1258858207    -0.0234487713
   56      H       0.1156678819     1.6811696683    -1.6978850362
 ----------------------------------------------------------------

    9   -1510.2558783009      6.18E-09 Convergence criterion met
 Total energy in the final basis set = -1510.25587830
 Final energy is   -1510.25587830093
 **  OPTIMIZATION CONVERGED  **

                    Orbital Energies (a.u.)
 --------------------------------------------------------------

 Alpha MOs
 -- Occupied --
-18.941 -18.932 -18.929 -18.911 -18.907 -18.891 -18.890 -18.880
-18.874 -18.853 -10.117 -10.105 -10.096 -10.088 -10.083 -10.074
-10.067 -10.064 -10.060 -10.059 -10.059 -10.050 -10.047 -10.041
-10.038 -10.032 -10.024 -10.023 -10.021 -10.021  -1.021  -1.017
 -1.006  -0.991  -0.975  -0.972  -0.949  -0.942  -0.933  -0.919
 -0.765  -0.765  -0.728  -0.724  -0.715  -0.707  -0.702  -0.660
 -0.651  -0.623  -0.600  -0.589  -0.550  -0.549  -0.540  -0.539
 -0.522  -0.512  -0.489  -0.476  -0.462  -0.458  -0.454  -0.453
 -0.435  -0.433  -0.427  -0.412  -0.411  -0.408  -0.403  -0.401
 -0.398  -0.392  -0.375  -0.367  -0.360  -0.358  -0.354  -0.351
 -0.348  -0.342  -0.335  -0.334  -0.332  -0.328  -0.325  -0.317
 -0.312  -0.308  -0.307  -0.304  -0.299  -0.283  -0.281  -0.275
 -0.271  -0.259  -0.251  -0.241  -0.240  -0.238  -0.236  -0.196
 -0.174  -0.171  -0.163  -0.161  -0.157  -0.149  -0.149  -0.146
 -0.137

          Ground-State Mulliken Net Atomic Charges

     Atom                 Charge (a.u.)
  ----------------------------------------
      1 O                    -0.205745
      2 C                     0.212231
      3 C                    -0.078665
      4 C                    -0.079602
      5 C                     0.207893
      6 O                    -0.168649
      7 C                    -0.053826
      8 C                    -0.047442
      9 O                    -0.181065
     10 C                     0.220640
     11 C                    -0.079371
     12 C                    -0.082290
     13 C                     0.217589
     14 O                    -0.225119
     15 O                    -0.175587
     16 O                    -0.180936
     17 O                    -0.174688
     18 C                    -0.128770
     19 C                     0.022444
     20 C                    -0.145112
     21 C                    -0.141819
     22 C                     0.022595
     23 O                    -0.192453
     24 H                     0.088328
     25 H                     0.083183
     26 H                     0.078283
     27 H                     0.079741
     28 H                     0.073689
     29 H                     0.079079
     30 H                     0.074893
     31 H                     0.093249
     32 O                    -0.215153
     33 C                    -0.129697
     34 C                     0.025421
     35 C                    -0.144488
     36 C                    -0.143235
     37 C                     0.025855
     38 O                    -0.185552
     39 H                     0.085502
     40 H                     0.087632
     41 H                     0.093082
     42 H                     0.089410
     43 H                     0.078676
     44 H                     0.073802
     45 H                     0.078413
     46 H                     0.074303
     47 H                     0.081238
     48 H                     0.088589
     49 H                     0.089090
     50 H                     0.084658
     51 H                     0.086239
     52 H                     0.089043
     53 H                     0.088742
     54 H                     0.091140
     55 H                     0.095936
     56 H                     0.098656
  ----------------------------------------
  Sum of atomic charges =     0.000000

                    Cartesian Multipole Moments
 -----------------------------------------------------------------
    Charge (ESU x 10^10)
                -0.0000
    Dipole Moment (Debye)
         X      -1.0126      Y      -1.5940      Z      -1.4901
       Tot       2.4055
    Quadrupole Moments (Debye-Ang)
        XX    -151.4628     XY     -16.0415     YY    -159.4283
        XZ      10.8497     YZ       3.0455     ZZ    -161.6047

 Total job time:  68.94s(wall), 3276.73s(cpu)
        *  Thank you very much for using Q-Chem.  Have a nice day.  *
