 Q-Chem 5.0, Q-Chem, Inc., Pleasanton, CA (2017)
 Q-Chem 5.0.1 for Intel X86 EM64T Linux

User input:
--------------------------------------------------------------
$molecule
0  1
O 3.9811570637 -2.703790197 0.178858277
C 4.1637981031 -1.5382571185 0.5944981882
C 5.0415908926 -0.4300074073 -0.0970116902
C 4.2986396743 0.360263578 -1.2589220466
C 2.8732209422 -0.15405727 -1.6399157557
O 2.0630447346 -0.2214426573 -0.4602918397
C 0.6508208997 -0.5068510799 -0.8195024508
C -0.0114064061 -1.2117198668 0.4153244769
O -1.4343444574 -1.5430042367 0.1608030402
C -2.2596472186 -0.384027184 0.3616401278
C -3.7484502488 -0.872207487 0.4093793414
C -4.8311145642 0.2535156176 0.6450773119
C -4.3686785393 1.7057706045 0.2596830636
O -3.733056582 2.0700641575 -0.7512620582
O 3.6588015024 -1.0503428828 1.8419135715
O -4.8439873357 2.600981577 1.2749980853
O -1.8056944477 0.7539747207 0.6057009443
C -4.4491537583 3.9892081451 0.942793981
C -4.3010003479 -1.5784750749 -0.9097414471
C -5.4288981883 -2.58366813 -0.4557916051
C -6.5564145962 -1.5765468641 -0.015879962
C -5.9175015352 -0.1910238625 -0.4321501584
O -5.0680211041 -0.5183199304 -1.6014343384
H -3.7885271055 -1.5978577916 1.2436997809
H -5.22158844 0.2566444981 1.6772909452
H -3.5203677259 -1.9988896001 -1.5728237797
H -5.7531954163 -3.2029302987 -1.3075091461
H -5.1011912077 -3.2467352984 0.360728213
H -7.4955972948 -1.7513467009 -0.5643474723
H -6.7661437982 -1.6220834794 1.0649512348
H -6.6469981902 0.5998359804 -0.6936653253
O 2.4665113182 -0.4290224756 -2.7903061022
C 2.9149129001 -2.1219204637 2.5405524122
C 5.3916111444 0.762598699 0.8868352576
C 6.5315714203 1.6444638886 0.2353861546
C 5.7207222372 2.4479454233 -0.8477260479
C 4.2782676399 1.8355986168 -0.6531995019
O 4.1885666238 1.6243117742 0.8067421332
H 5.9470503073 -0.9266462903 -0.4900306366
H 4.8984164815 0.3324993819 -2.1856786647
H 3.6037637746 -2.8929465058 2.9440607022
H 5.5743333207 0.4511376409 1.9324981327
H 6.9778080804 2.3143886642 0.9872712758
H 7.3301969088 1.0266242423 -0.205385826
H 5.7121853038 3.5276186601 -0.6286225826
H 6.1033693262 2.2957024732 -1.8694549835
H 3.4418929222 2.4685677864 -1.0080566574
H 2.1878827758 -2.6215490824 1.8708765534
H 2.3814913782 -1.6320469989 3.375837622
H -4.8191212101 4.6199811126 1.7718948666
H -4.9036948217 4.3271295253 -0.0111013872
H -3.3476215231 4.0896875435 0.8608642979
H 0.4888888189 -2.181898641 0.6059655415
H 0.0914738375 -0.5580529965 1.3075208947
H 0.6019312739 -1.1495221397 -1.7242319231
H 0.1191262649 0.4464221265 -1.0306931417
$end

$rem
JOBTYPE                   OPT
METHOD                    B3LYP
DFT_D                     d3_op
BASIS                     STO-3G
GEOM_OPT_MAX_CYCLES       100
GEOM_OPT_TOL_GRADIENT     300
GEOM_OPT_TOL_DISPLACEMENT 1200
GEOM_OPT_TOL_ENERGY       100
SYMMETRY                  False
THRESH                    12
SCF_CONVERGENCE           8
MAX_SUB_FILE_NUM          128
MEM_STATIC                400
MEM_TOTAL                 4000
$end
--------------------------------------------------------------

   16   -1510.2762703381      5.97E-09 Convergence criterion met
 Total energy in the final basis set = -1510.27627034
   13   -1510.2781334222      7.79E-09 Convergence criterion met
 Total energy in the final basis set = -1510.27813342
   14   -1510.2790241940      2.96E-09 Convergence criterion met
 Total energy in the final basis set = -1510.27902419
   13   -1510.2803497915      5.24E-09 Convergence criterion met
 Total energy in the final basis set = -1510.28034979
   13   -1510.2814050361      5.76E-09 Convergence criterion met
 Total energy in the final basis set = -1510.28140504
   13   -1510.2823494387      8.85E-09 Convergence criterion met
 Total energy in the final basis set = -1510.28234944
   13   -1510.2832136536      9.70E-09 Convergence criterion met
 Total energy in the final basis set = -1510.28321365
   13   -1510.2839976053      4.58E-09 Convergence criterion met
   12   -1510.2903023843      4.38E-09 Convergence criterion met
 Total energy in the final basis set = -1510.29030238
   11   -1510.2903114661      6.32E-09 Convergence criterion met
 Total energy in the final basis set = -1510.29031147
   10   -1510.2903148105      8.60E-09 Convergence criterion met
 Total energy in the final basis set = -1510.29031481
   10   -1510.2903261778      8.89E-09 Convergence criterion met
 Total energy in the final basis set = -1510.29032618
   11   -1510.2903330334      7.89E-09 Convergence criterion met
 Total energy in the final basis set = -1510.29033303
   11   -1510.2903441138      4.20E-09 Convergence criterion met
 Total energy in the final basis set = -1510.29034411

             Standard Nuclear Orientation (Angstroms)
    I     Atom           X                Y                Z
 ----------------------------------------------------------------
    1      O       2.6621998463    -1.5966570638     0.9596423638
    2      C       3.7238170287    -0.9721575159     1.1894735818
    3      C       4.7515006426    -0.4482850409     0.1280603327
    4      C       4.1248670926    -0.2764836066    -1.3196541113
    5      C       2.5947482639    -0.6175289526    -1.4140432566
    6      O       1.8469090385     0.4581179480    -0.8240821458
    7      C       0.3996897343     0.1425620365    -0.8397459231
    8      C      -0.0329540235    -0.3794459089     0.5818939106
    9      O      -1.3340890138    -1.0922762441     0.5286105602
   10      C      -2.4104155770    -0.1587985862     0.4411571836
   11      C      -3.7513973984    -0.9520576512     0.2969622879
   12      C      -5.0267139093    -0.0274211455     0.4485594903
   13      C      -4.7108402330     1.4594732576     0.8586291172
   14      O      -4.8716698264     2.4866630320     0.1667632462
   15      O       4.1971128823    -0.6670473846     2.4995974328
   16      O      -4.3374126409     1.4617896725     2.2459284313
   17      O      -2.2708989434     1.0858411658     0.4515366191
   18      C      -3.9691375942     2.8335150873     2.6584874417
   19      C      -3.9300272937    -1.4527687662    -1.2037183218
   20      C      -5.1343575269    -2.4745421074    -1.2554957095
   21      C      -6.3676797050    -1.5008113151    -1.1647374758
   22      C      -5.6396351613    -0.1088943035    -1.0118458276
   23      O      -4.4517260533    -0.2492272216    -1.8875855973
   24      H      -3.7538116961    -1.7955394003     1.0100983921
   25      H      -5.7176179513    -0.4478560435     1.2013839090
   26      H      -2.9931873415    -1.8021066288    -1.6802337741
   27      H      -5.1256665953    -3.0318409409    -2.2056293151
   28      H      -5.0983573595    -3.1950839653    -0.4227550344
   29      H      -6.9657824985    -1.5231320347    -2.0896428166
   30      H      -7.0271947184    -1.7243174610    -0.3109767505
   31      H      -6.2282513432     0.7826053760    -1.3031617321
   32      O       2.0833869388    -1.5998019839    -1.9951541985
   33      C       3.2378554338    -1.1647453634     3.5144103986
   34      C       5.2562056462     1.0295571032     0.4223854761
   35      C       6.5605458976     1.2836479296    -0.4304169059
   36      C       5.9518538304     1.4472984738    -1.8724587490
   37      C       4.4102024325     1.2661674082    -1.5765652751
   38      O       4.2386450297     1.8765176087    -0.2380298190
   39      H       5.6011091885    -1.1565094638     0.1083145628
   40      H       4.6476544088    -0.9176213121    -2.0506923524
   41      H       3.0657093355    -2.2554763821     3.4120639331
   42      H       5.3319627234     1.2715203466     1.5000147810
   43      H       7.0616130230     2.2058623020    -0.0959746874
   44      H       7.2743885116     0.4475669666    -0.3595536348
   45      H       6.1493948945     2.4506418763    -2.2818511449
   46      H       6.3295417184     0.6948826116    -2.5832247605
   47      H       3.7294318918     1.7417758464    -2.3084092533
   48      H       2.2618470741    -0.6434994140     3.4372644219
   49      H       3.6960235559    -0.9493671465     4.4970272804
   50      H      -3.7129122603     2.7742824178     3.7323743034
   51      H      -4.8080059454     3.5452319905     2.5156020674
   52      H      -3.0927824319     3.2015734158     2.0864990631
   53      H       0.7231849043    -1.1180094017     0.9279231054
   54      H      -0.0813279076     0.4684929114     1.2968378988
   55      H       0.2027223655    -0.6456844528    -1.5985014012
   56      H      -0.1458787547     1.0724011911    -1.0972164026
 ----------------------------------------------------------------

   10   -1510.2903446922      9.52E-09 Convergence criterion met
 Total energy in the final basis set = -1510.29034469
 Final energy is   -1510.29034469216
 **  OPTIMIZATION CONVERGED  **

                    Orbital Energies (a.u.)
 --------------------------------------------------------------

 Alpha MOs
 -- Occupied --
-18.951 -18.935 -18.923 -18.915 -18.891 -18.890 -18.883 -18.878
-18.867 -18.857 -10.114 -10.100 -10.095 -10.086 -10.075 -10.062
-10.061 -10.058 -10.057 -10.057 -10.052 -10.051 -10.045 -10.037
-10.035 -10.029 -10.022 -10.021 -10.017 -10.016  -1.027  -1.013
 -1.003  -0.993  -0.972  -0.966  -0.950  -0.937  -0.929  -0.920
 -0.766  -0.758  -0.726  -0.720  -0.713  -0.703  -0.688  -0.671
 -0.651  -0.614  -0.596  -0.576  -0.548  -0.541  -0.539  -0.533
 -0.517  -0.504  -0.485  -0.474  -0.466  -0.454  -0.449  -0.443
 -0.436  -0.432  -0.426  -0.421  -0.412  -0.403  -0.401  -0.399
 -0.390  -0.385  -0.376  -0.363  -0.361  -0.354  -0.348  -0.345
 -0.341  -0.338  -0.333  -0.330  -0.328  -0.324  -0.321  -0.315
 -0.308  -0.307  -0.300  -0.298  -0.296  -0.285  -0.280  -0.272
 -0.267  -0.264  -0.255  -0.241  -0.237  -0.236  -0.230  -0.191
 -0.186  -0.168  -0.162  -0.159  -0.153  -0.149  -0.145  -0.141
 -0.137

          Ground-State Mulliken Net Atomic Charges

     Atom                 Charge (a.u.)
  ----------------------------------------
      1 O                    -0.213122
      2 C                     0.218754
      3 C                    -0.077812
      4 C                    -0.080406
      5 C                     0.212781
      6 O                    -0.173085
      7 C                    -0.057540
      8 C                    -0.059474
      9 O                    -0.170499
     10 C                     0.213495
     11 C                    -0.077856
     12 C                    -0.081375
     13 C                     0.216147
     14 O                    -0.216568
     15 O                    -0.165801
     16 O                    -0.177982
     17 O                    -0.210206
     18 C                    -0.128623
     19 C                     0.024982
     20 C                    -0.143866
     21 C                    -0.143833
     22 C                     0.024530
     23 O                    -0.189769
     24 H                     0.086768
     25 H                     0.082736
     26 H                     0.084715
     27 H                     0.078020
     28 H                     0.073482
     29 H                     0.077569
     30 H                     0.072753
     31 H                     0.089620
     32 O                    -0.215341
     33 C                    -0.127886
     34 C                     0.024361
     35 C                    -0.143801
     36 C                    -0.144359
     37 C                     0.027067
     38 O                    -0.186135
     39 H                     0.086957
     40 H                     0.084715
     41 H                     0.092713
     42 H                     0.089833
     43 H                     0.078643
     44 H                     0.073251
     45 H                     0.078660
     46 H                     0.073961
     47 H                     0.086612
     48 H                     0.091535
     49 H                     0.094166
     50 H                     0.084874
     51 H                     0.085965
     52 H                     0.091914
     53 H                     0.106869
     54 H                     0.086535
     55 H                     0.097904
     56 H                     0.092450
  ----------------------------------------
  Sum of atomic charges =    -0.000000

                    Cartesian Multipole Moments
 -----------------------------------------------------------------
    Charge (ESU x 10^10)
                -0.0000
    Dipole Moment (Debye)
         X       2.5086      Y      -1.8357      Z       2.4054
       Tot       3.9305
    Quadrupole Moments (Debye-Ang)
        XX    -136.8501     XY       8.2528     YY    -165.2777
        XZ      -4.0015     YZ      -0.8465     ZZ    -153.2132

 Total job time:  81.27s(wall), 3865.48s(cpu)
        *  Thank you very much for using Q-Chem.  Have a nice day.  *
