 Q-Chem 5.0, Q-Chem, Inc., Pleasanton, CA (2017)
 Q-Chem 5.0.1 for Intel X86 EM64T Linux

User input:
--------------------------------------------------------------
$molecule
0  1
O -3.94934 -3.66094 2.70899
C -3.26408 -4.56952 2.26188
C -3.36658 -6.02376 2.66595
C -4.45354 -6.86836 1.9811
C -5.1996 -6.21142 0.84096
O -4.31166 -5.73216 -0.07953
C -4.93946 -5.27086 -1.28049
C -4.07103 -4.21401 -1.95505
O -4.70546 -3.75486 -3.15902
C -4.54695 -4.55423 -4.24301
C -4.95629 -3.88422 -5.53304
C -4.77698 -4.74274 -6.79362
C -4.56526 -6.22492 -6.55904
O -5.18339 -6.91118 -5.75809
O -2.41465 -4.34135 1.24743
O -3.61717 -6.76605 -7.33994
O -3.95642 -5.62156 -4.15371
C -3.32839 -8.11213 -7.28467
C -6.44302 -3.48988 -5.67662
C -6.54995 -2.35415 -6.70549
C -6.27351 -3.10673 -7.99141
C -6.14625 -4.53954 -7.45813
O -7.03411 -4.56948 -6.3626
H -4.32623 -2.96913 -5.58301
H -3.94267 -4.36531 -7.42435
H -6.94371 -3.22499 -4.71918
H -7.59308 -1.9703 -6.72365
H -5.86638 -1.49707 -6.52568
H -7.15126 -3.02266 -8.66641
H -5.37151 -2.75343 -8.53671
H -6.3633 -5.30236 -8.24407
O -6.41998 -6.12294 0.77756
C -2.20287 -3.07294 0.75651
C -2.11084 -6.84203 2.27863
C -2.02857 -8.09261 3.15693
C -3.13006 -8.93577 2.55203
C -3.60189 -8.0213 1.41962
O -2.41784 -7.37492 1.01164
H -3.48581 -6.01831 3.77092
H -5.2044 -7.22411 2.71888
H -1.85817 -2.45384 1.58861
H -1.16576 -6.25046 2.30833
H -1.04939 -8.59119 2.99306
H -2.14871 -7.8965 4.24228
H -2.69186 -9.86345 2.12724
H -3.93225 -9.2136 3.26609
H -4.1175 -8.58372 0.60477
H -3.15264 -2.67526 0.39824
H -1.45407 -3.10708 -0.04318
H -2.46993 -8.33167 -7.93046
H -4.21327 -8.6781 -7.6193
H -3.08003 -8.35083 -6.23884
H -3.88634 -3.3698 -1.31435
H -3.07729 -4.64779 -2.20282
H -5.93213 -4.81651 -1.07277
H -5.08978 -6.12716 -1.96832
$end

$opt
CONSTRAINT
tors           1           2           3           4     +82.907
tors           3           4           5           6     +53.256
tors           4           5           6           7    +171.392
tors           5           6           7           8    +154.020
tors           6           7           8           9    -180.000
tors           7           8           9          10     -80.857
tors           8           9          10          11    -166.973
tors           9          10          11          12    +179.188
tors          11          12          13          14     +43.052
ENDCONSTRAINT
$end

$rem
JOBTYPE                   OPT
METHOD                    B3LYP
DFT_D                     d3_op
BASIS                     STO-3G
GEOM_OPT_MAX_CYCLES       100
GEOM_OPT_TOL_GRADIENT     300
GEOM_OPT_TOL_DISPLACEMENT 1200
GEOM_OPT_TOL_ENERGY       100
SYMMETRY                  False
THRESH                    12
SCF_CONVERGENCE           8
MAX_SUB_FILE_NUM          128
MEM_STATIC                400
MEM_TOTAL                 4000
$end
--------------------------------------------------------------

   15   -1510.1575004778      7.52E-09 Convergence criterion met
 Total energy in the final basis set = -1510.15750048
   14   -1510.2271141736      2.03E-09 Convergence criterion met
 Total energy in the final basis set = -1510.22711417
   14   -1510.2602365338      8.82E-09 Convergence criterion met
 Total energy in the final basis set = -1510.26023653
   14   -1510.2711302874      9.90E-09 Convergence criterion met
 Total energy in the final basis set = -1510.27113029
   14   -1510.2743495564      6.24E-09 Convergence criterion met
 Total energy in the final basis set = -1510.27434956
   12   -1510.2751958676      8.52E-09 Convergence criterion met
 Total energy in the final basis set = -1510.27519587
   12   -1510.2754493877      6.43E-09 Convergence criterion met
 Total energy in the final basis set = -1510.27544939
   12   -1510.2756310251      6.22E-09 Convergence criterion met
   11   -1510.2761914290      8.36E-09 Convergence criterion met
 Total energy in the final basis set = -1510.27619143
   11   -1510.2762157531      7.01E-09 Convergence criterion met
 Total energy in the final basis set = -1510.27621575
   11   -1510.2762317737      3.82E-09 Convergence criterion met
 Total energy in the final basis set = -1510.27623177
   11   -1510.2762474075      4.23E-09 Convergence criterion met
 Total energy in the final basis set = -1510.27624741
   11   -1510.2762515140      3.37E-09 Convergence criterion met
 Total energy in the final basis set = -1510.27625151
    9   -1510.2762545095      6.05E-09 Convergence criterion met
 Total energy in the final basis set = -1510.27625451

             Standard Nuclear Orientation (Angstroms)
    I     Atom           X                Y                Z
 ----------------------------------------------------------------
    1      O       3.9811570637    -2.7037901970     0.1788582770
    2      C       4.1637981031    -1.5382571185     0.5944981882
    3      C       5.0415908926    -0.4300074073    -0.0970116902
    4      C       4.2986396743     0.3602635780    -1.2589220466
    5      C       2.8732209422    -0.1540572700    -1.6399157557
    6      O       2.0630447346    -0.2214426573    -0.4602918397
    7      C       0.6508208997    -0.5068510799    -0.8195024508
    8      C      -0.0114064061    -1.2117198668     0.4153244769
    9      O      -1.4343444574    -1.5430042367     0.1608030402
   10      C      -2.2596472186    -0.3840271840     0.3616401278
   11      C      -3.7484502488    -0.8722074870     0.4093793414
   12      C      -4.8311145642     0.2535156176     0.6450773119
   13      C      -4.3686785393     1.7057706045     0.2596830636
   14      O      -3.7330565820     2.0700641575    -0.7512620582
   15      O       3.6588015024    -1.0503428828     1.8419135715
   16      O      -4.8439873357     2.6009815770     1.2749980853
   17      O      -1.8056944477     0.7539747207     0.6057009443
   18      C      -4.4491537583     3.9892081451     0.9427939810
   19      C      -4.3010003479    -1.5784750749    -0.9097414471
   20      C      -5.4288981883    -2.5836681300    -0.4557916051
   21      C      -6.5564145962    -1.5765468641    -0.0158799620
   22      C      -5.9175015352    -0.1910238625    -0.4321501584
   23      O      -5.0680211041    -0.5183199304    -1.6014343384
   24      H      -3.7885271055    -1.5978577916     1.2436997809
   25      H      -5.2215884400     0.2566444981     1.6772909452
   26      H      -3.5203677259    -1.9988896001    -1.5728237797
   27      H      -5.7531954163    -3.2029302987    -1.3075091461
   28      H      -5.1011912077    -3.2467352984     0.3607282130
   29      H      -7.4955972948    -1.7513467009    -0.5643474723
   30      H      -6.7661437982    -1.6220834794     1.0649512348
   31      H      -6.6469981902     0.5998359804    -0.6936653253
   32      O       2.4665113182    -0.4290224756    -2.7903061022
   33      C       2.9149129001    -2.1219204637     2.5405524122
   34      C       5.3916111444     0.7625986990     0.8868352576
   35      C       6.5315714203     1.6444638886     0.2353861546
   36      C       5.7207222372     2.4479454233    -0.8477260479
   37      C       4.2782676399     1.8355986168    -0.6531995019
   38      O       4.1885666238     1.6243117742     0.8067421332
   39      H       5.9470503073    -0.9266462903    -0.4900306366
   40      H       4.8984164815     0.3324993819    -2.1856786647
   41      H       3.6037637746    -2.8929465058     2.9440607022
   42      H       5.5743333207     0.4511376409     1.9324981327
   43      H       6.9778080804     2.3143886642     0.9872712758
   44      H       7.3301969088     1.0266242423    -0.2053858260
   45      H       5.7121853038     3.5276186601    -0.6286225826
   46      H       6.1033693262     2.2957024732    -1.8694549835
   47      H       3.4418929222     2.4685677864    -1.0080566574
   48      H       2.1878827758    -2.6215490824     1.8708765534
   49      H       2.3814913782    -1.6320469989     3.3758376220
   50      H      -4.8191212101     4.6199811126     1.7718948666
   51      H      -4.9036948217     4.3271295253    -0.0111013872
   52      H      -3.3476215231     4.0896875435     0.8608642979
   53      H       0.4888888189    -2.1818986410     0.6059655415
   54      H       0.0914738375    -0.5580529965     1.3075208947
   55      H       0.6019312739    -1.1495221397    -1.7242319231
   56      H       0.1191262649     0.4464221265    -1.0306931417
 ----------------------------------------------------------------

    9   -1510.2762550189      6.25E-09 Convergence criterion met
 Total energy in the final basis set = -1510.27625502
 Final energy is   -1510.27625501887
 **  OPTIMIZATION CONVERGED  **

                    Orbital Energies (a.u.)
 --------------------------------------------------------------

 Alpha MOs
 -- Occupied --
-18.935 -18.933 -18.933 -18.926 -18.889 -18.887 -18.882 -18.876
-18.868 -18.866 -10.103 -10.099 -10.097 -10.091 -10.075 -10.067
-10.063 -10.061 -10.061 -10.060 -10.057 -10.057 -10.040 -10.038
-10.037 -10.036 -10.021 -10.020 -10.020 -10.018  -1.017  -1.012
 -1.006  -1.002  -0.971  -0.969  -0.942  -0.936  -0.932  -0.926
 -0.764  -0.762  -0.727  -0.722  -0.714  -0.706  -0.694  -0.660
 -0.658  -0.615  -0.596  -0.582  -0.546  -0.544  -0.538  -0.536
 -0.516  -0.512  -0.484  -0.474  -0.464  -0.461  -0.451  -0.439
 -0.433  -0.431  -0.428  -0.413  -0.408  -0.406  -0.405  -0.400
 -0.392  -0.383  -0.371  -0.368  -0.358  -0.356  -0.354  -0.348
 -0.345  -0.338  -0.335  -0.331  -0.330  -0.323  -0.320  -0.313
 -0.306  -0.305  -0.304  -0.302  -0.296  -0.288  -0.284  -0.276
 -0.273  -0.257  -0.251  -0.247  -0.246  -0.234  -0.232  -0.186
 -0.174  -0.173  -0.169  -0.157  -0.156  -0.147  -0.145  -0.142
 -0.140

          Ground-State Mulliken Net Atomic Charges

     Atom                 Charge (a.u.)
  ----------------------------------------
      1 O                    -0.220093
      2 C                     0.210637
      3 C                    -0.078147
      4 C                    -0.079596
      5 C                     0.208145
      6 O                    -0.170418
      7 C                    -0.053415
      8 C                    -0.047493
      9 O                    -0.174694
     10 C                     0.211128
     11 C                    -0.079000
     12 C                    -0.079405
     13 C                     0.212718
     14 O                    -0.208186
     15 O                    -0.163063
     16 O                    -0.172594
     17 O                    -0.206849
     18 C                    -0.128945
     19 C                     0.026428
     20 C                    -0.141964
     21 C                    -0.145272
     22 C                     0.025632
     23 O                    -0.186093
     24 H                     0.085264
     25 H                     0.086171
     26 H                     0.088326
     27 H                     0.078605
     28 H                     0.073825
     29 H                     0.078420
     30 H                     0.073781
     31 H                     0.082627
     32 O                    -0.210638
     33 C                    -0.127242
     34 C                     0.026080
     35 C                    -0.145123
     36 C                    -0.143186
     37 C                     0.026459
     38 O                    -0.183948
     39 H                     0.084906
     40 H                     0.085522
     41 H                     0.085126
     42 H                     0.088429
     43 H                     0.077659
     44 H                     0.072980
     45 H                     0.078150
     46 H                     0.074148
     47 H                     0.083934
     48 H                     0.088331
     49 H                     0.090439
     50 H                     0.088018
     51 H                     0.086829
     52 H                     0.092045
     53 H                     0.088227
     54 H                     0.095512
     55 H                     0.097367
     56 H                     0.093495
  ----------------------------------------
  Sum of atomic charges =     0.000000

                    Cartesian Multipole Moments
 -----------------------------------------------------------------
    Charge (ESU x 10^10)
                 0.0000
    Dipole Moment (Debye)
         X      -0.0255      Y      -0.4841      Z       2.5329
       Tot       2.5789
    Quadrupole Moments (Debye-Ang)
        XX    -135.2096     XY       7.8192     YY    -156.5052
        XZ      -5.5645     YZ      -5.5328     ZZ    -164.6286

 Total job time:  51.41s(wall), 2440.34s(cpu)
        *  Thank you very much for using Q-Chem.  Have a nice day.  *
