 Q-Chem 5.0, Q-Chem, Inc., Pleasanton, CA (2017)
 Q-Chem 5.0.1 for Intel X86 EM64T Linux

User input:
--------------------------------------------------------------
$molecule
0  1
O 1.2953825616 1.1657812138 1.6345715184
C 2.2693047156 1.0374533091 0.8586334817
C 3.6536285066 0.3992608128 1.2411880961
C 4.2497430917 -0.7055888962 0.2722047599
C 3.3029102732 -1.3501147895 -0.7978713463
O 1.9722360866 -0.8576393195 -0.6495596259
C 1.1028901964 -1.2891723799 -1.7688263201
C -0.2673121998 -1.785465968 -1.1837763765
O -1.3307610151 -0.8378519041 -1.595717295
C -2.0889656628 -0.4198869574 -0.4486300966
C -3.3879678717 0.2992762079 -0.9467064933
C -4.6880742324 -0.1804972364 -0.1800985054
C -4.478653574 -1.4366060711 0.7360456493
O -4.9390806903 -1.6267636265 1.8807137082
O 2.3606544518 1.6894165676 -0.4206762452
O -3.7446464001 -2.4151599791 -0.0144889339
O -1.7325739335 -0.6132898995 0.7344589865
C -3.4582579261 -3.5967729724 0.8290286428
C -3.3556954769 1.8293278109 -0.5073796945
C -4.5452717303 2.5928179568 -1.2150131302
C -5.7718388845 2.1301019095 -0.3436652035
C -5.0702867992 1.1191565041 0.6434458715
O -3.764362872 1.7654466788 0.9138908462
H -3.4716732457 0.1727384643 -2.0397906873
H -5.4832974187 -0.4318679694 -0.906945259
H -2.3631206242 2.3108982443 -0.6042641796
H -4.3935601018 3.6822794872 -1.1575590217
H -4.64520395 2.3057906568 -2.2740348503
H -6.2076393622 2.9726474219 0.2166045631
H -6.5655040583 1.6531471643 -0.9405680084
H -5.6061616761 0.9086116479 1.58967885
O 3.6500615212 -2.1686225489 -1.6792190873
C 1.0659234617 2.3315093184 -0.7435734982
C 4.7833010446 1.5146497384 1.1019709084
C 6.1148857476 1.0025599898 1.7848481216
C 6.6651579691 0.0161825249 0.6876541465
C 5.4908966574 0.0645162463 -0.3659260878
O 5.0882673703 1.4866715657 -0.3470215298
H 3.5644622123 0.0178685489 2.2733560343
H 4.6303445714 -1.5473024412 0.8811722006
H 1.2573432877 3.3818590328 -1.0361233711
H 4.4595466739 2.5285809689 1.4074035635
H 6.8066631116 1.8408137434 1.9632517665
H 5.9154761017 0.4998657584 2.7449070587
H 7.5963688511 0.3958324174 0.2372524834
H 6.8455929356 -0.9999591558 1.0728311465
H 5.753487107 -0.2590070813 -1.3920989554
H 0.404777662 2.2901990522 0.146547561
H 0.5866454635 1.7984853512 -1.5891565281
H -2.9842389433 -4.3415643604 0.1635137014
H -4.3838938292 -4.0220445449 1.2671421709
H -2.7610090701 -3.3394759274 1.6527768251
H -0.5253359273 -2.7903841771 -1.5798267213
H -0.2262596541 -1.8144587982 -0.0718665788
H 1.6329615691 -2.0872972904 -2.3332258498
H 0.9265064431 -0.4220181466 -2.441258556
$end

$rem
JOBTYPE                   OPT
METHOD                    B3LYP
DFT_D                     d3_op
BASIS                     STO-3G
GEOM_OPT_MAX_CYCLES       100
GEOM_OPT_TOL_GRADIENT     300
GEOM_OPT_TOL_DISPLACEMENT 1200
GEOM_OPT_TOL_ENERGY       100
SYMMETRY                  False
THRESH                    12
SCF_CONVERGENCE           8
MAX_SUB_FILE_NUM          128
MEM_STATIC                400
MEM_TOTAL                 4000
$end
--------------------------------------------------------------

   16   -1510.2762782559      3.53E-09 Convergence criterion met
 Total energy in the final basis set = -1510.27627826
   14   -1510.2793185066      9.06E-09 Convergence criterion met
 Total energy in the final basis set = -1510.27931851
   14   -1510.2799937402      3.70E-09 Convergence criterion met
 Total energy in the final basis set = -1510.27999374
   14   -1510.2807102710      3.09E-09 Convergence criterion met
 Total energy in the final basis set = -1510.28071027
   13   -1510.2814879770      6.07E-09 Convergence criterion met
 Total energy in the final basis set = -1510.28148798
   13   -1510.2821628701      7.73E-09 Convergence criterion met
 Total energy in the final basis set = -1510.28216287
   14   -1510.2827302258      2.54E-09 Convergence criterion met
 Total energy in the final basis set = -1510.28273023
   14   -1510.2832385717      5.25E-09 Convergence criterion met
   11   -1510.3000005526      6.19E-09 Convergence criterion met
 Total energy in the final basis set = -1510.30000055
   11   -1510.2999964656      5.38E-09 Convergence criterion met
 Total energy in the final basis set = -1510.29999647
   11   -1510.2999969355      4.63E-09 Convergence criterion met
 Total energy in the final basis set = -1510.29999694
   10   -1510.2999984439      9.60E-09 Convergence criterion met
 Total energy in the final basis set = -1510.29999844
   10   -1510.3000004187      6.03E-09 Convergence criterion met
 Total energy in the final basis set = -1510.30000042
    9   -1510.3000016701      6.34E-09 Convergence criterion met
 Total energy in the final basis set = -1510.30000167

             Standard Nuclear Orientation (Angstroms)
    I     Atom           X                Y                Z
 ----------------------------------------------------------------
    1      O       0.9596493544    -1.2474146104     1.1908814477
    2      C       1.8354282678    -0.3685959918     1.4031456458
    3      C       3.3779889147    -0.5578818797     1.1482137776
    4      C       3.7430060675    -0.5279498497    -0.4039007420
    5      C       2.4826425244    -0.3682870387    -1.3155045392
    6      O       2.1722030921    -1.6615093508    -1.8616907021
    7      C       0.8384558598    -1.6322009422    -2.5084723555
    8      C      -0.2268558204    -2.1909196161    -1.4848573460
    9      O      -1.5898611061    -1.6707399603    -1.7583250702
   10      C      -1.7496865144    -0.3850378712    -1.1546223597
   11      C      -3.2181992561     0.1095003069    -1.3745076709
   12      C      -4.0398038018     0.2225121552    -0.0183981927
   13      C      -3.2078445550    -0.2001157999     1.2462322423
   14      O      -3.0268495438     0.4579620386     2.2932098011
   15      O       1.5792943826     0.9331598403     1.8882134989
   16      O      -2.6885874328    -1.5071036728     0.9983713943
   17      O      -0.8209695252     0.2284504105    -0.5805064336
   18      C      -1.7831245979    -1.9407717324     2.0919581303
   19      C      -3.2476956455     1.6234461219    -1.8563590178
   20      C      -4.6962172083     1.9439357287    -2.3976513873
   21      C      -5.5059480458     2.0606397457    -1.0523521370
   22      C      -4.3752240274     1.7685345277     0.0094523139
   23      O      -3.1688225324     2.3868727222    -0.5909681092
   24      H      -3.7119626860    -0.5691514568    -2.0914151435
   25      H      -4.9523681082    -0.4000060736    -0.0623809423
   26      H      -2.4162174997     1.9063429495    -2.5305417954
   27      H      -4.6972121600     2.8949484805    -2.9535240670
   28      H      -5.0777921697     1.1487159156    -3.0579227713
   29      H      -5.9110171050     3.0755226037    -0.9131288614
   30      H      -6.3350730200     1.3375922080    -0.9907155160
   31      H      -4.5479990230     2.1695548688     1.0271228419
   32      O       1.8267401590     0.6704471518    -1.5463588347
   33      C       0.1185208724     1.1922782402     2.0017710859
   34      C       4.2534746833     0.6512306517     1.6782675136
   35      C       5.7729173896     0.2145697365     1.6641737534
   36      C       6.1047257171     0.3029882572     0.1284231136
   37      C       4.7041773599     0.7353369798    -0.4577529588
   38      O       4.1597815502     1.6398390593     0.5791870659
   39      H       3.6788893099    -1.5223438352     1.5959823510
   40      H       4.2631004598    -1.4557166913    -0.6996651859
   41      H      -0.3259175412     0.6168561736     2.8381357276
   42      H       3.8939818587     1.0925484900     2.6270290921
   43      H       6.3818139860     0.9199744544     2.2515354929
   44      H       5.9165097137    -0.7991828925     2.0709468595
   45      H       6.8619403636     1.0762751241    -0.0769418630
   46      H       6.4549445968    -0.6549191108    -0.2883168913
   47      H       4.7339667488     1.2463693161    -1.4394033647
   48      H      -0.3965807900     0.9345631079     1.0464180914
   49      H       0.0266373560     2.2728831516     2.2115457971
   50      H      -1.8603875086    -3.0421667423     2.1477880379
   51      H      -2.0908126072    -1.4883590174     3.0547545110
   52      H      -0.7340247673    -1.6436646068     1.8463088345
   53      H      -0.3056236862    -3.2927145829    -1.5627828380
   54      H       0.1105523470    -1.9055706320    -0.4587310697
   55      H       0.8955035665    -2.2554068161    -3.4226281266
   56      H       0.5867809081    -0.5824868502    -2.7737455469
 ----------------------------------------------------------------

    9   -1510.3000022688      8.39E-09 Convergence criterion met
 Total energy in the final basis set = -1510.30000227
 Final energy is   -1510.30000226875
 **  OPTIMIZATION CONVERGED  **

                    Orbital Energies (a.u.)
 --------------------------------------------------------------

 Alpha MOs
 -- Occupied --
-18.940 -18.932 -18.928 -18.927 -18.885 -18.885 -18.877 -18.877
-18.873 -18.872 -10.106 -10.100 -10.096 -10.096 -10.062 -10.058
-10.058 -10.057 -10.056 -10.055 -10.039 -10.038 -10.037 -10.036
-10.036 -10.035 -10.019 -10.019 -10.018 -10.018  -1.015  -1.011
 -1.007  -1.002  -0.967  -0.967  -0.937  -0.936  -0.932  -0.931
 -0.763  -0.761  -0.724  -0.721  -0.709  -0.704  -0.691  -0.652
 -0.648  -0.615  -0.594  -0.577  -0.545  -0.543  -0.535  -0.534
 -0.511  -0.505  -0.478  -0.473  -0.462  -0.458  -0.450  -0.443
 -0.434  -0.430  -0.426  -0.422  -0.410  -0.404  -0.398  -0.392
 -0.382  -0.375  -0.371  -0.362  -0.358  -0.356  -0.353  -0.349
 -0.343  -0.338  -0.330  -0.329  -0.327  -0.322  -0.316  -0.308
 -0.307  -0.304  -0.302  -0.297  -0.286  -0.285  -0.283  -0.276
 -0.269  -0.259  -0.246  -0.241  -0.238  -0.232  -0.230  -0.187
 -0.175  -0.171  -0.161  -0.159  -0.154  -0.149  -0.148  -0.141
 -0.141

          Ground-State Mulliken Net Atomic Charges

     Atom                 Charge (a.u.)
  ----------------------------------------
      1 O                    -0.226287
      2 C                     0.220656
      3 C                    -0.076965
      4 C                    -0.078997
      5 C                     0.206304
      6 O                    -0.174163
      7 C                    -0.057334
      8 C                    -0.061309
      9 O                    -0.168510
     10 C                     0.218924
     11 C                    -0.078936
     12 C                    -0.078205
     13 C                     0.210577
     14 O                    -0.214157
     15 O                    -0.158008
     16 O                    -0.174593
     17 O                    -0.217311
     18 C                    -0.150561
     19 C                     0.025396
     20 C                    -0.143937
     21 C                    -0.143973
     22 C                     0.023554
     23 O                    -0.186946
     24 H                     0.086539
     25 H                     0.084950
     26 H                     0.084867
     27 H                     0.078140
     28 H                     0.073141
     29 H                     0.078217
     30 H                     0.072872
     31 H                     0.090069
     32 O                    -0.202012
     33 C                    -0.143455
     34 C                     0.025721
     35 C                    -0.144727
     36 C                    -0.143695
     37 C                     0.025784
     38 O                    -0.183675
     39 H                     0.084217
     40 H                     0.086142
     41 H                     0.082944
     42 H                     0.090415
     43 H                     0.078000
     44 H                     0.072412
     45 H                     0.078001
     46 H                     0.072973
     47 H                     0.085210
     48 H                     0.121659
     49 H                     0.090936
     50 H                     0.081273
     51 H                     0.086767
     52 H                     0.111060
     53 H                     0.084961
     54 H                     0.112102
     55 H                     0.084171
     56 H                     0.098805
  ----------------------------------------
  Sum of atomic charges =    -0.000000

                    Cartesian Multipole Moments
 -----------------------------------------------------------------
    Charge (ESU x 10^10)
                 0.0000
    Dipole Moment (Debye)
         X       0.1029      Y      -2.4670      Z      -0.8284
       Tot       2.6044
    Quadrupole Moments (Debye-Ang)
        XX    -137.6960     XY      -5.7645     YY    -165.4093
        XZ       6.8007     YZ      -2.3952     ZZ    -153.5797

 Total job time:  216.43s(wall), 10331.39s(cpu)
        *  Thank you very much for using Q-Chem.  Have a nice day.  *
