 Q-Chem 5.0, Q-Chem, Inc., Pleasanton, CA (2017)
 Q-Chem 5.0.1 for Intel X86 EM64T Linux

User input:
--------------------------------------------------------------
$molecule
0  1
O -3.94934 -3.66094 2.70899
C -3.26408 -4.56952 2.26188
C -3.36658 -6.02376 2.66595
C -3.45081 -7.06277 1.53581
C -3.24436 -6.5471 0.12884
O -3.09679 -5.18944 0.14923
C -2.70318 -4.64672 -1.11559
C -3.52833 -3.40423 -1.43413
O -2.68836 -2.23943 -1.40987
C -3.13595 -1.21361 -0.64404
C -2.39398 0.07711 -0.8974
C -3.28652 1.31706 -1.05286
C -4.72037 1.16167 -0.5874
O -5.35605 1.99592 0.04069
O -1.97424 -4.21139 1.9416
O -5.43246 0.18119 -1.2079
O -3.89978 -1.3673 0.30243
C -6.7784 -0.0529 -1.01621
C -1.50783 0.53 0.28395
C -0.38718 1.42918 -0.23466
C -1.17473 2.66321 -0.62514
C -2.56237 2.28062 -0.09412
O -2.29661 1.4444 1.00515
H -1.73079 -0.07281 -1.78114
H -3.32763 1.66419 -2.10855
H -1.07773 -0.30979 0.86632
H 0.25118 1.67771 0.64384
H 0.25224 1.0019 -1.03677
H -0.75425 3.53503 -0.07667
H -1.21279 2.87689 -1.71545
H -3.15449 3.19688 0.12114
O -3.20279 -7.27197 -0.85847
C -1.44425 -2.93691 1.88674
C -2.10616 -6.53305 3.40168
C -2.44245 -7.7669 4.23964
C -2.60905 -8.80778 3.15344
C -2.27028 -7.97427 1.91465
O -1.30243 -7.06474 2.37721
H -4.23187 -6.09687 3.36284
H -4.42132 -7.60642 1.53376
H -0.59898 -2.86669 2.60139
H -1.63511 -5.75621 4.04357
H -1.53952 -8.02384 4.83857
H -3.31275 -7.64385 4.91955
H -1.83692 -9.59573 3.30044
H -3.61663 -9.27269 3.0894
H -1.95617 -8.63877 1.07973
H -2.18416 -2.15216 2.14495
H -1.05727 -2.7511 0.86482
H -7.08975 -0.91426 -1.64199
H -7.37007 0.83872 -1.31457
H -6.97466 -0.29591 0.04995
H -3.86165 -3.49383 -2.49123
H -4.47023 -3.36216 -0.84113
H -2.81805 -5.34597 -1.97427
H -1.62226 -4.3885 -1.09466
$end

$opt
CONSTRAINT
tors           1           2           3           4    +130.988
tors           3           4           5           6      -3.698
tors           4           5           6           7    +171.392
tors           5           6           7           8    +135.224
tors           6           7           8           9    +112.371
tors           7           8           9          10    -128.667
tors           8           9          10          11    -166.973
tors           9          10          11          12    +134.100
tors          11          12          13          14    +138.410
ENDCONSTRAINT
$end

$rem
JOBTYPE                   OPT
METHOD                    B3LYP
DFT_D                     d3_op
BASIS                     STO-3G
GEOM_OPT_MAX_CYCLES       100
GEOM_OPT_TOL_GRADIENT     300
GEOM_OPT_TOL_DISPLACEMENT 1200
GEOM_OPT_TOL_ENERGY       100
SYMMETRY                  False
THRESH                    12
SCF_CONVERGENCE           8
MAX_SUB_FILE_NUM          128
MEM_STATIC                400
MEM_TOTAL                 4000
$end
--------------------------------------------------------------

   15   -1510.1291050396      7.38E-09 Convergence criterion met
 Total energy in the final basis set = -1510.12910504
   14   -1510.1979850506      6.51E-09 Convergence criterion met
 Total energy in the final basis set = -1510.19798505
   15   -1510.2345991593      2.00E-09 Convergence criterion met
 Total energy in the final basis set = -1510.23459916
   15   -1510.2551399917      1.44E-09 Convergence criterion met
 Total energy in the final basis set = -1510.25513999
   14   -1510.2638012200      3.48E-09 Convergence criterion met
 Total energy in the final basis set = -1510.26380122
   14   -1510.2681982281      2.47E-09 Convergence criterion met
 Total energy in the final basis set = -1510.26819823
   12   -1510.2707675747      9.11E-09 Convergence criterion met
 Total energy in the final basis set = -1510.27076757
   12   -1510.2723706448      7.70E-09 Convergence criterion met
   12   -1510.2760382381      3.42E-09 Convergence criterion met
 Total energy in the final basis set = -1510.27603824
   11   -1510.2761304518      8.43E-09 Convergence criterion met
 Total energy in the final basis set = -1510.27613045
   11   -1510.2761840069      4.63E-09 Convergence criterion met
 Total energy in the final basis set = -1510.27618401
   10   -1510.2762184481      9.47E-09 Convergence criterion met
 Total energy in the final basis set = -1510.27621845
   10   -1510.2762340862      8.74E-09 Convergence criterion met
 Total energy in the final basis set = -1510.27623409
    9   -1510.2762384156      7.26E-09 Convergence criterion met
 Total energy in the final basis set = -1510.27623842

             Standard Nuclear Orientation (Angstroms)
    I     Atom           X                Y                Z
 ----------------------------------------------------------------
    1      O       1.2953825616     1.1657812138     1.6345715184
    2      C       2.2693047156     1.0374533091     0.8586334817
    3      C       3.6536285066     0.3992608128     1.2411880961
    4      C       4.2497430917    -0.7055888962     0.2722047599
    5      C       3.3029102732    -1.3501147895    -0.7978713463
    6      O       1.9722360866    -0.8576393195    -0.6495596259
    7      C       1.1028901964    -1.2891723799    -1.7688263201
    8      C      -0.2673121998    -1.7854659680    -1.1837763765
    9      O      -1.3307610151    -0.8378519041    -1.5957172950
   10      C      -2.0889656628    -0.4198869574    -0.4486300966
   11      C      -3.3879678717     0.2992762079    -0.9467064933
   12      C      -4.6880742324    -0.1804972364    -0.1800985054
   13      C      -4.4786535740    -1.4366060711     0.7360456493
   14      O      -4.9390806903    -1.6267636265     1.8807137082
   15      O       2.3606544518     1.6894165676    -0.4206762452
   16      O      -3.7446464001    -2.4151599791    -0.0144889339
   17      O      -1.7325739335    -0.6132898995     0.7344589865
   18      C      -3.4582579261    -3.5967729724     0.8290286428
   19      C      -3.3556954769     1.8293278109    -0.5073796945
   20      C      -4.5452717303     2.5928179568    -1.2150131302
   21      C      -5.7718388845     2.1301019095    -0.3436652035
   22      C      -5.0702867992     1.1191565041     0.6434458715
   23      O      -3.7643628720     1.7654466788     0.9138908462
   24      H      -3.4716732457     0.1727384643    -2.0397906873
   25      H      -5.4832974187    -0.4318679694    -0.9069452590
   26      H      -2.3631206242     2.3108982443    -0.6042641796
   27      H      -4.3935601018     3.6822794872    -1.1575590217
   28      H      -4.6452039500     2.3057906568    -2.2740348503
   29      H      -6.2076393622     2.9726474219     0.2166045631
   30      H      -6.5655040583     1.6531471643    -0.9405680084
   31      H      -5.6061616761     0.9086116479     1.5896788500
   32      O       3.6500615212    -2.1686225489    -1.6792190873
   33      C       1.0659234617     2.3315093184    -0.7435734982
   34      C       4.7833010446     1.5146497384     1.1019709084
   35      C       6.1148857476     1.0025599898     1.7848481216
   36      C       6.6651579691     0.0161825249     0.6876541465
   37      C       5.4908966574     0.0645162463    -0.3659260878
   38      O       5.0882673703     1.4866715657    -0.3470215298
   39      H       3.5644622123     0.0178685489     2.2733560343
   40      H       4.6303445714    -1.5473024412     0.8811722006
   41      H       1.2573432877     3.3818590328    -1.0361233711
   42      H       4.4595466739     2.5285809689     1.4074035635
   43      H       6.8066631116     1.8408137434     1.9632517665
   44      H       5.9154761017     0.4998657584     2.7449070587
   45      H       7.5963688511     0.3958324174     0.2372524834
   46      H       6.8455929356    -0.9999591558     1.0728311465
   47      H       5.7534871070    -0.2590070813    -1.3920989554
   48      H       0.4047776620     2.2901990522     0.1465475610
   49      H       0.5866454635     1.7984853512    -1.5891565281
   50      H      -2.9842389433    -4.3415643604     0.1635137014
   51      H      -4.3838938292    -4.0220445449     1.2671421709
   52      H      -2.7610090701    -3.3394759274     1.6527768251
   53      H      -0.5253359273    -2.7903841771    -1.5798267213
   54      H      -0.2262596541    -1.8144587982    -0.0718665788
   55      H       1.6329615691    -2.0872972904    -2.3332258498
   56      H       0.9265064431    -0.4220181466    -2.4412585560
 ----------------------------------------------------------------

    9   -1510.2762385296      4.02E-09 Convergence criterion met
 Total energy in the final basis set = -1510.27623853
 Final energy is   -1510.27623852960
 **  OPTIMIZATION CONVERGED  **

                    Orbital Energies (a.u.)
 --------------------------------------------------------------

 Alpha MOs
 -- Occupied --
-18.941 -18.933 -18.928 -18.917 -18.889 -18.887 -18.878 -18.878
-18.874 -18.861 -10.106 -10.100 -10.098 -10.091 -10.072 -10.068
-10.064 -10.061 -10.060 -10.059 -10.057 -10.047 -10.040 -10.038
-10.037 -10.035 -10.021 -10.020 -10.019 -10.019  -1.019  -1.014
 -1.006  -0.997  -0.970  -0.969  -0.942  -0.937  -0.933  -0.922
 -0.764  -0.762  -0.728  -0.722  -0.712  -0.705  -0.697  -0.662
 -0.650  -0.617  -0.597  -0.581  -0.546  -0.543  -0.538  -0.537
 -0.514  -0.511  -0.486  -0.478  -0.468  -0.459  -0.452  -0.437
 -0.433  -0.431  -0.418  -0.416  -0.412  -0.409  -0.407  -0.401
 -0.391  -0.382  -0.377  -0.366  -0.364  -0.359  -0.353  -0.345
 -0.342  -0.339  -0.333  -0.330  -0.329  -0.325  -0.322  -0.315
 -0.311  -0.306  -0.305  -0.299  -0.292  -0.289  -0.286  -0.276
 -0.271  -0.255  -0.247  -0.241  -0.235  -0.233  -0.233  -0.185
 -0.178  -0.170  -0.161  -0.159  -0.156  -0.151  -0.144  -0.143
 -0.143

          Ground-State Mulliken Net Atomic Charges

     Atom                 Charge (a.u.)
  ----------------------------------------
      1 O                    -0.217905
      2 C                     0.218238
      3 C                    -0.078457
      4 C                    -0.079017
      5 C                     0.213074
      6 O                    -0.169160
      7 C                    -0.053311
      8 C                    -0.056719
      9 O                    -0.177059
     10 C                     0.215044
     11 C                    -0.077996
     12 C                    -0.078718
     13 C                     0.215446
     14 O                    -0.207951
     15 O                    -0.168992
     16 O                    -0.174500
     17 O                    -0.209482
     18 C                    -0.129120
     19 C                     0.025755
     20 C                    -0.144644
     21 C                    -0.143202
     22 C                     0.024498
     23 O                    -0.185288
     24 H                     0.086602
     25 H                     0.084589
     26 H                     0.081865
     27 H                     0.078189
     28 H                     0.073199
     29 H                     0.078687
     30 H                     0.072949
     31 H                     0.091625
     32 O                    -0.216986
     33 C                    -0.137508
     34 C                     0.026831
     35 C                    -0.145171
     36 C                    -0.142443
     37 C                     0.026308
     38 O                    -0.184453
     39 H                     0.085668
     40 H                     0.084831
     41 H                     0.082782
     42 H                     0.083698
     43 H                     0.078232
     44 H                     0.074112
     45 H                     0.078315
     46 H                     0.073891
     47 H                     0.087220
     48 H                     0.101571
     49 H                     0.077191
     50 H                     0.088260
     51 H                     0.090996
     52 H                     0.092801
     53 H                     0.084466
     54 H                     0.108718
     55 H                     0.101133
     56 H                     0.091295
  ----------------------------------------
  Sum of atomic charges =     0.000000

                    Cartesian Multipole Moments
 -----------------------------------------------------------------
    Charge (ESU x 10^10)
                -0.0000
    Dipole Moment (Debye)
         X      -0.1385      Y      -0.8376      Z      -1.7958
       Tot       1.9863
    Quadrupole Moments (Debye-Ang)
        XX    -147.1174     XY      -1.9800     YY    -153.2372
        XZ      19.3452     YZ      -3.3827     ZZ    -165.2666

 Total job time:  55.70s(wall), 2649.10s(cpu)
        *  Thank you very much for using Q-Chem.  Have a nice day.  *
