 Q-Chem 5.0, Q-Chem, Inc., Pleasanton, CA (2017)
 Q-Chem 5.0.1 for Intel X86 EM64T Linux

User input:
--------------------------------------------------------------
$molecule
0  1
O -3.94934 -3.66094 2.70899
C -3.26408 -4.56952 2.26188
C -3.36658 -6.02376 2.66595
C -2.47362 -7.02594 1.91621
C -1.44955 -6.43998 0.96963
O -0.2456 -7.0601 1.14679
C 0.73503 -6.67317 0.17834
C 2.1014 -7.23195 0.56168
O 2.9392 -7.31729 -0.6018
C 2.73427 -8.40193 -1.38964
C 3.75891 -8.53081 -2.49152
C 4.23523 -9.96431 -2.7681
C 3.38361 -11.06936 -2.17623
O 2.16255 -11.11859 -2.2102
O -2.27902 -4.12907 1.43999
O 4.05584 -12.03355 -1.49449
O 1.65377 -8.97072 -1.39777
C 3.4535 -13.09884 -0.85852
C 3.19591 -8.14857 -3.8758
C 4.34294 -7.75403 -4.80517
C 4.99808 -9.10186 -5.03073
C 4.01016 -10.01268 -4.29145
O 2.77033 -9.36387 -4.43768
H 4.60655 -7.8447 -2.2607
H 5.29917 -10.14086 -2.49367
H 2.43713 -7.33662 -3.83103
H 3.88153 -7.41847 -5.76176
H 5.01762 -6.95616 -4.42692
H 4.99485 -9.31458 -6.1228
H 6.02718 -9.20501 -4.62334
H 4.06466 -11.05059 -4.68967
O -1.77514 -5.92655 -0.09781
C -2.06668 -2.81957 1.05226
C -2.94458 -6.25618 4.12456
C -3.62648 -7.50976 4.66278
C -2.88271 -8.58096 3.8967
C -1.84448 -7.72738 3.15487
O -1.59955 -6.65522 4.0315
H -4.43918 -6.2874 2.52455
H -3.07045 -7.74855 1.31614
H -1.86259 -2.18463 1.94075
H -3.15381 -5.38854 4.78818
H -3.35805 -7.59116 5.74063
H -4.73251 -7.53128 4.55695
H -2.38509 -9.25194 4.63216
H -3.50112 -9.18114 3.19476
H -0.97368 -8.37521 2.91908
H -2.95446 -2.43328 0.50741
H -1.18789 -2.77967 0.37645
H 4.2342 -13.72843 -0.38462
H 2.89305 -13.7158 -1.59313
H 2.76183 -12.73247 -0.06992
H 2.56249 -6.59059 1.34223
H 1.9933 -8.2484 1.00805
H 0.82723 -5.56729 0.07741
H 0.39757 -7.07096 -0.80079
$end

$opt
CONSTRAINT
tors           1           2           3           4    +176.106
tors           3           4           5           6    +134.799
tors           4           5           6           7    +172.965
tors           5           6           7           8    +171.284
tors           6           7           8           9    +157.288
tors           7           8           9          10     -80.857
tors           8           9          10          11    -172.496
tors           9          10          11          12    +140.037
tors          11          12          13          14     +44.832
ENDCONSTRAINT
$end

$rem
JOBTYPE                   OPT
METHOD                    B3LYP
DFT_D                     d3_op
BASIS                     STO-3G
GEOM_OPT_MAX_CYCLES       100
GEOM_OPT_TOL_GRADIENT     300
GEOM_OPT_TOL_DISPLACEMENT 1200
GEOM_OPT_TOL_ENERGY       100
SYMMETRY                  False
THRESH                    12
SCF_CONVERGENCE           8
MAX_SUB_FILE_NUM          128
MEM_STATIC                400
MEM_TOTAL                 4000
$end
--------------------------------------------------------------

   15   -1510.1141178176      6.40E-09 Convergence criterion met
 Total energy in the final basis set = -1510.11411782
   14   -1510.1891422770      5.26E-09 Convergence criterion met
 Total energy in the final basis set = -1510.18914228
   14   -1510.2302999918      8.28E-09 Convergence criterion met
 Total energy in the final basis set = -1510.23029999
   14   -1510.2495546629      7.70E-09 Convergence criterion met
 Total energy in the final basis set = -1510.24955466
   14   -1510.2583717505      5.44E-09 Convergence criterion met
 Total energy in the final basis set = -1510.25837175
   13   -1510.2619560344      5.99E-09 Convergence criterion met
 Total energy in the final basis set = -1510.26195603
    2   -1510.2619560342      2.99E-09 Convergence criterion met
 Total energy in the final basis set = -1510.26195603
   13   -1510.2640960616      4.65E-09 Convergence criterion met
   10   -1510.2698454478      7.65E-09 Convergence criterion met
 Total energy in the final basis set = -1510.26984545
   10   -1510.2698476068      8.05E-09 Convergence criterion met
 Total energy in the final basis set = -1510.26984761
   11   -1510.2698493105      1.47E-09 Convergence criterion met
 Total energy in the final basis set = -1510.26984931
   11   -1510.2698588437      2.02E-09 Convergence criterion met
 Total energy in the final basis set = -1510.26985884
   11   -1510.2698611923      3.04E-09 Convergence criterion met
 Total energy in the final basis set = -1510.26986119
   10   -1510.2698631473      8.62E-09 Convergence criterion met
 Total energy in the final basis set = -1510.26986315

             Standard Nuclear Orientation (Angstroms)
    I     Atom           X                Y                Z
 ----------------------------------------------------------------
    1      O       6.6346601387    -1.9316692573     0.0734219135
    2      C       5.5513429889    -1.3206130214    -0.0536526741
    3      C       5.3091497841    -0.0162702143    -0.8974989779
    4      C       3.8100413715     0.4836295381    -0.9533717595
    5      C       2.7284852869    -0.6409524546    -0.7502010463
    6      O       1.7292048969    -0.1715774732     0.1644135056
    7      C       0.6130249133    -1.1450406649     0.2413377298
    8      C      -0.3081370389    -0.6620044401     1.4218513351
    9      O      -1.6947578598    -1.1704162151     1.3002613581
   10      C      -2.4492477874    -0.3638283341     0.3736443938
   11      C      -3.9339579017    -0.8566619552     0.4639870384
   12      C      -5.0857292419     0.2364334985     0.4207509733
   13      C      -4.6703570187     1.7297910272     0.1840960134
   14      O      -3.8650311947     2.2125606937    -0.6379322755
   15      O       4.3897656819    -1.6058121884     0.7335734767
   16      O      -5.4297366765     2.5238242279     1.1125615442
   17      O      -1.9361574349     0.5195887966    -0.3428621583
   18      C      -5.1206879435     3.9587504084     0.9192918674
   19      C      -4.3257619064    -1.7552039071    -0.7992509324
   20      C      -5.5565090665    -2.6578951258    -0.3961368068
   21      C      -6.7163100853    -1.5945371367    -0.3824860459
   22      C      -5.9389741408    -0.2897630624    -0.8190725766
   23      O      -4.9059210342    -0.7869281320    -1.7530590817
   24      H      -4.0117060123    -1.4496814664     1.3921178361
   25      H      -5.6790320427     0.2083709764     1.3514365456
   26      H      -3.4761031511    -2.2946861425    -1.2611015688
   27      H      -5.7284402524    -3.4322281014    -1.1606628208
   28      H      -5.4130677915    -3.1488247886     0.5795744124
   29      H      -7.5001725749    -1.8409666313    -1.1162094529
   30      H      -7.1821764359    -1.4851268722     0.6097711268
   31      H      -6.5609379328     0.4854863141    -1.3071510280
   32      O       2.6333789645    -1.7078057969    -1.3950405900
   33      C       4.6120730071    -2.7998375265     1.5775176072
   34      C       5.9515950333     1.1741959004    -0.0561182440
   35      C       5.8861645218     2.5205600883    -0.8834771913
   36      C       4.3851491410     2.9456484914    -0.6690157182
   37      C       3.8328831593     1.6801272722     0.0931311014
   38      O       4.9447791751     1.3535649598     1.0169532551
   39      H       5.7646780872    -0.1337326455    -1.8963941034
   40      H       3.6136031282     0.8915799282    -1.9634309793
   41      H       5.5110945358    -2.6830149718     2.2161304313
   42      H       6.9434917937     0.9345447051     0.3744447893
   43      H       6.5850212924     3.2642934950    -0.4691905314
   44      H       6.1326091399     2.3589507122    -1.9452128677
   45      H       4.3102497928     3.8395471276    -0.0290950250
   46      H       3.8532832592     3.1388040604    -1.6142838984
   47      H       2.8858589627     1.8180399097     0.6483737838
   48      H       4.7305675539    -3.7149699484     0.9616245928
   49      H       3.7118364156    -2.8959028055     2.2119624279
   50      H      -5.7268609897     4.5055914634     1.6647550248
   51      H      -5.3895627370     4.3018829668    -0.1007896855
   52      H      -4.0451252390     4.1720162347     1.0870925253
   53      H       0.0699800987    -1.0405186151     2.3921010866
   54      H      -0.2991489039     0.4494127090     1.4308191883
   55      H       0.9891775277    -2.1757296866     0.4141104748
   56      H       0.0356062733    -1.1423183982    -0.7093419613
 ----------------------------------------------------------------

    9   -1510.2698633005      5.75E-09 Convergence criterion met
 Total energy in the final basis set = -1510.26986330
 Final energy is   -1510.26986330051
 **  OPTIMIZATION CONVERGED  **

                    Orbital Energies (a.u.)
 --------------------------------------------------------------

 Alpha MOs
 -- Occupied --
-18.938 -18.930 -18.929 -18.926 -18.892 -18.884 -18.881 -18.875
-18.872 -18.860 -10.099 -10.098 -10.096 -10.094 -10.072 -10.067
-10.065 -10.063 -10.063 -10.062 -10.058 -10.054 -10.040 -10.038
-10.037 -10.032 -10.023 -10.022 -10.019 -10.017  -1.013  -1.012
 -1.006  -1.001  -0.974  -0.968  -0.938  -0.935  -0.930  -0.927
 -0.764  -0.760  -0.726  -0.721  -0.715  -0.705  -0.692  -0.661
 -0.661  -0.616  -0.596  -0.579  -0.546  -0.542  -0.540  -0.535
 -0.516  -0.510  -0.485  -0.473  -0.463  -0.451  -0.449  -0.441
 -0.435  -0.433  -0.430  -0.412  -0.412  -0.409  -0.409  -0.396
 -0.392  -0.380  -0.372  -0.369  -0.362  -0.357  -0.352  -0.344
 -0.341  -0.337  -0.335  -0.331  -0.328  -0.327  -0.317  -0.312
 -0.308  -0.307  -0.303  -0.299  -0.295  -0.292  -0.284  -0.273
 -0.270  -0.257  -0.248  -0.247  -0.244  -0.237  -0.231  -0.180
 -0.178  -0.174  -0.167  -0.163  -0.153  -0.148  -0.146  -0.138
 -0.136

          Ground-State Mulliken Net Atomic Charges

     Atom                 Charge (a.u.)
  ----------------------------------------
      1 O                    -0.214841
      2 C                     0.213549
      3 C                    -0.076845
      4 C                    -0.079515
      5 C                     0.220094
      6 O                    -0.174384
      7 C                    -0.048021
      8 C                    -0.049569
      9 O                    -0.176555
     10 C                     0.204631
     11 C                    -0.080073
     12 C                    -0.079706
     13 C                     0.204305
     14 O                    -0.197561
     15 O                    -0.165336
     16 O                    -0.173733
     17 O                    -0.197506
     18 C                    -0.129690
     19 C                     0.027092
     20 C                    -0.143369
     21 C                    -0.144164
     22 C                     0.026990
     23 O                    -0.184720
     24 H                     0.087032
     25 H                     0.086850
     26 H                     0.083864
     27 H                     0.078785
     28 H                     0.074656
     29 H                     0.078603
     30 H                     0.074514
     31 H                     0.083599
     32 O                    -0.224337
     33 C                    -0.125733
     34 C                     0.024080
     35 C                    -0.145210
     36 C                    -0.142179
     37 C                     0.023427
     38 O                    -0.192238
     39 H                     0.087346
     40 H                     0.083313
     41 H                     0.093030
     42 H                     0.084190
     43 H                     0.077968
     44 H                     0.073980
     45 H                     0.077422
     46 H                     0.074182
     47 H                     0.093036
     48 H                     0.090161
     49 H                     0.090278
     50 H                     0.088728
     51 H                     0.087996
     52 H                     0.088981
     53 H                     0.088863
     54 H                     0.095732
     55 H                     0.088224
     56 H                     0.089781
  ----------------------------------------
  Sum of atomic charges =     0.000000

                    Cartesian Multipole Moments
 -----------------------------------------------------------------
    Charge (ESU x 10^10)
                 0.0000
    Dipole Moment (Debye)
         X      -2.2018      Y       0.2067      Z       1.9304
       Tot       2.9355
    Quadrupole Moments (Debye-Ang)
        XX    -151.9365     XY       8.8208     YY    -151.3590
        XZ      -8.4636     YZ      -4.1414     ZZ    -161.7791

 Total job time:  73.10s(wall), 3471.29s(cpu)
        *  Thank you very much for using Q-Chem.  Have a nice day.  *
