 Q-Chem 5.0, Q-Chem, Inc., Pleasanton, CA (2017)
 Q-Chem 5.0.1 for Intel X86 EM64T Linux

User input:
--------------------------------------------------------------
$molecule
0  1
O 6.6346601387 -1.9316692573 0.0734219135
C 5.5513429889 -1.3206130214 -0.0536526741
C 5.3091497841 -0.0162702143 -0.8974989779
C 3.8100413715 0.4836295381 -0.9533717595
C 2.7284852869 -0.6409524546 -0.7502010463
O 1.7292048969 -0.1715774732 0.1644135056
C 0.6130249133 -1.1450406649 0.2413377298
C -0.3081370389 -0.6620044401 1.4218513351
O -1.6947578598 -1.1704162151 1.3002613581
C -2.4492477874 -0.3638283341 0.3736443938
C -3.9339579017 -0.8566619552 0.4639870384
C -5.0857292419 0.2364334985 0.4207509733
C -4.6703570187 1.7297910272 0.1840960134
O -3.8650311947 2.2125606937 -0.6379322755
O 4.3897656819 -1.6058121884 0.7335734767
O -5.4297366765 2.5238242279 1.1125615442
O -1.9361574349 0.5195887966 -0.3428621583
C -5.1206879435 3.9587504084 0.9192918674
C -4.3257619064 -1.7552039071 -0.7992509324
C -5.5565090665 -2.6578951258 -0.3961368068
C -6.7163100853 -1.5945371367 -0.3824860459
C -5.9389741408 -0.2897630624 -0.8190725766
O -4.9059210342 -0.786928132 -1.7530590817
H -4.0117060123 -1.4496814664 1.3921178361
H -5.6790320427 0.2083709764 1.3514365456
H -3.4761031511 -2.2946861425 -1.2611015688
H -5.7284402524 -3.4322281014 -1.1606628208
H -5.4130677915 -3.1488247886 0.5795744124
H -7.5001725749 -1.8409666313 -1.1162094529
H -7.1821764359 -1.4851268722 0.6097711268
H -6.5609379328 0.4854863141 -1.307151028
O 2.6333789645 -1.7078057969 -1.39504059
C 4.6120730071 -2.7998375265 1.5775176072
C 5.9515950333 1.1741959004 -0.056118244
C 5.8861645218 2.5205600883 -0.8834771913
C 4.385149141 2.9456484914 -0.6690157182
C 3.8328831593 1.6801272722 0.0931311014
O 4.9447791751 1.3535649598 1.0169532551
H 5.7646780872 -0.1337326455 -1.8963941034
H 3.6136031282 0.8915799282 -1.9634309793
H 5.5110945358 -2.6830149718 2.2161304313
H 6.9434917937 0.9345447051 0.3744447893
H 6.5850212924 3.264293495 -0.4691905314
H 6.1326091399 2.3589507122 -1.9452128677
H 4.3102497928 3.8395471276 -0.029095025
H 3.8532832592 3.1388040604 -1.6142838984
H 2.8858589627 1.8180399097 0.6483737838
H 4.7305675539 -3.7149699484 0.9616245928
H 3.7118364156 -2.8959028055 2.2119624279
H -5.7268609897 4.5055914634 1.6647550248
H -5.389562737 4.3018829668 -0.1007896855
H -4.045125239 4.1720162347 1.0870925253
H 0.0699800987 -1.0405186151 2.3921010866
H -0.2991489039 0.449412709 1.4308191883
H 0.9891775277 -2.1757296866 0.4141104748
H 0.0356062733 -1.1423183982 -0.7093419613
$end

$rem
JOBTYPE                   OPT
METHOD                    B3LYP
DFT_D                     d3_op
BASIS                     STO-3G
GEOM_OPT_MAX_CYCLES       100
GEOM_OPT_TOL_GRADIENT     300
GEOM_OPT_TOL_DISPLACEMENT 1200
GEOM_OPT_TOL_ENERGY       100
SYMMETRY                  False
THRESH                    12
SCF_CONVERGENCE           8
MAX_SUB_FILE_NUM          128
MEM_STATIC                400
MEM_TOTAL                 4000
$end
--------------------------------------------------------------

   15   -1510.2698054125      8.85E-09 Convergence criterion met
 Total energy in the final basis set = -1510.26980541
   14   -1510.2721730290      3.40E-09 Convergence criterion met
 Total energy in the final basis set = -1510.27217303
   14   -1510.2737993927      6.59E-09 Convergence criterion met
 Total energy in the final basis set = -1510.27379939
   14   -1510.2748436828      5.70E-09 Convergence criterion met
 Total energy in the final basis set = -1510.27484368
   13   -1510.2760045816      3.87E-09 Convergence criterion met
 Total energy in the final basis set = -1510.27600458
   14   -1510.2769035711      3.81E-09 Convergence criterion met
 Total energy in the final basis set = -1510.27690357
   13   -1510.2777912382      6.80E-09 Convergence criterion met
 Total energy in the final basis set = -1510.27779124
   13   -1510.2785079915      8.60E-09 Convergence criterion met
   13   -1510.2866916354      4.08E-09 Convergence criterion met
 Total energy in the final basis set = -1510.28669164
   12   -1510.2868122015      8.58E-09 Convergence criterion met
 Total energy in the final basis set = -1510.28681220
   13   -1510.2869241190      5.82E-09 Convergence criterion met
 Total energy in the final basis set = -1510.28692412
   13   -1510.2869827165      6.12E-09 Convergence criterion met
 Total energy in the final basis set = -1510.28698272
   11   -1510.2870064987      7.68E-09 Convergence criterion met
 Total energy in the final basis set = -1510.28700650
   11   -1510.2870392710      9.54E-09 Convergence criterion met
 Total energy in the final basis set = -1510.28703927

             Standard Nuclear Orientation (Angstroms)
    I     Atom           X                Y                Z
 ----------------------------------------------------------------
    1      O       4.5127714061    -2.1384253518     1.4283767853
    2      C       4.1203898508    -1.0087676267     1.0653411307
    3      C       4.8734841452    -0.0193033924     0.1098678626
    4      C       4.0958489184     0.3166250030    -1.2349403038
    5      C       2.7011037299    -0.4017084952    -1.2984738938
    6      O       1.7063111614     0.5052267610    -1.7847725532
    7      C       0.3580392914    -0.0856615108    -1.6149149540
    8      C      -0.1582516686     0.2189029309    -0.1554292583
    9      O      -1.2701188554    -0.6753881424     0.2449585075
   10      C      -2.4875143939    -0.2677781077    -0.3958622322
   11      C      -3.6373883144    -1.2154279036     0.0898190082
   12      C      -4.7787334437    -0.4531759032     0.8894114446
   13      C      -4.5136450850     1.0868188543     1.0390119449
   14      O      -5.2872771343     2.0262664047     0.7619158635
   15      O       2.9071021289    -0.3943367415     1.5288263073
   16      O      -3.1945827055     1.2562821940     1.5768503977
   17      O      -2.5657131254     0.6678181663    -1.2217830442
   18      C      -2.8446981859     2.6936185701     1.6325460340
   19      C      -4.4768648659    -1.7860649202    -1.1344901931
   20      C      -5.3553190646    -2.9918364260    -0.6141899171
   21      C      -6.4857429620    -2.2283328813     0.1721517482
   22      C      -6.0377689816    -0.7289564522    -0.0314600158
   23      O      -5.4679237791    -0.7191244814    -1.3990763788
   24      H      -3.1898741295    -2.0216189991     0.6965455366
   25      H      -4.9047305823    -0.8884655787     1.8980468659
   26      H      -3.8799133789    -1.9931363322    -2.0438489066
   27      H      -5.7671277428    -3.5613006459    -1.4625136996
   28      H      -4.7795921334    -3.6781755376     0.0272139187
   29      H      -7.4763631299    -2.3989160577    -0.2785277436
   30      H      -6.5282962186    -2.5091991916     1.2366305598
   31      H      -6.8355725496     0.0338110590     0.0602393683
   32      O       2.4696368543    -1.5903267981    -0.9812287991
   33      C       2.1695076471    -1.3471444939     2.3913942859
   34      C       5.0179378746     1.4377155182     0.7321377570
   35      C       6.1451213379     2.2043798977    -0.0658217049
   36      C       5.3983671084     2.5253543766    -1.4130026062
   37      C       3.9783586293     1.8938654416    -1.1337422906
   38      O       3.7729045136     2.1213359634     0.3160262406
   39      H       5.8596969781    -0.4663796082    -0.1052659663
   40      H       4.6856149893     0.0052950745    -2.1172424847
   41      H       2.8167648317    -1.7614216910     3.1903338860
   42      H       5.1214467131     1.4586407486     1.8342229020
   43      H       6.4311275635     3.1255352063     0.4664732465
   44      H       7.0461006647     1.5874920058    -0.2124519040
   45      H       5.3096578315     3.6110046090    -1.5771729002
   46      H       5.8890178066     2.0748535116    -2.2907976105
   47      H       3.1384757783     2.3174276042    -1.7162925359
   48      H       1.7607181359    -2.1890085365     1.7952392587
   49      H       1.3373270662    -0.7762788074     2.8428790449
   50      H      -1.8615603272     2.7507816133     2.1348838710
   51      H      -3.5931100358     3.2758338523     2.2071379638
   52      H      -2.7661272656     3.1242860318     0.6129266837
   53      H       0.6641928473     0.0215278963     0.5621161032
   54      H      -0.4621635187     1.2840077451    -0.0803627317
   55      H       0.3951123978    -1.1853304013    -1.7691017824
   56      H      -0.3020496829     0.3874276076    -2.3680171123
 ----------------------------------------------------------------

   11   -1510.2870384946      5.98E-09 Convergence criterion met
 Total energy in the final basis set = -1510.28703849
 Final energy is   -1510.28703849463
 **  OPTIMIZATION CONVERGED  **

                    Orbital Energies (a.u.)
 --------------------------------------------------------------

 Alpha MOs
 -- Occupied --
-18.939 -18.936 -18.932 -18.929 -18.888 -18.887 -18.880 -18.879
-18.871 -18.869 -10.105 -10.101 -10.098 -10.096 -10.069 -10.067
-10.065 -10.061 -10.060 -10.059 -10.059 -10.058 -10.041 -10.039
-10.037 -10.037 -10.021 -10.020 -10.020 -10.019  -1.019  -1.015
 -1.007  -1.005  -0.971  -0.970  -0.942  -0.939  -0.933  -0.931
 -0.764  -0.763  -0.727  -0.723  -0.714  -0.706  -0.693  -0.663
 -0.658  -0.620  -0.598  -0.582  -0.547  -0.546  -0.538  -0.537
 -0.514  -0.510  -0.486  -0.476  -0.469  -0.460  -0.452  -0.439
 -0.436  -0.433  -0.429  -0.414  -0.413  -0.411  -0.408  -0.398
 -0.391  -0.380  -0.375  -0.367  -0.361  -0.354  -0.353  -0.349
 -0.348  -0.341  -0.336  -0.332  -0.330  -0.328  -0.321  -0.313
 -0.310  -0.306  -0.305  -0.301  -0.293  -0.288  -0.286  -0.276
 -0.273  -0.263  -0.254  -0.250  -0.245  -0.235  -0.234  -0.190
 -0.179  -0.173  -0.167  -0.160  -0.158  -0.149  -0.148  -0.145
 -0.143

          Ground-State Mulliken Net Atomic Charges

     Atom                 Charge (a.u.)
  ----------------------------------------
      1 O                    -0.211091
      2 C                     0.210934
      3 C                    -0.080277
      4 C                    -0.078042
      5 C                     0.213362
      6 O                    -0.170594
      7 C                    -0.054696
      8 C                    -0.052607
      9 O                    -0.170472
     10 C                     0.210833
     11 C                    -0.079213
     12 C                    -0.078312
     13 C                     0.213767
     14 O                    -0.206115
     15 O                    -0.173572
     16 O                    -0.172398
     17 O                    -0.220170
     18 C                    -0.129551
     19 C                     0.025570
     20 C                    -0.143899
     21 C                    -0.143995
     22 C                     0.024305
     23 O                    -0.186446
     24 H                     0.086351
     25 H                     0.085153
     26 H                     0.082901
     27 H                     0.078242
     28 H                     0.073651
     29 H                     0.078460
     30 H                     0.072983
     31 H                     0.090655
     32 O                    -0.215004
     33 C                    -0.130951
     34 C                     0.025877
     35 C                    -0.143810
     36 C                    -0.144416
     37 C                     0.023080
     38 O                    -0.188588
     39 H                     0.085104
     40 H                     0.085909
     41 H                     0.090498
     42 H                     0.083357
     43 H                     0.077851
     44 H                     0.074054
     45 H                     0.078192
     46 H                     0.073387
     47 H                     0.093290
     48 H                     0.092133
     49 H                     0.089000
     50 H                     0.090719
     51 H                     0.091335
     52 H                     0.092519
     53 H                     0.096841
     54 H                     0.090245
     55 H                     0.096049
     56 H                     0.097613
  ----------------------------------------
  Sum of atomic charges =     0.000000

                    Cartesian Multipole Moments
 -----------------------------------------------------------------
    Charge (ESU x 10^10)
                 0.0000
    Dipole Moment (Debye)
         X       1.1700      Y      -0.2245      Z       1.0119
       Tot       1.5631
    Quadrupole Moments (Debye-Ang)
        XX    -156.1276     XY      20.4928     YY    -162.2209
        XZ     -13.3248     YZ       2.3247     ZZ    -156.0497

 Total job time:  89.58s(wall), 4262.76s(cpu)
        *  Thank you very much for using Q-Chem.  Have a nice day.  *
