 Q-Chem 5.0, Q-Chem, Inc., Pleasanton, CA (2017)
 Q-Chem 5.0.1 for Intel X86 EM64T Linux

User input:
--------------------------------------------------------------
$molecule
0  1
O -5.5875053452 -0.4933257384 2.568913385
C -5.3048314459 -0.7186185969 1.3722930336
C -5.5748302732 0.2342460968 0.1544530388
C -4.4712684811 1.3587777455 -0.051497815
C -3.1314530446 1.0474807256 0.7146163051
O -2.0144026214 1.4524875343 -0.0873726002
C -0.7735784401 1.4879287258 0.7246870562
C 0.2296949551 0.402456218 0.1975324699
O 1.5930762795 0.9001450556 0.5059589868
C 2.5790062276 0.0101850212 -0.0427351051
C 3.952889275 0.4068217642 0.601215715
C 5.1448370898 -0.609942909 0.4010898998
C 5.0213516272 -1.5461251841 -0.8548322324
O 4.6618150232 -1.2468437023 -2.0120771808
O -4.6282400837 -1.8938283868 0.9121346984
O 5.429927037 -2.8637079291 -0.457454768
O 2.2953646913 -0.9566299133 -0.7801499804
C 5.3507428889 -3.7835805554 -1.6154928744
C 4.6075155556 1.772846517 0.0980294761
C 5.4406144854 2.3504359886 1.3064246828
C 6.616761457 1.3057638806 1.3712604307
C 6.3203548091 0.4204384509 0.0939216195
O 5.6616254832 1.3530148547 -0.8512497467
H 3.7409782079 0.4995081096 1.682467499
H 5.3283348253 -1.2262918363 1.2980581745
H 3.9031585102 2.4797775481 -0.3814519526
H 5.8128251026 3.3590668475 1.0646828191
H 4.8568990924 2.4010622097 2.2392223706
H 7.6007898389 1.7930913849 1.286150901
H 6.5994420008 0.7066043258 2.2958510498
H 7.2134446244 -0.0368057425 -0.374738902
O -3.0174586992 0.5543522739 1.8584937693
C -4.2635403285 -2.7458481198 2.0663774751
C -5.5930430994 -0.4448254724 -1.2823943911
C -6.4829578125 0.4634593012 -2.2173362165
C -5.5488698433 1.7196707466 -2.3803412973
C -4.2489319193 1.2450973995 -1.6174280514
O -4.2276331709 -0.2245352265 -1.8141384157
H -6.5461651194 0.7214543964 0.3566479333
H -4.8349097055 2.3538089959 0.2660049733
H -5.160006842 -3.0927319491 2.6200116438
H -5.8405957006 -1.5234611469 -1.2811339486
H -6.6568284922 -0.0367460593 -3.1835815981
H -7.4567847222 0.7085752127 -1.7642396474
H -5.3218970635 1.9232533784 -3.4386905156
H -5.9812733447 2.6291092541 -1.9326451756
H -3.3002764407 1.6965492486 -1.9641324926
H -3.601066431 -2.203345861 2.7715770898
H -3.7279885383 -3.6168644469 1.6458173534
H 5.63432924 -4.7818575973 -1.2342299323
H 6.0488688355 -3.4844230519 -2.4241271812
H 4.3248002255 -3.8217268484 -2.0351361058
H 0.0473749093 -0.5809499637 0.6822983136
H 0.0933403192 0.272254959 -0.8991495614
H -1.0216330653 1.3145908097 1.7926493665
H -0.3206692668 2.49380571 0.594732013
$end

$rem
JOBTYPE                   OPT
METHOD                    B3LYP
DFT_D                     d3_op
BASIS                     STO-3G
GEOM_OPT_MAX_CYCLES       100
GEOM_OPT_TOL_GRADIENT     300
GEOM_OPT_TOL_DISPLACEMENT 1200
GEOM_OPT_TOL_ENERGY       100
SYMMETRY                  False
THRESH                    12
SCF_CONVERGENCE           8
MAX_SUB_FILE_NUM          128
MEM_STATIC                400
MEM_TOTAL                 4000
$end
--------------------------------------------------------------

   16   -1510.2704968507      3.12E-09 Convergence criterion met
 Total energy in the final basis set = -1510.27049685
   13   -1510.2737072545      8.75E-09 Convergence criterion met
 Total energy in the final basis set = -1510.27370725
   13   -1510.2760116858      5.51E-09 Convergence criterion met
 Total energy in the final basis set = -1510.27601169
   14   -1510.2778880547      9.87E-10 Convergence criterion met
 Total energy in the final basis set = -1510.27788805
   13   -1510.2793830313      9.06E-09 Convergence criterion met
 Total energy in the final basis set = -1510.27938303
   13   -1510.2805954682      3.98E-09 Convergence criterion met
 Total energy in the final basis set = -1510.28059547
   13   -1510.2817803089      3.11E-09 Convergence criterion met
 Total energy in the final basis set = -1510.28178031
   13   -1510.2826916099      3.33E-09 Convergence criterion met
   12   -1510.2862504831      7.16E-09 Convergence criterion met
 Total energy in the final basis set = -1510.28625048
   14   -1510.2862157465      1.03E-09 Convergence criterion met
 Total energy in the final basis set = -1510.28621575
   13   -1510.2863142108      4.23E-09 Convergence criterion met
 Total energy in the final basis set = -1510.28631421
   12   -1510.2862921239      6.27E-09 Convergence criterion met
 Total energy in the final basis set = -1510.28629212
   12   -1510.2863366256      7.43E-09 Convergence criterion met
 Total energy in the final basis set = -1510.28633663
   12   -1510.2863553129      2.53E-09 Convergence criterion met
 Total energy in the final basis set = -1510.28635531

             Standard Nuclear Orientation (Angstroms)
    I     Atom           X                Y                Z
 ----------------------------------------------------------------
    1      O      -4.5935703372    -0.8851312396     2.5968855411
    2      C      -4.2994793588    -0.9685902934     1.3848194737
    3      C      -5.0489398957    -0.2714549984     0.1893679174
    4      C      -4.2749962681     0.9611221521    -0.4386396297
    5      C      -2.8975174366     1.2373922904     0.2518009587
    6      O      -2.1635173485     2.1786115702    -0.5397687553
    7      C      -0.8282801295     2.4169980354     0.0614279524
    8      C       0.1861031306     1.3110131409    -0.3967711177
    9      O       1.4171428372     1.5088503128     0.4105651953
   10      C       2.4090676420     0.5556721854     0.0224042405
   11      C       3.6778394867     0.7560456540     0.9137785684
   12      C       4.7700339320    -0.3649636271     0.6774283169
   13      C       4.3357602999    -1.5077175512    -0.3147893315
   14      O       4.7607569793    -1.7078588464    -1.4718230181
   15      O      -3.2832062894    -1.8302087272     0.8541148437
   16      O       3.4594273987    -2.3949635524     0.3984650156
   17      O       2.2515941181    -0.2774787689    -0.8981470879
   18      C       2.9670296133    -3.4504439170    -0.5133750063
   19      C       4.4841465013     2.0545607488     0.4707320296
   20      C       5.5656405523     2.3757018573     1.5770548435
   21      C       6.6464205279     1.2715841792     1.2785417178
   22      C       5.9636146348     0.4951372819     0.0860957717
   23      O       5.2821544721     1.5692212338    -0.6763293741
   24      H       3.3627682888     0.8166924884     1.9708734403
   25      H       5.0466182686    -0.8360639461     1.6375371456
   26      H       3.8440660998     2.9080156231     0.1731974333
   27      H       5.9713907242     3.3898407740     1.4342708825
   28      H       5.1500644628     2.3021092087     2.5948597944
   29      H       7.5995058502     1.7182876193     0.9535351433
   30      H       6.8378418412     0.6180090301     2.1445544820
   31      H       6.6441948801    -0.0730258747    -0.5771715817
   32      O      -2.4767196766     0.7518135320     1.3256435762
   33      C      -2.5283051080    -2.4529007441     1.9630525140
   34      C      -5.1759769603    -1.2144986663    -1.0849162184
   35      C      -6.2791625409    -0.6138998870    -2.0446086368
   36      C      -5.5126035913     0.6162873389    -2.6569671085
   37      C      -4.1088065978     0.4840573569    -1.9464167847
   38      O      -3.9123593031    -0.9765422260    -1.8206570751
   39      H      -6.0389225342     0.0431022306     0.5641268986
   40      H      -4.8778487245     1.8863913407    -0.3837962568
   41      H      -3.1924943529    -3.0269612621     2.6411367069
   42      H      -5.2891872752    -2.2903108685    -0.8504494604
   43      H      -6.5531315586    -1.3459305979    -2.8209244367
   44      H      -7.1895277114    -0.3204117572    -1.4981670886
   45      H      -5.4026372744     0.5226793997    -3.7490978186
   46      H      -5.9996870686     1.5781008657    -2.4309115709
   47      H      -3.2570714267     0.9535323941    -2.4760518678
   48      H      -1.9899353188    -1.6880701689     2.5597616078
   49      H      -1.7982975878    -3.1360633977     1.4911694094
   50      H       2.3665540442    -4.1402160861     0.1080641374
   51      H       3.8014881482    -4.0062044977    -0.9878428974
   52      H       2.3292573012    -3.0209023816    -1.3132828577
   53      H      -0.2448977751     0.3033499252    -0.2071328125
   54      H       0.4018322830     1.3951723430    -1.4836761927
   55      H      -0.8925780452     2.4115884552     1.1704532294
   56      H      -0.5026934913     3.4156192913    -0.2916467060
 ----------------------------------------------------------------

   11   -1510.2863558599      3.48E-09 Convergence criterion met
 Total energy in the final basis set = -1510.28635586
 Final energy is   -1510.28635585990
 **  OPTIMIZATION CONVERGED  **

                    Orbital Energies (a.u.)
 --------------------------------------------------------------

 Alpha MOs
 -- Occupied --
-18.947 -18.942 -18.920 -18.917 -18.892 -18.889 -18.887 -18.887
-18.859 -18.859 -10.112 -10.107 -10.090 -10.088 -10.082 -10.079
-10.062 -10.062 -10.060 -10.056 -10.054 -10.052 -10.043 -10.041
-10.034 -10.032 -10.022 -10.021 -10.020 -10.019  -1.026  -1.020
 -0.998  -0.995  -0.971  -0.970  -0.950  -0.944  -0.924  -0.922
 -0.765  -0.763  -0.731  -0.723  -0.716  -0.706  -0.698  -0.653
 -0.652  -0.621  -0.596  -0.582  -0.547  -0.545  -0.539  -0.537
 -0.517  -0.510  -0.489  -0.471  -0.467  -0.455  -0.453  -0.450
 -0.435  -0.434  -0.430  -0.409  -0.408  -0.403  -0.402  -0.400
 -0.396  -0.388  -0.374  -0.366  -0.362  -0.356  -0.352  -0.342
 -0.341  -0.339  -0.334  -0.332  -0.331  -0.327  -0.324  -0.317
 -0.311  -0.307  -0.305  -0.301  -0.299  -0.282  -0.276  -0.275
 -0.274  -0.264  -0.258  -0.243  -0.242  -0.235  -0.234  -0.190
 -0.186  -0.166  -0.164  -0.162  -0.160  -0.146  -0.144  -0.140
 -0.139

          Ground-State Mulliken Net Atomic Charges

     Atom                 Charge (a.u.)
  ----------------------------------------
      1 O                    -0.219166
      2 C                     0.213122
      3 C                    -0.081687
      4 C                    -0.078123
      5 C                     0.214740
      6 O                    -0.170640
      7 C                    -0.048966
      8 C                    -0.048995
      9 O                    -0.172783
     10 C                     0.215635
     11 C                    -0.077955
     12 C                    -0.081376
     13 C                     0.215942
     14 O                    -0.216306
     15 O                    -0.171572
     16 O                    -0.177535
     17 O                    -0.204196
     18 C                    -0.128750
     19 C                     0.025126
     20 C                    -0.143848
     21 C                    -0.143848
     22 C                     0.024640
     23 O                    -0.189074
     24 H                     0.087452
     25 H                     0.083619
     26 H                     0.083548
     27 H                     0.078050
     28 H                     0.073627
     29 H                     0.078013
     30 H                     0.073408
     31 H                     0.089911
     32 O                    -0.206675
     33 C                    -0.128057
     34 C                     0.026799
     35 C                    -0.144304
     36 C                    -0.143744
     37 C                     0.024714
     38 O                    -0.187081
     39 H                     0.083340
     40 H                     0.087127
     41 H                     0.086385
     42 H                     0.086209
     43 H                     0.078231
     44 H                     0.073854
     45 H                     0.078527
     46 H                     0.073427
     47 H                     0.087596
     48 H                     0.090939
     49 H                     0.087273
     50 H                     0.085237
     51 H                     0.087076
     52 H                     0.091913
     53 H                     0.094180
     54 H                     0.092036
     55 H                     0.100346
     56 H                     0.092640
  ----------------------------------------
  Sum of atomic charges =    -0.000000

                    Cartesian Multipole Moments
 -----------------------------------------------------------------
    Charge (ESU x 10^10)
                 0.0000
    Dipole Moment (Debye)
         X      -1.1501      Y       1.5445      Z       0.9538
       Tot       2.1489
    Quadrupole Moments (Debye-Ang)
        XX    -151.4192     XY      -0.7223     YY    -151.2102
        XZ      23.0637     YZ      -1.6847     ZZ    -167.7808

 Total job time:  86.12s(wall), 4091.67s(cpu)
        *  Thank you very much for using Q-Chem.  Have a nice day.  *
