 Q-Chem 5.0, Q-Chem, Inc., Pleasanton, CA (2017)
 Q-Chem 5.0.1 for Intel X86 EM64T Linux

User input:
--------------------------------------------------------------
$molecule
0  1
O -3.94934 -3.66094 2.70899
C -3.26408 -4.56952 2.26188
C -3.36658 -6.02376 2.66595
C -4.45354 -6.86836 1.9811
C -5.1996 -6.21142 0.84096
O -5.44115 -7.12644 -0.14382
C -6.40646 -6.68062 -1.10229
C -5.75274 -6.5196 -2.47082
O -6.72625 -6.72885 -3.50589
C -6.24361 -6.70842 -4.77308
C -7.33224 -6.61895 -5.81594
C -6.84444 -6.28926 -7.23426
C -5.35685 -6.44947 -7.47533
O -4.67142 -7.38213 -7.08178
O -2.26838 -4.24515 1.39274
O -4.74678 -5.4162 -8.11304
O -5.06989 -6.4114 -4.94713
C -3.39643 -5.36138 -8.38806
C -8.04932 -7.95922 -6.05403
C -9.43213 -7.70011 -6.64986
C -9.05632 -7.23625 -8.04302
C -7.53656 -7.43565 -7.99826
O -7.36314 -8.53512 -7.13635
H -8.06557 -5.86158 -5.45561
H -7.16815 -5.29023 -7.60278
H -8.13174 -8.58266 -5.13687
H -9.94288 -8.6866 -6.72955
H -10.07563 -7.00038 -6.07435
H -9.52118 -7.92847 -8.77977
H -9.32521 -6.18496 -8.28392
H -7.13112 -7.5576 -9.02759
O -5.78946 -5.14479 0.96936
C -2.01583 -2.96908 0.93439
C -2.11065 -6.85276 2.29019
C -1.98194 -8.055 3.22171
C -3.13085 -8.90622 2.73585
C -3.59679 -8.07991 1.53029
O -2.42822 -7.45852 1.06223
H -3.43141 -6.02715 3.77746
H -5.23779 -7.16042 2.71395
H -1.76929 -2.29816 1.78486
H -1.1634 -6.27103 2.3184
H -1.02691 -8.5646 2.95835
H -1.98454 -7.82836 4.30956
H -2.72415 -9.89102 2.41445
H -3.95459 -9.0555 3.46715
H -4.10545 -8.76338 0.81824
H -2.90121 -2.5768 0.38972
H -1.15199 -2.99692 0.23908
H -3.17055 -4.41136 -8.91429
H -3.10437 -6.21101 -9.04167
H -2.81186 -5.39517 -7.4438
H -5.23664 -5.53641 -2.54456
H -4.99753 -7.33446 -2.56374
H -7.00393 -5.77275 -0.86436
H -7.14139 -7.51146 -1.17036
$end

$opt
CONSTRAINT
tors           1           2           3           4     +82.907
tors           3           4           5           6    +141.930
tors           4           5           6           7    +165.960
tors           5           6           7           8    +115.009
tors           6           7           8           9    +151.659
tors           7           8           9          10    -175.384
tors           8           9          10          11    -166.973
tors           9          10          11          12    +167.403
tors          11          12          13          14     +43.052
ENDCONSTRAINT
$end

$rem
JOBTYPE                   OPT
METHOD                    B3LYP
DFT_D                     d3_op
BASIS                     STO-3G
GEOM_OPT_MAX_CYCLES       100
GEOM_OPT_TOL_GRADIENT     300
GEOM_OPT_TOL_DISPLACEMENT 1200
GEOM_OPT_TOL_ENERGY       100
SYMMETRY                  False
THRESH                    12
SCF_CONVERGENCE           8
MAX_SUB_FILE_NUM          128
MEM_STATIC                400
MEM_TOTAL                 4000
$end
--------------------------------------------------------------

   15   -1510.1311573792      7.62E-09 Convergence criterion met
 Total energy in the final basis set = -1510.13115738
   14   -1510.2025880169      2.98E-09 Convergence criterion met
 Total energy in the final basis set = -1510.20258802
   14   -1510.2406450077      5.37E-09 Convergence criterion met
 Total energy in the final basis set = -1510.24064501
   14   -1510.2583047109      8.51E-09 Convergence criterion met
 Total energy in the final basis set = -1510.25830471
   13   -1510.2656280163      9.45E-09 Convergence criterion met
 Total energy in the final basis set = -1510.26562802
   13   -1510.2686288057      4.22E-09 Convergence criterion met
 Total energy in the final basis set = -1510.26862881
   13   -1510.2700321871      3.18E-09 Convergence criterion met
 Total energy in the final basis set = -1510.27003219
   12   -1510.2702967416      7.38E-09 Convergence criterion met
   11   -1510.2705971304      5.07E-09 Convergence criterion met
 Total energy in the final basis set = -1510.27059713
    9   -1510.2706029823      5.23E-09 Convergence criterion met
 Total energy in the final basis set = -1510.27060298
    9   -1510.2706061412      9.54E-09 Convergence criterion met
 Total energy in the final basis set = -1510.27060614
    9   -1510.2706101622      8.53E-09 Convergence criterion met
 Total energy in the final basis set = -1510.27061016
    9   -1510.2706121209      5.88E-09 Convergence criterion met
 Total energy in the final basis set = -1510.27061212
    9   -1510.2706132789      3.32E-09 Convergence criterion met
 Total energy in the final basis set = -1510.27061328

             Standard Nuclear Orientation (Angstroms)
    I     Atom           X                Y                Z
 ----------------------------------------------------------------
    1      O      -5.5875053452    -0.4933257384     2.5689133850
    2      C      -5.3048314459    -0.7186185969     1.3722930336
    3      C      -5.5748302732     0.2342460968     0.1544530388
    4      C      -4.4712684811     1.3587777455    -0.0514978150
    5      C      -3.1314530446     1.0474807256     0.7146163051
    6      O      -2.0144026214     1.4524875343    -0.0873726002
    7      C      -0.7735784401     1.4879287258     0.7246870562
    8      C       0.2296949551     0.4024562180     0.1975324699
    9      O       1.5930762795     0.9001450556     0.5059589868
   10      C       2.5790062276     0.0101850212    -0.0427351051
   11      C       3.9528892750     0.4068217642     0.6012157150
   12      C       5.1448370898    -0.6099429090     0.4010898998
   13      C       5.0213516272    -1.5461251841    -0.8548322324
   14      O       4.6618150232    -1.2468437023    -2.0120771808
   15      O      -4.6282400837    -1.8938283868     0.9121346984
   16      O       5.4299270370    -2.8637079291    -0.4574547680
   17      O       2.2953646913    -0.9566299133    -0.7801499804
   18      C       5.3507428889    -3.7835805554    -1.6154928744
   19      C       4.6075155556     1.7728465170     0.0980294761
   20      C       5.4406144854     2.3504359886     1.3064246828
   21      C       6.6167614570     1.3057638806     1.3712604307
   22      C       6.3203548091     0.4204384509     0.0939216195
   23      O       5.6616254832     1.3530148547    -0.8512497467
   24      H       3.7409782079     0.4995081096     1.6824674990
   25      H       5.3283348253    -1.2262918363     1.2980581745
   26      H       3.9031585102     2.4797775481    -0.3814519526
   27      H       5.8128251026     3.3590668475     1.0646828191
   28      H       4.8568990924     2.4010622097     2.2392223706
   29      H       7.6007898389     1.7930913849     1.2861509010
   30      H       6.5994420008     0.7066043258     2.2958510498
   31      H       7.2134446244    -0.0368057425    -0.3747389020
   32      O      -3.0174586992     0.5543522739     1.8584937693
   33      C      -4.2635403285    -2.7458481198     2.0663774751
   34      C      -5.5930430994    -0.4448254724    -1.2823943911
   35      C      -6.4829578125     0.4634593012    -2.2173362165
   36      C      -5.5488698433     1.7196707466    -2.3803412973
   37      C      -4.2489319193     1.2450973995    -1.6174280514
   38      O      -4.2276331709    -0.2245352265    -1.8141384157
   39      H      -6.5461651194     0.7214543964     0.3566479333
   40      H      -4.8349097055     2.3538089959     0.2660049733
   41      H      -5.1600068420    -3.0927319491     2.6200116438
   42      H      -5.8405957006    -1.5234611469    -1.2811339486
   43      H      -6.6568284922    -0.0367460593    -3.1835815981
   44      H      -7.4567847222     0.7085752127    -1.7642396474
   45      H      -5.3218970635     1.9232533784    -3.4386905156
   46      H      -5.9812733447     2.6291092541    -1.9326451756
   47      H      -3.3002764407     1.6965492486    -1.9641324926
   48      H      -3.6010664310    -2.2033458610     2.7715770898
   49      H      -3.7279885383    -3.6168644469     1.6458173534
   50      H       5.6343292400    -4.7818575973    -1.2342299323
   51      H       6.0488688355    -3.4844230519    -2.4241271812
   52      H       4.3248002255    -3.8217268484    -2.0351361058
   53      H       0.0473749093    -0.5809499637     0.6822983136
   54      H       0.0933403192     0.2722549590    -0.8991495614
   55      H      -1.0216330653     1.3145908097     1.7926493665
   56      H      -0.3206692668     2.4938057100     0.5947320130
 ----------------------------------------------------------------

    9   -1510.2706135520      4.74E-09 Convergence criterion met
 Total energy in the final basis set = -1510.27061355
 Final energy is   -1510.27061355201
 **  OPTIMIZATION CONVERGED  **

                    Orbital Energies (a.u.)
 --------------------------------------------------------------

 Alpha MOs
 -- Occupied --
-18.940 -18.930 -18.927 -18.924 -18.889 -18.885 -18.884 -18.880
-18.866 -18.865 -10.107 -10.100 -10.093 -10.090 -10.074 -10.072
-10.061 -10.060 -10.057 -10.057 -10.057 -10.057 -10.042 -10.038
-10.035 -10.034 -10.022 -10.020 -10.020 -10.018  -1.020  -1.012
 -1.002  -1.001  -0.971  -0.968  -0.945  -0.937  -0.928  -0.925
 -0.764  -0.762  -0.728  -0.722  -0.715  -0.706  -0.694  -0.657
 -0.655  -0.616  -0.596  -0.579  -0.545  -0.544  -0.538  -0.536
 -0.517  -0.511  -0.487  -0.469  -0.465  -0.459  -0.450  -0.447
 -0.435  -0.432  -0.426  -0.408  -0.406  -0.404  -0.404  -0.400
 -0.395  -0.388  -0.371  -0.365  -0.362  -0.355  -0.349  -0.348
 -0.340  -0.336  -0.335  -0.331  -0.330  -0.326  -0.321  -0.314
 -0.310  -0.306  -0.304  -0.298  -0.296  -0.283  -0.282  -0.275
 -0.272  -0.258  -0.253  -0.246  -0.245  -0.234  -0.232  -0.182
 -0.177  -0.172  -0.171  -0.161  -0.155  -0.146  -0.145  -0.140
 -0.139

          Ground-State Mulliken Net Atomic Charges

     Atom                 Charge (a.u.)
  ----------------------------------------
      1 O                    -0.212405
      2 C                     0.210424
      3 C                    -0.081527
      4 C                    -0.075558
      5 C                     0.214080
      6 O                    -0.171540
      7 C                    -0.052339
      8 C                    -0.048877
      9 O                    -0.179230
     10 C                     0.209616
     11 C                    -0.079685
     12 C                    -0.079354
     13 C                     0.211839
     14 O                    -0.204265
     15 O                    -0.170590
     16 O                    -0.173330
     17 O                    -0.203654
     18 C                    -0.129166
     19 C                     0.026903
     20 C                    -0.141885
     21 C                    -0.145383
     22 C                     0.025649
     23 O                    -0.185678
     24 H                     0.085088
     25 H                     0.086186
     26 H                     0.086038
     27 H                     0.078077
     28 H                     0.074084
     29 H                     0.078328
     30 H                     0.073908
     31 H                     0.082537
     32 O                    -0.211246
     33 C                    -0.128287
     34 C                     0.024301
     35 C                    -0.142764
     36 C                    -0.145454
     37 C                     0.022582
     38 O                    -0.189849
     39 H                     0.082230
     40 H                     0.087338
     41 H                     0.086782
     42 H                     0.088656
     43 H                     0.077746
     44 H                     0.072980
     45 H                     0.078280
     46 H                     0.072698
     47 H                     0.092414
     48 H                     0.092943
     49 H                     0.088921
     50 H                     0.087705
     51 H                     0.086473
     52 H                     0.092334
     53 H                     0.087382
     54 H                     0.095910
     55 H                     0.100876
     56 H                     0.090762
  ----------------------------------------
  Sum of atomic charges =     0.000000

                    Cartesian Multipole Moments
 -----------------------------------------------------------------
    Charge (ESU x 10^10)
                 0.0000
    Dipole Moment (Debye)
         X      -0.0449      Y       0.8400      Z       1.2947
       Tot       1.5440
    Quadrupole Moments (Debye-Ang)
        XX    -145.4992     XY      -5.3080     YY    -148.9747
        XZ      19.2226     YZ      -0.8054     ZZ    -168.1674

 Total job time:  48.16s(wall), 2287.24s(cpu)
        *  Thank you very much for using Q-Chem.  Have a nice day.  *
