 Q-Chem 5.0, Q-Chem, Inc., Pleasanton, CA (2017)
 Q-Chem 5.0.1 for Intel X86 EM64T Linux

User input:
--------------------------------------------------------------
$molecule
0  1
O -3.94934 -3.66094 2.70899
C -3.26408 -4.56952 2.26188
C -3.36658 -6.02376 2.66595
C -3.24744 -7.07346 1.54891
C -2.86185 -6.56004 0.17931
O -3.7237 -5.57295 -0.20577
C -3.23345 -4.79324 -1.30165
C -4.38758 -4.07605 -1.9943
O -3.89017 -3.29555 -3.09261
C -4.04155 -1.95346 -2.96997
C -3.79525 -1.213 -4.26291
C -4.70865 -0.0013 -4.49906
C -5.46689 0.50083 -3.28678
O -4.96211 0.84884 -2.22912
O -2.29211 -4.25299 1.38561
O -6.79914 0.56034 -3.45221
O -4.35755 -1.43672 -1.91114
C -7.64216 1.03651 -2.46157
C -2.41307 -0.54926 -4.43408
C -2.13345 -0.38821 -5.93813
C -3.08964 0.7355 -6.2863
C -3.66593 1.05163 -4.90132
O -2.59679 0.78348 -4.01692
H -3.92256 -1.97056 -5.07094
H -5.4452 -0.20251 -5.30969
H -1.58585 -1.0953 -3.93009
H -1.09023 -0.02969 -6.08069
H -2.27551 -1.31261 -6.54235
H -2.50955 1.60313 -6.66994
H -3.87147 0.46155 -7.03094
H -4.06351 2.08966 -4.84754
O -1.89599 -6.94508 -0.47197
C -2.1557 -2.97929 0.86475
C -2.19838 -6.46768 3.57046
C -2.62322 -7.70733 4.37047
C -2.58023 -8.76947 3.29342
C -2.10147 -7.93976 2.10307
O -1.23738 -6.98568 2.6795
H -4.3213 -6.11684 3.23123
H -4.1979 -7.6397 1.43191
H -1.84493 -2.3378 1.67343
H -1.83072 -5.66155 4.24323
H -1.84749 -7.93737 5.13368
H -3.60868 -7.61136 4.87788
H -1.80703 -9.52506 3.55551
H -3.54847 -9.28432 3.10782
H -1.62673 -8.58508 1.32999
H -3.1294 -2.66178 0.40291
H -1.35376 -2.98981 0.09942
H -8.68524 0.91262 -2.79265
H -7.4117 2.10402 -2.29196
H -7.4569 0.43733 -1.55331
H -5.15063 -4.79897 -2.3522
H -4.90729 -3.47667 -1.21826
H -2.76594 -5.44547 -2.07408
H -2.45337 -4.11476 -1.12372
$end

$opt
CONSTRAINT
tors           1           2           3           4    +139.546
tors           3           4           5           6     -54.494
tors           4           5           6           7    +164.115
tors           5           6           7           8    +159.773
tors           6           7           8           9    -180.000
tors           7           8           9          10    -115.263
tors           8           9          10          11    -166.973
tors           9          10          11          12    +143.243
tors          11          12          13          14     +56.302
ENDCONSTRAINT
$end

$rem
JOBTYPE                   OPT
METHOD                    B3LYP
DFT_D                     d3_op
BASIS                     STO-3G
GEOM_OPT_MAX_CYCLES       100
GEOM_OPT_TOL_GRADIENT     300
GEOM_OPT_TOL_DISPLACEMENT 1200
GEOM_OPT_TOL_ENERGY       100
SYMMETRY                  False
THRESH                    12
SCF_CONVERGENCE           8
MAX_SUB_FILE_NUM          128
MEM_STATIC                400
MEM_TOTAL                 4000
$end
--------------------------------------------------------------

   15   -1510.1430276441      5.70E-09 Convergence criterion met
 Total energy in the final basis set = -1510.14302764
   14   -1510.2129017243      6.43E-09 Convergence criterion met
 Total energy in the final basis set = -1510.21290172
   14   -1510.2491257005      6.65E-09 Convergence criterion met
 Total energy in the final basis set = -1510.24912570
   14   -1510.2676171189      4.75E-09 Convergence criterion met
 Total energy in the final basis set = -1510.26761712
   13   -1510.2732984589      9.73E-09 Convergence criterion met
 Total energy in the final basis set = -1510.27329846
   13   -1510.2749999352      4.38E-09 Convergence criterion met
 Total energy in the final basis set = -1510.27499994
   12   -1510.2755384697      7.86E-09 Convergence criterion met
 Total energy in the final basis set = -1510.27553847
   12   -1510.2757691129      5.55E-09 Convergence criterion met
   11   -1510.2760912729      7.56E-09 Convergence criterion met
 Total energy in the final basis set = -1510.27609127
   11   -1510.2761147319      7.15E-09 Convergence criterion met
 Total energy in the final basis set = -1510.27611473
   11   -1510.2761281162      2.46E-09 Convergence criterion met
 Total energy in the final basis set = -1510.27612812
   10   -1510.2761398670      9.13E-09 Convergence criterion met
 Total energy in the final basis set = -1510.27613987
   10   -1510.2761483916      6.54E-09 Convergence criterion met
 Total energy in the final basis set = -1510.27614839
    9   -1510.2761516311      8.26E-09 Convergence criterion met
 Total energy in the final basis set = -1510.27615163

             Standard Nuclear Orientation (Angstroms)
    I     Atom           X                Y                Z
 ----------------------------------------------------------------
    1      O       2.6190448329    -2.0479604626     1.3981910427
    2      C       3.2713077331    -1.0399615705     1.0503381099
    3      C       4.5255123113    -1.0155981654     0.1142764037
    4      C       4.5854182870     0.1761645562    -0.9274811680
    5      C       3.3156593066     1.0987937665    -0.9561833351
    6      O       2.1596806883     0.2714095924    -1.1693292902
    7      C       0.9252541862     1.0204205005    -0.8281467034
    8      C      -0.2662943122     0.3050767013    -1.5482152781
    9      O      -1.5298119516     1.0170634072    -1.2388822899
   10      C      -2.4134582495     0.1682740238    -0.4796256062
   11      C      -3.8196526609     0.8576984101    -0.4918708493
   12      C      -5.0898312619    -0.0908714943    -0.5772937636
   13      C      -4.8322507733    -1.6232275173    -0.3643349893
   14      O      -4.2980339606    -2.1971501303     0.6069917897
   15      O       3.0310212705     0.2820596298     1.5518295698
   16      O      -5.3321426289    -2.3108855051    -1.5228519107
   17      O      -2.0522560161    -0.9099055172     0.0369731444
   18      C      -5.1200275198    -3.7690397016    -1.3738279128
   19      C      -4.1301260605     1.6652431553     0.8518992797
   20      C      -5.1898068348     2.7812751229     0.5013642838
   21      C      -6.4816876706     1.9063756647     0.2959842010
   22      C      -5.9390549477     0.4648741869     0.6494217382
   23      O      -4.9020277019     0.7115086307     1.6761156585
   24      H      -3.8116989981     1.5524356844    -1.3501637412
   25      H      -5.6154038391     0.0369133158    -1.5398418972
   26      H      -3.2335796955     2.0162990369     1.3986746685
   27      H      -5.3057377891     3.4779063855     1.3470381041
   28      H      -4.9130741319     3.3556753657    -0.3969598754
   29      H      -7.2855123754     2.1988636096     0.9900319181
   30      H      -6.8694317941     1.9572579196    -0.7341501940
   31      H      -6.7004869606    -0.2420120320     1.0323279748
   32      O       3.2836063137     2.3405803369    -0.8292000903
   33      C       1.9510912736     0.2486019903     2.5654832627
   34      C       5.8372547034    -0.7080780997     0.9685069514
   35      C       7.1056124065    -1.0602771822     0.0922530428
   36      C       7.1474758140     0.1675012790    -0.8928714566
   37      C       5.8663990395     0.9643742283    -0.4329525807
   38      O       5.8515864185     0.7693693082     1.0358456498
   39      H       4.5850153992    -1.9969492890    -0.3877736138
   40      H       4.7340973982    -0.2254481474    -1.9474235187
   41      H       2.2984789558    -0.2316844398     3.5033185578
   42      H       5.8327587760    -1.1442197373     1.9864354990
   43      H       8.0081776319    -1.1069422924     0.7220281248
   44      H       6.9911591820    -2.0225433633    -0.4322456813
   45      H       8.0534218616     0.7756027089    -0.7399095063
   46      H       7.0970511336    -0.1326610933    -1.9516750420
   47      H       5.8486492977     2.0437659737    -0.6799589610
   48      H       1.0599792921    -0.3023303696     2.2020722161
   49      H       1.6876466944     1.3025376767     2.7701967582
   50      H      -5.4708357098    -4.2275822136    -2.3166776318
   51      H      -5.7007832797    -4.1820548717    -0.5236274321
   52      H      -4.0493733048    -4.0118329123    -1.2162159915
   53      H      -0.1203787451     0.3324417836    -2.6482150029
   54      H      -0.3433484860    -0.7467494671    -1.1973354027
   55      H       1.0119219422     2.0789669943    -1.1550895892
   56      H       0.7669234630     1.0091894802     0.2705466858
 ----------------------------------------------------------------

    9   -1510.2761522515      8.32E-09 Convergence criterion met
 Total energy in the final basis set = -1510.27615225
 Final energy is   -1510.27615225149
 **  OPTIMIZATION CONVERGED  **

                    Orbital Energies (a.u.)
 --------------------------------------------------------------

 Alpha MOs
 -- Occupied --
-18.932 -18.930 -18.928 -18.928 -18.892 -18.887 -18.884 -18.877
-18.873 -18.871 -10.102 -10.101 -10.096 -10.093 -10.069 -10.068
-10.063 -10.062 -10.061 -10.060 -10.060 -10.057 -10.041 -10.038
-10.037 -10.036 -10.023 -10.022 -10.020 -10.019  -1.015  -1.012
 -1.005  -1.004  -0.973  -0.969  -0.941  -0.935  -0.932  -0.929
 -0.765  -0.762  -0.728  -0.723  -0.714  -0.705  -0.696  -0.660
 -0.659  -0.616  -0.597  -0.579  -0.547  -0.545  -0.540  -0.537
 -0.516  -0.511  -0.484  -0.472  -0.463  -0.459  -0.450  -0.442
 -0.437  -0.433  -0.428  -0.413  -0.411  -0.410  -0.408  -0.402
 -0.390  -0.381  -0.369  -0.367  -0.361  -0.357  -0.352  -0.351
 -0.342  -0.341  -0.335  -0.331  -0.330  -0.326  -0.323  -0.313
 -0.308  -0.307  -0.304  -0.303  -0.296  -0.291  -0.282  -0.272
 -0.269  -0.256  -0.251  -0.248  -0.245  -0.237  -0.233  -0.180
 -0.176  -0.174  -0.172  -0.161  -0.156  -0.148  -0.147  -0.143
 -0.141

          Ground-State Mulliken Net Atomic Charges

     Atom                 Charge (a.u.)
  ----------------------------------------
      1 O                    -0.212430
      2 C                     0.210440
      3 C                    -0.078228
      4 C                    -0.078521
      5 C                     0.217472
      6 O                    -0.179027
      7 C                    -0.050802
      8 C                    -0.054702
      9 O                    -0.177662
     10 C                     0.206539
     11 C                    -0.079616
     12 C                    -0.079509
     13 C                     0.206226
     14 O                    -0.197731
     15 O                    -0.169423
     16 O                    -0.173293
     17 O                    -0.201313
     18 C                    -0.129726
     19 C                     0.027093
     20 C                    -0.142786
     21 C                    -0.144753
     22 C                     0.026869
     23 O                    -0.183906
     24 H                     0.087769
     25 H                     0.086555
     26 H                     0.083761
     27 H                     0.078792
     28 H                     0.074840
     29 H                     0.078626
     30 H                     0.074217
     31 H                     0.083828
     32 O                    -0.209344
     33 C                    -0.130011
     34 C                     0.025720
     35 C                    -0.144043
     36 C                    -0.143718
     37 C                     0.024652
     38 O                    -0.186374
     39 H                     0.085884
     40 H                     0.083735
     41 H                     0.087864
     42 H                     0.082429
     43 H                     0.078113
     44 H                     0.073911
     45 H                     0.078168
     46 H                     0.073006
     47 H                     0.090661
     48 H                     0.093769
     49 H                     0.090863
     50 H                     0.088419
     51 H                     0.087245
     52 H                     0.091499
     53 H                     0.086074
     54 H                     0.102990
     55 H                     0.094610
     56 H                     0.084282
  ----------------------------------------
  Sum of atomic charges =     0.000000

                    Cartesian Multipole Moments
 -----------------------------------------------------------------
    Charge (ESU x 10^10)
                 0.0000
    Dipole Moment (Debye)
         X      -0.7073      Y       0.4264      Z      -2.6758
       Tot       2.8004
    Quadrupole Moments (Debye-Ang)
        XX    -138.2714     XY     -11.3255     YY    -161.9723
        XZ       1.6263     YZ       4.9145     ZZ    -158.4858

 Total job time:  48.40s(wall), 2294.69s(cpu)
        *  Thank you very much for using Q-Chem.  Have a nice day.  *
