 Q-Chem 5.0, Q-Chem, Inc., Pleasanton, CA (2017)
 Q-Chem 5.0.1 for Intel X86 EM64T Linux

User input:
--------------------------------------------------------------
$molecule
0  1
O 2.6190448329 -2.0479604626 1.3981910427
C 3.2713077331 -1.0399615705 1.0503381099
C 4.5255123113 -1.0155981654 0.1142764037
C 4.585418287 0.1761645562 -0.927481168
C 3.3156593066 1.0987937665 -0.9561833351
O 2.1596806883 0.2714095924 -1.1693292902
C 0.9252541862 1.0204205005 -0.8281467034
C -0.2662943122 0.3050767013 -1.5482152781
O -1.5298119516 1.0170634072 -1.2388822899
C -2.4134582495 0.1682740238 -0.4796256062
C -3.8196526609 0.8576984101 -0.4918708493
C -5.0898312619 -0.0908714943 -0.5772937636
C -4.8322507733 -1.6232275173 -0.3643349893
O -4.2980339606 -2.1971501303 0.6069917897
O 3.0310212705 0.2820596298 1.5518295698
O -5.3321426289 -2.3108855051 -1.5228519107
O -2.0522560161 -0.9099055172 0.0369731444
C -5.1200275198 -3.7690397016 -1.3738279128
C -4.1301260605 1.6652431553 0.8518992797
C -5.1898068348 2.7812751229 0.5013642838
C -6.4816876706 1.9063756647 0.295984201
C -5.9390549477 0.4648741869 0.6494217382
O -4.9020277019 0.7115086307 1.6761156585
H -3.8116989981 1.5524356844 -1.3501637412
H -5.6154038391 0.0369133158 -1.5398418972
H -3.2335796955 2.0162990369 1.3986746685
H -5.3057377891 3.4779063855 1.3470381041
H -4.9130741319 3.3556753657 -0.3969598754
H -7.2855123754 2.1988636096 0.9900319181
H -6.8694317941 1.9572579196 -0.734150194
H -6.7004869606 -0.242012032 1.0323279748
O 3.2836063137 2.3405803369 -0.8292000903
C 1.9510912736 0.2486019903 2.5654832627
C 5.8372547034 -0.7080780997 0.9685069514
C 7.1056124065 -1.0602771822 0.0922530428
C 7.147475814 0.167501279 -0.8928714566
C 5.8663990395 0.9643742283 -0.4329525807
O 5.8515864185 0.7693693082 1.0358456498
H 4.5850153992 -1.996949289 -0.3877736138
H 4.7340973982 -0.2254481474 -1.9474235187
H 2.2984789558 -0.2316844398 3.5033185578
H 5.832758776 -1.1442197373 1.986435499
H 8.0081776319 -1.1069422924 0.7220281248
H 6.991159182 -2.0225433633 -0.4322456813
H 8.0534218616 0.7756027089 -0.7399095063
H 7.0970511336 -0.1326610933 -1.951675042
H 5.8486492977 2.0437659737 -0.679958961
H 1.0599792921 -0.3023303696 2.2020722161
H 1.6876466944 1.3025376767 2.7701967582
H -5.4708357098 -4.2275822136 -2.3166776318
H -5.7007832797 -4.1820548717 -0.5236274321
H -4.0493733048 -4.0118329123 -1.2162159915
H -0.1203787451 0.3324417836 -2.6482150029
H -0.343348486 -0.7467494671 -1.1973354027
H 1.0119219422 2.0789669943 -1.1550895892
H 0.766923463 1.0091894802 0.2705466858
$end

$rem
JOBTYPE                   OPT
METHOD                    B3LYP
DFT_D                     d3_op
BASIS                     STO-3G
GEOM_OPT_MAX_CYCLES       100
GEOM_OPT_TOL_GRADIENT     300
GEOM_OPT_TOL_DISPLACEMENT 1200
GEOM_OPT_TOL_ENERGY       100
SYMMETRY                  False
THRESH                    12
SCF_CONVERGENCE           8
MAX_SUB_FILE_NUM          128
MEM_STATIC                400
MEM_TOTAL                 4000
$end
--------------------------------------------------------------

   16   -1510.2760774644      6.58E-09 Convergence criterion met
 Total energy in the final basis set = -1510.27607746
   14   -1510.2784036297      5.47E-09 Convergence criterion met
 Total energy in the final basis set = -1510.27840363
   13   -1510.2799569408      8.27E-09 Convergence criterion met
 Total energy in the final basis set = -1510.27995694
   13   -1510.2810279840      3.74E-09 Convergence criterion met
 Total energy in the final basis set = -1510.28102798
   13   -1510.2820882464      5.54E-09 Convergence criterion met
 Total energy in the final basis set = -1510.28208825
   13   -1510.2831785707      8.80E-09 Convergence criterion met
 Total energy in the final basis set = -1510.28317857
   13   -1510.2844011101      9.93E-09 Convergence criterion met
 Total energy in the final basis set = -1510.28440111
   14   -1510.2762993290      9.30E-09 Convergence criterion met
   13   -1510.2971634232      1.61E-09 Convergence criterion met
 Total energy in the final basis set = -1510.29716342
   12   -1510.2971968646      4.53E-09 Convergence criterion met
 Total energy in the final basis set = -1510.29719686
   11   -1510.2972042792      5.89E-09 Convergence criterion met
 Total energy in the final basis set = -1510.29720428
   10   -1510.2972096421      7.22E-09 Convergence criterion met
 Total energy in the final basis set = -1510.29720964
   10   -1510.2972121021      6.78E-09 Convergence criterion met
 Total energy in the final basis set = -1510.29721210
    9   -1510.2972117575      5.29E-09 Convergence criterion met
 Total energy in the final basis set = -1510.29721176

             Standard Nuclear Orientation (Angstroms)
    I     Atom           X                Y                Z
 ----------------------------------------------------------------
    1      O       1.0370937886    -2.1052751856     0.2616152121
    2      C       1.9262261442    -1.2414247275     0.4368825719
    3      C       3.4077856267    -1.3092361831    -0.0672558709
    4      C       3.9380771179     0.0535324321    -0.6808040461
    5      C       2.8525765832     1.1845477739    -0.7813174297
    6      O       1.7854076490     0.6798177667    -1.6006540386
    7      C       0.7345195650     1.7082515358    -1.7866072157
    8      C      -0.2914925338     1.0862619786    -2.8113630835
    9      O      -1.7113888716     1.3140194554    -2.4445140971
   10      C      -2.0738352328     0.4805241530    -1.3433025420
   11      C      -3.5862848484     0.6921136388    -1.0102632261
   12      C      -4.0934265632    -0.2166766273     0.1848935942
   13      C      -3.0128686151    -1.1985711529     0.7787599533
   14      O      -2.4196029058    -1.0693313243     1.8718908495
   15      O       1.7685535651    -0.0358014223     1.1787496741
   16      O      -2.9075142333    -2.3385304369    -0.0765333238
   17      O      -1.2670227674    -0.2835548771    -0.7639976332
   18      C      -1.8183706872    -3.2233424960     0.4062111325
   19      C      -3.8393391303     2.1437593326    -0.4112202700
   20      C      -5.3950155755     2.4190489616    -0.4059021481
   21      C      -5.8566313261     1.5428183770     0.8174365744
   22      C      -4.4889316199     0.8876045763     1.2523869945
   23      O      -3.5018466736     1.9694997609     1.0181852580
   24      H      -4.1716673954     0.5282236976    -1.9333967273
   25      H      -4.9678059309    -0.8123125219    -0.1323408110
   26      H      -3.2186424752     2.9377210227    -0.8705487084
   27      H      -5.5954351066     3.4891365388    -0.2377790866
   28      H      -5.8709170985     2.1150880430    -1.3519141468
   29      H      -6.2596947676     2.1680197503     1.6300307514
   30      H      -6.6118485133     0.7889442734     0.5433477234
   31      H      -4.4304234372     0.5381592557     2.3012929471
   32      O       2.9043776098     2.3468320137    -0.3295719079
   33      C       0.3762522189     0.0999477754     1.6716182393
   34      C       4.4166126272    -1.4825110919     1.1515150195
   35      C       5.8362781141    -1.8731866069     0.5748331917
   36      C       6.3381709297    -0.4847808922     0.0274373243
   37      C       5.0900371446     0.4290844606     0.3404269045
   38      O       4.5996320254    -0.0972324048     1.6354499180
   39      H       3.4879660454    -2.1432318951    -0.7857778279
   40      H       4.3412891992    -0.1149586958    -1.6966041395
   41      H       0.1525747856    -0.6503864390     2.4560118745
   42      H       4.0442380133    -2.1333218660     1.9664881339
   43      H       6.4880914777    -2.2523377544     1.3777996843
   44      H       5.7631983070    -2.6394109754    -0.2136092484
   45      H       7.2229296916    -0.1304979985     0.5798887241
   46      H       6.5789374263    -0.5116891394    -1.0473258226
   47      H       5.2870729002     1.5162715171     0.4144867807
   48      H      -0.3515986287    -0.0259371302     0.8399168232
   49      H       0.3045075053     1.1155233316     2.1008492709
   50      H      -1.8173407123    -4.0947742700    -0.2736076963
   51      H      -2.0105314271    -3.5663371198     1.4430808348
   52      H      -0.8269087193    -2.7131454025     0.3677350146
   53      H      -0.1772464858     1.5473842863    -3.8118606881
   54      H      -0.0795768359    -0.0030716173    -2.8820571058
   55      H       1.1697612951     2.6542556600    -2.1745178141
   56      H       0.2309665509     1.9382303225    -0.8220956090
 ----------------------------------------------------------------

    9   -1510.2972114154      5.54E-09 Convergence criterion met
 Total energy in the final basis set = -1510.29721142
 Final energy is   -1510.29721141540
 **  OPTIMIZATION CONVERGED  **

                    Orbital Energies (a.u.)
 --------------------------------------------------------------

 Alpha MOs
 -- Occupied --
-18.951 -18.929 -18.927 -18.913 -18.897 -18.888 -18.884 -18.873
-18.870 -18.853 -10.115 -10.098 -10.095 -10.086 -10.082 -10.075
-10.064 -10.057 -10.057 -10.055 -10.044 -10.036 -10.034 -10.033
-10.032 -10.032 -10.022 -10.020 -10.018 -10.017  -1.029  -1.011
 -1.000  -0.992  -0.972  -0.966  -0.952  -0.935  -0.928  -0.918
 -0.765  -0.760  -0.730  -0.721  -0.712  -0.703  -0.697  -0.645
 -0.642  -0.619  -0.594  -0.583  -0.546  -0.544  -0.537  -0.535
 -0.515  -0.506  -0.488  -0.472  -0.458  -0.455  -0.453  -0.445
 -0.433  -0.431  -0.424  -0.415  -0.406  -0.402  -0.401  -0.394
 -0.390  -0.381  -0.366  -0.361  -0.359  -0.356  -0.349  -0.345
 -0.341  -0.337  -0.332  -0.329  -0.327  -0.322  -0.321  -0.314
 -0.308  -0.306  -0.303  -0.299  -0.289  -0.289  -0.277  -0.274
 -0.271  -0.260  -0.253  -0.241  -0.236  -0.232  -0.230  -0.193
 -0.176  -0.168  -0.166  -0.158  -0.153  -0.146  -0.143  -0.140
 -0.137

          Ground-State Mulliken Net Atomic Charges

     Atom                 Charge (a.u.)
  ----------------------------------------
      1 O                    -0.214714
      2 C                     0.217883
      3 C                    -0.078575
      4 C                    -0.078171
      5 C                     0.217557
      6 O                    -0.177781
      7 C                    -0.048455
      8 C                    -0.049251
      9 O                    -0.168427
     10 C                     0.219294
     11 C                    -0.078057
     12 C                    -0.082068
     13 C                     0.213202
     14 O                    -0.222984
     15 O                    -0.167784
     16 O                    -0.177092
     17 O                    -0.204563
     18 C                    -0.141843
     19 C                     0.024583
     20 C                    -0.143645
     21 C                    -0.143993
     22 C                     0.024624
     23 O                    -0.190548
     24 H                     0.088334
     25 H                     0.083866
     26 H                     0.084678
     27 H                     0.078602
     28 H                     0.073765
     29 H                     0.078478
     30 H                     0.073882
     31 H                     0.090226
     32 O                    -0.211836
     33 C                    -0.141067
     34 C                     0.025894
     35 C                    -0.144107
     36 C                    -0.143797
     37 C                     0.024823
     38 O                    -0.185323
     39 H                     0.083868
     40 H                     0.082299
     41 H                     0.089912
     42 H                     0.082846
     43 H                     0.077715
     44 H                     0.073077
     45 H                     0.077805
     46 H                     0.072195
     47 H                     0.089957
     48 H                     0.108924
     49 H                     0.087497
     50 H                     0.079858
     51 H                     0.079150
     52 H                     0.114804
     53 H                     0.092268
     54 H                     0.101755
     55 H                     0.088497
     56 H                     0.091964
  ----------------------------------------
  Sum of atomic charges =    -0.000000

                    Cartesian Multipole Moments
 -----------------------------------------------------------------
    Charge (ESU x 10^10)
                 0.0000
    Dipole Moment (Debye)
         X      -0.8041      Y      -0.2162      Z      -3.3780
       Tot       3.4791
    Quadrupole Moments (Debye-Ang)
        XX    -138.8735     XY      -9.8181     YY    -161.3012
        XZ      -3.5224     YZ      -5.3837     ZZ    -158.7308

 Total job time:  134.29s(wall), 6400.56s(cpu)
        *  Thank you very much for using Q-Chem.  Have a nice day.  *
