 Q-Chem 5.0, Q-Chem, Inc., Pleasanton, CA (2017)
 Q-Chem 5.0.1 for Intel X86 EM64T Linux

User input:
--------------------------------------------------------------
$molecule
0  1
O 4.5212582576 -1.8716676916 0.801104603
C 5.368663244 -1.2006733225 0.1768960214
C 5.1495271368 0.0080589037 -0.8069686666
C 3.6450601401 0.469931453 -0.9392288004
C 2.5513085864 -0.6252347837 -0.6609206516
O 1.4227269438 0.017264912 -0.0553354713
C 0.2761010588 -0.9193040293 0.0449237857
C -0.5898804746 -0.3946071493 1.2487859363
O -1.9937370139 -0.8775240109 1.3427825526
C -2.7279443935 -0.9205027273 0.1148568762
C -4.2358370075 -1.1244975459 0.5066308519
C -5.0806167723 0.2243875369 0.4875450509
C -4.2362951856 1.5082232153 0.1877481685
O -3.54604112 1.7630910706 -0.8224452609
O 6.7812330335 -1.4390381355 0.250546482
O -4.3748882092 2.3990279635 1.3041725641
O -2.2715330664 -0.8264550022 -1.0463370522
C -3.5851568959 3.629965258 1.0692159926
C -4.9984745608 -1.9642517543 -0.6041426471
C -6.3918456942 -2.4264445052 -0.0212515477
C -7.2107640421 -1.0839153808 -0.085999795
C -6.1254478388 -0.0967526402 -0.6710532494
O -5.3595763641 -0.9418397933 -1.6119994237
H -4.2775291513 -1.6005607162 1.5019677236
H -5.5889426325 0.3788267823 1.4554971794
H -4.3892047351 -2.7632859659 -1.0686708832
H -6.8378747149 -3.2036087652 -0.6618555462
H -6.3025211155 -2.8214157419 1.0033968812
H -8.0655112024 -1.1645926077 -0.7764283665
H -7.5818727698 -0.7608662239 0.899802359
H -6.525843929 0.7956221453 -1.1900577308
O 2.5573432704 -1.815534714 -1.0408861169
C 7.0542951497 -2.5639811262 1.1737082069
C 5.7576562105 1.2888823728 -0.0864085687
C 5.6758733303 2.5499796924 -1.0356922266
C 4.1646426146 2.9627588899 -0.8780390331
C 3.6273053921 1.7616111041 -0.0096991931
O 4.7314832716 1.5450051678 0.9550043314
H 5.6220094998 -0.2113519214 -1.7808051165
H 3.4678047708 0.7839459807 -1.9860811521
H 6.5656758166 -3.4997726235 0.8331336411
H 6.747412632 1.1077136853 0.3757807989
H 6.3551874596 3.3433781585 -0.6861232775
H 5.9380177684 2.2956122003 -2.0754533708
H 4.0634564217 3.9101080144 -0.3243690234
H 3.6418764267 3.0573110094 -1.843237377
H 2.6680751581 1.9299313713 0.5157723073
H 6.7065533952 -2.3416475393 2.2033264594
H 8.1515983694 -2.6986539513 1.1750380103
H -3.7217660834 4.2573291174 1.9691919589
H -3.9422488692 4.1806309169 0.1750413018
H -2.5076894545 3.4038051574 0.9338025974
H -0.1274444394 -0.6754470954 2.2169596048
H -0.6058841261 0.7174604841 1.1849470553
H 0.6276137694 -1.9595343923 0.204293201
H -0.355932188 -0.8770119548 -0.8704296497
$end

$rem
JOBTYPE                   OPT
METHOD                    B3LYP
DFT_D                     d3_op
BASIS                     STO-3G
GEOM_OPT_MAX_CYCLES       100
GEOM_OPT_TOL_GRADIENT     300
GEOM_OPT_TOL_DISPLACEMENT 1200
GEOM_OPT_TOL_ENERGY       100
SYMMETRY                  False
THRESH                    12
SCF_CONVERGENCE           8
MAX_SUB_FILE_NUM          128
MEM_STATIC                400
MEM_TOTAL                 4000
$end
--------------------------------------------------------------

   16   -1510.2685804295      5.35E-09 Convergence criterion met
 Total energy in the final basis set = -1510.26858043
   14   -1510.2709027139      8.83E-09 Convergence criterion met
 Total energy in the final basis set = -1510.27090271
   14   -1510.2733463037      4.56E-09 Convergence criterion met
 Total energy in the final basis set = -1510.27334630
   14   -1510.2754918763      4.62E-09 Convergence criterion met
 Total energy in the final basis set = -1510.27549188
   14   -1510.2774379404      5.86E-09 Convergence criterion met
 Total energy in the final basis set = -1510.27743794
   14   -1510.2791521916      5.32E-09 Convergence criterion met
 Total energy in the final basis set = -1510.27915219
   14   -1510.2806028992      8.50E-09 Convergence criterion met
 Total energy in the final basis set = -1510.28060290
   14   -1510.2818785085      7.25E-09 Convergence criterion met
   12   -1510.2976708238      9.83E-09 Convergence criterion met
 Total energy in the final basis set = -1510.29767082
   12   -1510.2977117136      4.31E-09 Convergence criterion met
 Total energy in the final basis set = -1510.29771171
   12   -1510.2977372401      4.99E-09 Convergence criterion met
 Total energy in the final basis set = -1510.29773724
   12   -1510.2977462656      4.39E-09 Convergence criterion met
 Total energy in the final basis set = -1510.29774627
   12   -1510.2977429407      4.61E-09 Convergence criterion met
 Total energy in the final basis set = -1510.29774294
   11   -1510.2977499327      4.65E-09 Convergence criterion met
 Total energy in the final basis set = -1510.29774993

             Standard Nuclear Orientation (Angstroms)
    I     Atom           X                Y                Z
 ----------------------------------------------------------------
    1      O       1.2305173604     0.2888255256     0.4528613410
    2      C       2.2238826841     0.9230493323     0.8900000669
    3      C       3.7081727802     0.6921674157     0.4549502428
    4      C       3.8636865080    -0.4978664424    -0.5848639056
    5      C       2.5168171335    -1.2492016412    -0.9133851767
    6      O       1.9156829371    -0.6469617714    -2.0716003546
    7      C       0.5401606423    -1.1677309787    -2.2636109850
    8      C      -0.4650596118    -0.0136175505    -1.9144951517
    9      O      -1.7357505250    -0.6387329137    -1.4677477739
   10      C      -2.7115090158     0.3766714716    -1.2069090790
   11      C      -3.9515793123    -0.3176528716    -0.5401753247
   12      C      -3.6098702435    -0.9542707122     0.8738210535
   13      C      -2.1202745668    -0.7202452869     1.3059711410
   14      O      -1.5281411685     0.3815561429     1.3859689405
   15      O       2.1483552507     1.9571116980     1.8522616999
   16      O      -1.5418982449    -1.9850028168     1.6130201489
   17      O      -2.5694154305     1.5872177850    -1.4783006639
   18      C      -0.1237281183    -1.8297669822     2.0205451541
   19      C      -5.0602678808     0.7403258793    -0.1443095984
   20      C      -6.4051998021    -0.0326923662     0.1464226012
   21      C      -6.0803756699    -0.6885765336     1.5402001148
   22      C      -4.6182374195    -0.1474429724     1.8018432823
   23      O      -4.6304744404     1.2028662589     1.1969587559
   24      H      -4.3395627082    -1.0892119020    -1.2298125531
   25      H      -3.8079456486    -2.0398575489     0.8921923392
   26      H      -5.1322549789     1.5974150726    -0.8415044355
   27      H      -7.2485356481     0.6722350923     0.2186281159
   28      H      -6.6323387013    -0.7785245488    -0.6319629344
   29      H      -6.7675315302    -0.3329949563     2.3244807208
   30      H      -6.1167027397    -1.7893973506     1.5113538061
   31      H      -4.3200281783    -0.0928412152     2.8668360648
   32      O       2.0897986486    -2.2825996153    -0.3511257312
   33      C       0.7372583136     2.2226370635     2.2520903001
   34      C       4.2592612566     1.9156290717    -0.4009659934
   35      C       5.8300478966     1.7849893489    -0.4982004377
   36      C       5.9732891804     0.6161536851    -1.5412502945
   37      C       4.4575830202     0.2811482642    -1.8349537560
   38      O       3.7926356212     1.6044132327    -1.7691529415
   39      H       4.3189884206     0.5305112777     1.3619608726
   40      H       4.5731675679    -1.2516445800    -0.1991690028
   41      H       0.7152729878     2.2708864820     3.3572255446
   42      H       3.8837394456     2.9039503856    -0.0710113680
   43      H       6.2700555678     2.7217506119    -0.8755198786
   44      H       6.2874216639     1.5469734840     0.4754027896
   45      H       6.4762825696     0.9558412384    -2.4605333136
   46      H       6.5209283289    -0.2508944841    -1.1388869659
   47      H       4.2577567816    -0.2021656507    -2.8101457822
   48      H       0.0400912020     1.4346045596     1.8805383689
   49      H       0.4358133361     3.2063059992     1.8410897251
   50      H       0.3421451005    -2.8251579664     1.9050694591
   51      H      -0.0566646064    -1.5122749241     3.0816656156
   52      H       0.4020236104    -1.0845927327     1.3812478088
   53      H      -0.0241128304     0.5695818964    -1.0742779073
   54      H      -0.6337727033     0.6610823308    -2.7801740863
   55      H       0.3838166065    -2.0318780143    -1.5804782231
   56      H       0.4361103875    -1.4980558466    -3.3170709685
 ----------------------------------------------------------------

   10   -1510.2977498527      7.93E-09 Convergence criterion met
 Total energy in the final basis set = -1510.29774985
 Final energy is   -1510.29774985274
 **  OPTIMIZATION CONVERGED  **

                    Orbital Energies (a.u.)
 --------------------------------------------------------------

 Alpha MOs
 -- Occupied --
-18.950 -18.930 -18.921 -18.919 -18.893 -18.890 -18.883 -18.869
-18.868 -18.862 -10.116 -10.096 -10.094 -10.091 -10.064 -10.060
-10.057 -10.057 -10.054 -10.052 -10.049 -10.045 -10.042 -10.037
-10.033 -10.031 -10.023 -10.021 -10.018 -10.016  -1.025  -1.007
 -1.001  -0.998  -0.972  -0.966  -0.948  -0.930  -0.930  -0.925
 -0.765  -0.759  -0.726  -0.720  -0.712  -0.702  -0.688  -0.661
 -0.652  -0.608  -0.592  -0.573  -0.548  -0.541  -0.538  -0.533
 -0.515  -0.504  -0.485  -0.467  -0.464  -0.452  -0.449  -0.446
 -0.437  -0.435  -0.426  -0.413  -0.409  -0.404  -0.401  -0.397
 -0.390  -0.378  -0.371  -0.370  -0.361  -0.350  -0.349  -0.347
 -0.338  -0.338  -0.331  -0.328  -0.327  -0.323  -0.319  -0.316
 -0.307  -0.304  -0.302  -0.299  -0.289  -0.284  -0.280  -0.272
 -0.268  -0.261  -0.245  -0.239  -0.238  -0.234  -0.230  -0.189
 -0.172  -0.166  -0.166  -0.162  -0.151  -0.149  -0.144  -0.143
 -0.139

          Ground-State Mulliken Net Atomic Charges

     Atom                 Charge (a.u.)
  ----------------------------------------
      1 O                    -0.214447
      2 C                     0.224797
      3 C                    -0.078036
      4 C                    -0.081176
      5 C                     0.215713
      6 O                    -0.175138
      7 C                    -0.052763
      8 C                    -0.055397
      9 O                    -0.178296
     10 C                     0.211747
     11 C                    -0.078812
     12 C                    -0.078564
     13 C                     0.215855
     14 O                    -0.220235
     15 O                    -0.164812
     16 O                    -0.167233
     17 O                    -0.208946
     18 C                    -0.143726
     19 C                     0.024434
     20 C                    -0.143989
     21 C                    -0.143876
     22 C                     0.025274
     23 O                    -0.186989
     24 H                     0.083920
     25 H                     0.086647
     26 H                     0.089554
     27 H                     0.077551
     28 H                     0.072841
     29 H                     0.077263
     30 H                     0.073478
     31 H                     0.081385
     32 O                    -0.224317
     33 C                    -0.146696
     34 C                     0.025606
     35 C                    -0.143632
     36 C                    -0.144427
     37 C                     0.026481
     38 O                    -0.186735
     39 H                     0.088164
     40 H                     0.083354
     41 H                     0.084916
     42 H                     0.087093
     43 H                     0.079080
     44 H                     0.073973
     45 H                     0.078516
     46 H                     0.073707
     47 H                     0.089388
     48 H                     0.127245
     49 H                     0.087675
     50 H                     0.091041
     51 H                     0.074754
     52 H                     0.110654
     53 H                     0.105105
     54 H                     0.085773
     55 H                     0.103273
     56 H                     0.081987
  ----------------------------------------
  Sum of atomic charges =     0.000000

                    Cartesian Multipole Moments
 -----------------------------------------------------------------
    Charge (ESU x 10^10)
                 0.0000
    Dipole Moment (Debye)
         X       1.3214      Y      -1.2433      Z       0.9316
       Tot       2.0395
    Quadrupole Moments (Debye-Ang)
        XX    -135.8315     XY       8.4795     YY    -167.0360
        XZ       1.9219     YZ       2.9872     ZZ    -155.2439

 Total job time:  168.47s(wall), 8035.31s(cpu)
        *  Thank you very much for using Q-Chem.  Have a nice day.  *
