 Q-Chem 5.0, Q-Chem, Inc., Pleasanton, CA (2017)
 Q-Chem 5.0.1 for Intel X86 EM64T Linux

User input:
--------------------------------------------------------------
$molecule
0  1
O -3.94934 -3.66094 2.70899
C -3.26408 -4.56952 2.26188
C -3.36658 -6.02376 2.66595
C -4.48089 -6.40111 3.65578
C -5.47881 -5.31573 3.99369
O -6.7108 -5.86694 4.203
C -7.66562 -4.93277 4.71767
C -9.07929 -5.3663 4.3439
O -10.03456 -4.69255 5.17842
C -9.70783 -4.61359 6.49225
C -10.86585 -4.18521 7.3618
C -11.58754 -5.32941 8.08861
C -10.85128 -6.65333 8.13163
O -9.74817 -6.83515 8.62625
O -2.30606 -4.27351 1.34425
O -11.50867 -7.71536 7.59649
O -8.79932 -5.21814 7.03789
C -11.00168 -8.99685 7.54462
C -10.46378 -3.3019 8.56011
C -11.66442 -2.4689 9.00761
C -12.54632 -3.5445 9.61329
C -11.61036 -4.75576 9.51572
O -10.32122 -4.20037 9.63392
H -11.56901 -3.6064 6.71883
H -12.60131 -5.51165 7.66667
H -9.59117 -2.64627 8.34774
H -11.3056 -1.80228 9.82457
H -12.14486 -1.85078 8.21899
H -12.74481 -3.278 10.67506
H -13.50365 -3.73025 9.07971
H -11.88199 -5.5259 10.2714
O -5.12662 -4.33144 4.63789
C -2.05923 -3.00633 0.85917
C -3.71564 -6.91789 1.46115
C -3.23235 -8.34171 1.71801
C -4.21585 -8.77972 2.77817
C -5.13238 -7.55026 2.83318
O -5.11213 -7.05038 1.52083
H -2.36221 -6.30011 3.05901
H -4.08655 -6.78652 4.62234
H -1.76613 -2.32878 1.68946
H -3.30337 -6.54756 0.49695
H -3.42592 -8.9263 0.78992
H -2.16033 -8.4366 1.99499
H -4.77046 -9.66483 2.39368
H -3.77468 -9.01138 3.7717
H -6.12398 -7.87995 3.20849
H -2.96346 -2.6086 0.35067
H -1.22832 -3.05305 0.12575
H -11.74359 -9.66222 7.05747
H -10.80385 -9.37235 8.57138
H -10.06257 -9.01244 6.95092
H -9.3068 -5.25273 3.26261
H -9.15829 -6.44845 4.59184
H -7.57789 -3.94815 4.19996
H -7.28308 -4.68082 5.71439
$end

$opt
CONSTRAINT
tors           1           2           3           4      +3.954
tors           3           4           5           6    +146.251
tors           4           5           6           7    +171.392
tors           5           6           7           8    +154.299
tors           6           7           8           9    +162.390
tors           7           8           9          10     -42.701
tors           8           9          10          11    -166.973
tors           9          10          11          12     +99.490
tors          11          12          13          14     +59.283
ENDCONSTRAINT
$end

$rem
JOBTYPE                   OPT
METHOD                    B3LYP
DFT_D                     d3_op
BASIS                     STO-3G
GEOM_OPT_MAX_CYCLES       100
GEOM_OPT_TOL_GRADIENT     300
GEOM_OPT_TOL_DISPLACEMENT 1200
GEOM_OPT_TOL_ENERGY       100
SYMMETRY                  False
THRESH                    12
SCF_CONVERGENCE           8
MAX_SUB_FILE_NUM          128
MEM_STATIC                400
MEM_TOTAL                 4000
$end
--------------------------------------------------------------

   15   -1510.0925692162      8.48E-09 Convergence criterion met
 Total energy in the final basis set = -1510.09256922
   14   -1510.1697230332      9.01E-09 Convergence criterion met
 Total energy in the final basis set = -1510.16972303
   14   -1510.2133480763      7.32E-09 Convergence criterion met
 Total energy in the final basis set = -1510.21334808
   15   -1510.2396435088      1.43E-09 Convergence criterion met
 Total energy in the final basis set = -1510.23964351
   14   -1510.2525037594      4.08E-09 Convergence criterion met
 Total energy in the final basis set = -1510.25250376
   13   -1510.2588432706      9.82E-09 Convergence criterion met
 Total energy in the final basis set = -1510.25884327
   14   -1510.2619439249      3.55E-09 Convergence criterion met
 Total energy in the final basis set = -1510.26194392
   13   -1510.2635491964      2.19E-09 Convergence criterion met
   12   -1510.2684581585      7.02E-09 Convergence criterion met
 Total energy in the final basis set = -1510.26845816
   11   -1510.2684967615      6.50E-09 Convergence criterion met
 Total energy in the final basis set = -1510.26849676
   11   -1510.2685242822      4.51E-09 Convergence criterion met
 Total energy in the final basis set = -1510.26852428
   10   -1510.2685493597      9.81E-09 Convergence criterion met
 Total energy in the final basis set = -1510.26854936
   11   -1510.2685657231      3.10E-09 Convergence criterion met
 Total energy in the final basis set = -1510.26856572
   10   -1510.2685720430      8.99E-09 Convergence criterion met
 Total energy in the final basis set = -1510.26857204

             Standard Nuclear Orientation (Angstroms)
    I     Atom           X                Y                Z
 ----------------------------------------------------------------
    1      O       4.5212582576    -1.8716676916     0.8011046030
    2      C       5.3686632440    -1.2006733225     0.1768960214
    3      C       5.1495271368     0.0080589037    -0.8069686666
    4      C       3.6450601401     0.4699314530    -0.9392288004
    5      C       2.5513085864    -0.6252347837    -0.6609206516
    6      O       1.4227269438     0.0172649120    -0.0553354713
    7      C       0.2761010588    -0.9193040293     0.0449237857
    8      C      -0.5898804746    -0.3946071493     1.2487859363
    9      O      -1.9937370139    -0.8775240109     1.3427825526
   10      C      -2.7279443935    -0.9205027273     0.1148568762
   11      C      -4.2358370075    -1.1244975459     0.5066308519
   12      C      -5.0806167723     0.2243875369     0.4875450509
   13      C      -4.2362951856     1.5082232153     0.1877481685
   14      O      -3.5460411200     1.7630910706    -0.8224452609
   15      O       6.7812330335    -1.4390381355     0.2505464820
   16      O      -4.3748882092     2.3990279635     1.3041725641
   17      O      -2.2715330664    -0.8264550022    -1.0463370522
   18      C      -3.5851568959     3.6299652580     1.0692159926
   19      C      -4.9984745608    -1.9642517543    -0.6041426471
   20      C      -6.3918456942    -2.4264445052    -0.0212515477
   21      C      -7.2107640421    -1.0839153808    -0.0859997950
   22      C      -6.1254478388    -0.0967526402    -0.6710532494
   23      O      -5.3595763641    -0.9418397933    -1.6119994237
   24      H      -4.2775291513    -1.6005607162     1.5019677236
   25      H      -5.5889426325     0.3788267823     1.4554971794
   26      H      -4.3892047351    -2.7632859659    -1.0686708832
   27      H      -6.8378747149    -3.2036087652    -0.6618555462
   28      H      -6.3025211155    -2.8214157419     1.0033968812
   29      H      -8.0655112024    -1.1645926077    -0.7764283665
   30      H      -7.5818727698    -0.7608662239     0.8998023590
   31      H      -6.5258439290     0.7956221453    -1.1900577308
   32      O       2.5573432704    -1.8155347140    -1.0408861169
   33      C       7.0542951497    -2.5639811262     1.1737082069
   34      C       5.7576562105     1.2888823728    -0.0864085687
   35      C       5.6758733303     2.5499796924    -1.0356922266
   36      C       4.1646426146     2.9627588899    -0.8780390331
   37      C       3.6273053921     1.7616111041    -0.0096991931
   38      O       4.7314832716     1.5450051678     0.9550043314
   39      H       5.6220094998    -0.2113519214    -1.7808051165
   40      H       3.4678047708     0.7839459807    -1.9860811521
   41      H       6.5656758166    -3.4997726235     0.8331336411
   42      H       6.7474126320     1.1077136853     0.3757807989
   43      H       6.3551874596     3.3433781585    -0.6861232775
   44      H       5.9380177684     2.2956122003    -2.0754533708
   45      H       4.0634564217     3.9101080144    -0.3243690234
   46      H       3.6418764267     3.0573110094    -1.8432373770
   47      H       2.6680751581     1.9299313713     0.5157723073
   48      H       6.7065533952    -2.3416475393     2.2033264594
   49      H       8.1515983694    -2.6986539513     1.1750380103
   50      H      -3.7217660834     4.2573291174     1.9691919589
   51      H      -3.9422488692     4.1806309169     0.1750413018
   52      H      -2.5076894545     3.4038051574     0.9338025974
   53      H      -0.1274444394    -0.6754470954     2.2169596048
   54      H      -0.6058841261     0.7174604841     1.1849470553
   55      H       0.6276137694    -1.9595343923     0.2042932010
   56      H      -0.3559321880    -0.8770119548    -0.8704296497
 ----------------------------------------------------------------

    9   -1510.2685735081      8.10E-09 Convergence criterion met
 Total energy in the final basis set = -1510.26857351
 Final energy is   -1510.26857350807
 **  OPTIMIZATION CONVERGED  **

                    Orbital Energies (a.u.)
 --------------------------------------------------------------

 Alpha MOs
 -- Occupied --
-18.937 -18.935 -18.929 -18.924 -18.889 -18.885 -18.883 -18.876
-18.874 -18.865 -10.105 -10.098 -10.095 -10.093 -10.072 -10.065
-10.061 -10.061 -10.060 -10.057 -10.054 -10.053 -10.039 -10.038
-10.036 -10.032 -10.021 -10.020 -10.019 -10.017  -1.014  -1.009
 -1.008  -1.001  -0.971  -0.967  -0.943  -0.935  -0.933  -0.926
 -0.764  -0.760  -0.726  -0.720  -0.714  -0.705  -0.692  -0.664
 -0.659  -0.615  -0.595  -0.581  -0.547  -0.541  -0.538  -0.535
 -0.514  -0.510  -0.478  -0.468  -0.464  -0.453  -0.450  -0.443
 -0.439  -0.432  -0.430  -0.414  -0.411  -0.409  -0.405  -0.392
 -0.383  -0.380  -0.374  -0.367  -0.365  -0.358  -0.352  -0.349
 -0.343  -0.336  -0.335  -0.332  -0.328  -0.326  -0.318  -0.309
 -0.308  -0.307  -0.304  -0.301  -0.295  -0.282  -0.280  -0.275
 -0.272  -0.257  -0.253  -0.247  -0.242  -0.235  -0.231  -0.183
 -0.178  -0.174  -0.171  -0.155  -0.154  -0.145  -0.144  -0.142
 -0.138

          Ground-State Mulliken Net Atomic Charges

     Atom                 Charge (a.u.)
  ----------------------------------------
      1 O                    -0.207071
      2 C                     0.213764
      3 C                    -0.076405
      4 C                    -0.080300
      5 C                     0.215241
      6 O                    -0.178223
      7 C                    -0.066551
      8 C                    -0.049374
      9 O                    -0.172709
     10 C                     0.213093
     11 C                    -0.078160
     12 C                    -0.079690
     13 C                     0.202514
     14 O                    -0.207105
     15 O                    -0.174122
     16 O                    -0.170129
     17 O                    -0.198487
     18 C                    -0.129158
     19 C                     0.026387
     20 C                    -0.144337
     21 C                    -0.143474
     22 C                     0.026603
     23 O                    -0.182895
     24 H                     0.086929
     25 H                     0.086859
     26 H                     0.086051
     27 H                     0.078631
     28 H                     0.073782
     29 H                     0.078407
     30 H                     0.073906
     31 H                     0.084024
     32 O                    -0.211103
     33 C                    -0.128531
     34 C                     0.023399
     35 C                    -0.145532
     36 C                    -0.142135
     37 C                     0.022709
     38 O                    -0.193909
     39 H                     0.087366
     40 H                     0.083688
     41 H                     0.089911
     42 H                     0.086290
     43 H                     0.077557
     44 H                     0.073633
     45 H                     0.076896
     46 H                     0.073723
     47 H                     0.091393
     48 H                     0.088841
     49 H                     0.089140
     50 H                     0.090419
     51 H                     0.089184
     52 H                     0.088050
     53 H                     0.091233
     54 H                     0.085253
     55 H                     0.093438
     56 H                     0.111087
  ----------------------------------------
  Sum of atomic charges =     0.000000

                    Cartesian Multipole Moments
 -----------------------------------------------------------------
    Charge (ESU x 10^10)
                 0.0000
    Dipole Moment (Debye)
         X      -0.4988      Y       1.2681      Z       1.6886
       Tot       2.1698
    Quadrupole Moments (Debye-Ang)
        XX    -134.2959     XY       2.5588     YY    -151.8850
        XZ     -11.3908     YZ      -3.9448     ZZ    -164.6475

 Total job time:  60.38s(wall), 2865.10s(cpu)
        *  Thank you very much for using Q-Chem.  Have a nice day.  *
