 Q-Chem 5.0, Q-Chem, Inc., Pleasanton, CA (2017)
 Q-Chem 5.0.1 for Intel X86 EM64T Linux

User input:
--------------------------------------------------------------
$molecule
0  1
O -5.8636153052 -0.7300145262 1.9951840107
C -5.4830946863 -0.3480271903 0.8671155994
C -4.484335168 0.8313271858 0.5711371127
C -2.9459958527 0.421332707 0.512307999
C -2.773405665 -1.1494566156 0.3342476473
O -1.7407754752 -1.6429896574 -0.5478913738
C -0.3930858706 -1.1331379829 -0.1685443204
C 0.5947757616 -2.2285710799 -0.7177630845
O 2.0586324936 -2.0514649993 -0.5178335148
C 2.5400151652 -0.7199346031 -0.3423507024
C 4.1013171926 -0.7956864191 -0.4959159469
C 4.8413225714 0.5935397374 -0.3550562124
C 4.0024497805 1.6940287859 0.3937369254
O 3.4873924683 1.6256143661 1.5294975645
O -5.9520436852 -0.8888912383 -0.3744768585
O 3.9203823837 2.8453656554 -0.458342005
O 1.853465096 0.3193067316 -0.231095698
C 3.1010992041 3.8915841075 0.1948110742
C 4.870488441 -1.6834510291 0.5799048363
C 6.210781997 -2.1715510813 -0.0952888639
C 7.0126891092 -0.8187092314 -0.1624465118
C 6.0366919062 0.1620423744 0.6030484028
O 5.3445359451 -0.7070280354 1.584990286
H 4.2790296619 -1.2124270289 -1.5048574862
H 5.1800427346 0.9909543965 -1.327138151
H 4.2549368529 -2.47352095 1.0516218428
H 6.7168841104 -2.9062354869 0.5513689916
H 6.0454234176 -2.6247868897 -1.0856276271
H 7.9784250487 -0.8921860323 0.3618589551
H 7.1975173137 -0.4871835034 -1.1968837802
H 6.532495704 1.0063407485 1.1200703745
O -3.6197341098 -1.9774800629 0.7397284412
C -6.8368316002 -2.0457680906 -0.1133592706
C -4.6871058119 1.5548592581 -0.8251225602
C -4.1387065964 3.0262836402 -0.676418178
C -2.5931631273 2.7486488821 -0.5768743381
C -2.5382825942 1.187045732 -0.8259179133
O -3.6910546244 0.916257659 -1.7131695765
H -4.6228052194 1.5539366348 1.3958340006
H -2.3873685494 0.7722316773 1.3989590557
H -7.7170451042 -1.7598063679 0.4982591032
H -5.7051648057 1.4581568083 -1.2478759968
H -4.3835592245 3.6204906839 -1.5714250317
H -4.5418765689 3.5379432324 0.2118830487
H -2.0316075207 3.2825658533 -1.359542222
H -2.1743248346 3.0222822124 0.4048630005
H -1.6111240773 0.8361279705 -1.3092309016
H -6.290985983 -2.8574873079 0.4097707712
H -7.173517397 -2.4032250768 -1.1039692951
H 3.0496003991 4.7327563413 -0.5207079759
H 3.5594450001 4.239373423 1.1433008818
H 2.0776927124 3.5244915865 0.4140818335
H 0.3488787554 -3.203232355 -0.2463001425
H 0.4150895206 -2.3280831859 -1.8121313828
H -0.2855186084 -1.0389773614 0.9324139635
H -0.1519186256 -0.1519608026 -0.6210004242
$end

$rem
JOBTYPE                   OPT
METHOD                    B3LYP
DFT_D                     d3_op
BASIS                     STO-3G
GEOM_OPT_MAX_CYCLES       100
GEOM_OPT_TOL_GRADIENT     300
GEOM_OPT_TOL_DISPLACEMENT 1200
GEOM_OPT_TOL_ENERGY       100
SYMMETRY                  False
THRESH                    12
SCF_CONVERGENCE           8
MAX_SUB_FILE_NUM          128
MEM_STATIC                400
MEM_TOTAL                 4000
$end
--------------------------------------------------------------

   16   -1510.2515375830      6.35E-09 Convergence criterion met
 Total energy in the final basis set = -1510.25153758
   14   -1510.2557354815      1.99E-09 Convergence criterion met
 Total energy in the final basis set = -1510.25573548
   14   -1510.2595102314      2.94E-09 Convergence criterion met
 Total energy in the final basis set = -1510.25951023
   14   -1510.2626704172      2.69E-09 Convergence criterion met
 Total energy in the final basis set = -1510.26267042
   14   -1510.2656438726      2.55E-09 Convergence criterion met
 Total energy in the final basis set = -1510.26564387
   14   -1510.2684290219      3.65E-09 Convergence criterion met
 Total energy in the final basis set = -1510.26842902
   13   -1510.2705702376      7.98E-09 Convergence criterion met
 Total energy in the final basis set = -1510.27057024
   14   -1510.2721917460      2.16E-09 Convergence criterion met
   11   -1510.2795274218      9.21E-09 Convergence criterion met
 Total energy in the final basis set = -1510.27952742
   11   -1510.2795055165      5.07E-09 Convergence criterion met
 Total energy in the final basis set = -1510.27950552
   12   -1510.2794627455      5.08E-09 Convergence criterion met
 Total energy in the final basis set = -1510.27946275
   10   -1510.2794536803      8.44E-09 Convergence criterion met
 Total energy in the final basis set = -1510.27945368
   10   -1510.2794448054      7.34E-09 Convergence criterion met
 Total energy in the final basis set = -1510.27944481
   10   -1510.2794408073      2.75E-09 Convergence criterion met
 Total energy in the final basis set = -1510.27944081

             Standard Nuclear Orientation (Angstroms)
    I     Atom           X                Y                Z
 ----------------------------------------------------------------
    1      O      -4.4604086678    -1.4655170348     2.2894248583
    2      C      -4.3763414447    -0.5741844223     1.4159768203
    3      C      -3.1580168155     0.4038914796     1.2084039280
    4      C      -2.1153761874    -0.0752207726     0.1158648105
    5      C      -2.4648765185    -1.4697893509    -0.5207751677
    6      O      -1.4823602043    -2.1043646657    -1.3638575187
    7      C      -0.1341229434    -1.5068082761    -1.2612893270
    8      C       0.8104385301    -2.2486168837    -2.2776077591
    9      O       2.2161748566    -2.1511243869    -1.8040734241
   10      C       2.6311043972    -0.7842276773    -1.7649416326
   11      C       3.9255076488    -0.6308709304    -0.8881296498
   12      C       3.8427534195     0.6753075298     0.0179072969
   13      C       2.5812253087     1.5682479242    -0.2669378041
   14      O       1.4320991689     1.4260496294     0.2128437470
   15      O      -5.4410874514    -0.2023837153     0.5318098593
   16      O       2.9899221575     2.6408251638    -1.1162554943
   17      O       2.0013427702     0.1549223968    -2.3047345418
   18      C       1.8269441267     3.4711615188    -1.5031550942
   19      C       4.0155349256    -1.7574274360     0.2213783209
   20      C       5.4319066405    -1.6856950729     0.9146330008
   21      C       5.2549955680    -0.4329952301     1.8500868185
   22      C       3.7940499078     0.0239736181     1.4670542128
   23      O       3.0791730582    -1.2565382446     1.2554619091
   24      H       4.8140583664    -0.6095561533    -1.5458212428
   25      H       4.7400011866     1.3034637083    -0.1217669392
   26      H       3.7033780617    -2.7578084530    -0.1338256639
   27      H       5.6248860169    -2.6019824255     1.4946594180
   28      H       6.2425056701    -1.5555032273     0.1799783937
   29      H       5.3002852842    -0.7150883111     2.9140901525
   30      H       6.0029649784     0.3528843246     1.6595455388
   31      H       3.2692166872     0.6363377157     2.2255446181
   32      O      -3.5672331592    -2.0511498426    -0.4028659256
   33      C      -6.5575451943    -1.1628440926     0.6677455027
   34      C      -3.5826504681     1.8069719077     0.6068552476
   35      C      -2.3654966850     2.8101053204     0.7538553162
   36      C      -1.4233840174     2.3338850773    -0.4135532880
   37      C      -2.2391415550     1.1025524333    -0.9593188686
   38      O      -3.6467769947     1.5373602026    -0.8482605081
   39      H      -2.6573715309     0.5086626504     2.1873651610
   40      H      -1.1027689288    -0.0978625878     0.5516531993
   41      H      -6.9314619468    -1.2152229375     1.7109974378
   42      H      -4.5561437177     2.1871658099     0.9713604565
   43      H      -2.7015769788     3.8487476151     0.6066663338
   44      H      -1.8873571530     2.7330425605     1.7436581919
   45      H      -1.3465802388     3.1051256192    -1.1964268149
   46      H      -0.4043601771     2.0494918116    -0.0845764908
   47      H      -2.0134048604     0.8043431270    -2.0018098206
   48      H      -6.2491258539    -2.1801180331     0.3503493661
   49      H      -7.3605836963    -0.7951830659     0.0026765727
   50      H       2.2327658907     4.2982743176    -2.1140499772
   51      H       1.3040771150     3.8843579759    -0.6168955788
   52      H       1.1034985449     2.8851373633    -2.1052654241
   53      H       0.5786710052    -3.3323869756    -2.2967149815
   54      H       0.6960082919    -1.8285583929    -3.2994882614
   55      H       0.2877147869    -1.6426129915    -0.2399630258
   56      H      -0.1283687605    -0.4239814008    -1.4971367536
 ----------------------------------------------------------------

    9   -1510.2794416777      6.45E-09 Convergence criterion met
 Total energy in the final basis set = -1510.27944168
 Final energy is   -1510.27944167773
 **  OPTIMIZATION CONVERGED  **

                    Orbital Energies (a.u.)
 --------------------------------------------------------------

 Alpha MOs
 -- Occupied --
-18.952 -18.944 -18.934 -18.912 -18.895 -18.894 -18.881 -18.881
-18.880 -18.847 -10.117 -10.111 -10.101 -10.085 -10.081 -10.077
-10.069 -10.068 -10.067 -10.054 -10.051 -10.051 -10.045 -10.044
-10.032 -10.028 -10.027 -10.025 -10.011 -10.002  -1.031  -1.017
 -1.007  -0.988  -0.979  -0.963  -0.955  -0.944  -0.938  -0.913
 -0.772  -0.754  -0.734  -0.722  -0.712  -0.706  -0.698  -0.670
 -0.643  -0.620  -0.595  -0.591  -0.555  -0.546  -0.538  -0.531
 -0.520  -0.508  -0.490  -0.478  -0.472  -0.465  -0.457  -0.441
 -0.440  -0.437  -0.429  -0.417  -0.413  -0.404  -0.402  -0.395
 -0.393  -0.388  -0.384  -0.377  -0.361  -0.359  -0.356  -0.351
 -0.341  -0.339  -0.335  -0.332  -0.325  -0.322  -0.317  -0.315
 -0.314  -0.308  -0.304  -0.299  -0.293  -0.290  -0.283  -0.273
 -0.266  -0.266  -0.258  -0.250  -0.243  -0.234  -0.226  -0.194
 -0.184  -0.175  -0.169  -0.161  -0.154  -0.153  -0.149  -0.136
 -0.129

          Ground-State Mulliken Net Atomic Charges

     Atom                 Charge (a.u.)
  ----------------------------------------
      1 O                    -0.223749
      2 C                     0.213757
      3 C                    -0.080004
      4 C                    -0.087076
      5 C                     0.212608
      6 O                    -0.170841
      7 C                    -0.054201
      8 C                    -0.045829
      9 O                    -0.167615
     10 C                     0.212629
     11 C                    -0.077586
     12 C                    -0.080987
     13 C                     0.217989
     14 O                    -0.224123
     15 O                    -0.168569
     16 O                    -0.165316
     17 O                    -0.214034
     18 C                    -0.128314
     19 C                     0.022714
     20 C                    -0.144623
     21 C                    -0.143297
     22 C                     0.024529
     23 O                    -0.191433
     24 H                     0.088407
     25 H                     0.087452
     26 H                     0.093790
     27 H                     0.079946
     28 H                     0.074250
     29 H                     0.079774
     30 H                     0.074680
     31 H                     0.085980
     32 O                    -0.193336
     33 C                    -0.127057
     34 C                     0.026471
     35 C                    -0.145682
     36 C                    -0.158248
     37 C                     0.022431
     38 O                    -0.186567
     39 H                     0.082371
     40 H                     0.088614
     41 H                     0.084539
     42 H                     0.085679
     43 H                     0.073804
     44 H                     0.071881
     45 H                     0.067947
     46 H                     0.095394
     47 H                     0.077531
     48 H                     0.092900
     49 H                     0.086128
     50 H                     0.091868
     51 H                     0.089592
     52 H                     0.094008
     53 H                     0.100543
     54 H                     0.093681
     55 H                     0.090222
     56 H                     0.094380
  ----------------------------------------
  Sum of atomic charges =     0.000000

                    Cartesian Multipole Moments
 -----------------------------------------------------------------
    Charge (ESU x 10^10)
                 0.0000
    Dipole Moment (Debye)
         X       5.4270      Y       2.0483      Z      -0.5763
       Tot       5.8292
    Quadrupole Moments (Debye-Ang)
        XX    -154.8454     XY      -7.0027     YY    -159.3965
        XZ      -0.1114     YZ       5.3364     ZZ    -161.5796

 Total job time:  91.72s(wall), 4368.95s(cpu)
        *  Thank you very much for using Q-Chem.  Have a nice day.  *
