 Q-Chem 5.0, Q-Chem, Inc., Pleasanton, CA (2017)
 Q-Chem 5.0.1 for Intel X86 EM64T Linux

User input:
--------------------------------------------------------------
$molecule
0  1
O -3.94934 -3.66094 2.70899
C -3.26408 -4.56952 2.26188
C -3.36658 -6.02376 2.66595
C -4.34211 -6.90687 1.87077
C -4.97406 -6.28116 0.64717
O -5.03497 -7.19766 -0.36365
C -5.73809 -8.39057 -0.00056
C -6.32504 -9.05338 -1.24246
O -7.02912 -10.24931 -0.87246
C -6.62829 -10.82678 0.28729
C -7.17171 -12.22426 0.46726
C -6.72995 -12.92934 1.758
C -6.12521 -12.03801 2.82409
O -6.65742 -11.04877 3.3065
O -2.43238 -4.29315 1.22031
O -4.93392 -12.45326 3.33003
O -5.41987 -10.92369 0.48337
C -4.376 -11.98233 4.50089
C -8.70372 -12.28649 0.61406
C -9.19837 -13.67727 0.21903
C -8.68322 -14.50266 1.38224
C -8.10485 -13.39512 2.27131
O -8.92425 -12.28137 2.00302
H -6.86096 -12.81102 -0.42949
H -6.03227 -13.77566 1.56769
H -9.23655 -11.50501 0.02982
H -10.31077 -13.65131 0.26761
H -8.88538 -14.02902 -0.78753
H -9.55174 -14.99214 1.87621
H -7.91316 -15.26131 1.12325
H -8.06463 -13.72624 3.33291
O -5.08201 -5.08753 0.41989
C -2.25363 -3.03868 0.67596
C -2.01228 -6.70345 2.65005
C -2.04965 -7.99249 3.47202
C -2.81578 -8.8813 2.52739
C -3.1328 -7.88862 1.41469
O -1.95837 -7.12324 1.3332
H -3.73336 -5.97029 3.71604
H -5.09421 -7.45646 2.47977
H -1.8607 -2.34048 1.44553
H -1.19101 -6.03468 2.99082
H -1.02044 -8.39891 3.59084
H -2.5172 -7.84669 4.46993
H -2.1117 -9.64388 2.12195
H -3.7147 -9.37744 2.9375
H -3.23663 -8.47937 0.48465
H -3.21592 -2.65428 0.27539
H -1.52186 -3.10406 -0.15504
H -3.39489 -12.47448 4.66072
H -5.04006 -12.22379 5.35801
H -4.22681 -10.88749 4.45983
H -7.01683 -8.35288 -1.75763
H -5.50831 -9.3262 -1.94429
H -6.65649 -8.09978 0.56628
H -5.18158 -8.90386 0.74686
$end

$opt
CONSTRAINT
tors           1           2           3           4     +89.675
tors           3           4           5           6    +140.013
tors           4           5           6           7     +56.416
tors           5           6           7           8    +154.020
tors           6           7           8           9    -180.000
tors           7           8           9          10     -24.635
tors           8           9          10          11    -166.973
tors           9          10          11          12    +179.188
tors          11          12          13          14     +55.256
ENDCONSTRAINT
$end

$rem
JOBTYPE                   OPT
METHOD                    B3LYP
DFT_D                     d3_op
BASIS                     STO-3G
GEOM_OPT_MAX_CYCLES       100
GEOM_OPT_TOL_GRADIENT     300
GEOM_OPT_TOL_DISPLACEMENT 1200
GEOM_OPT_TOL_ENERGY       100
SYMMETRY                  False
THRESH                    12
SCF_CONVERGENCE           8
MAX_SUB_FILE_NUM          128
MEM_STATIC                400
MEM_TOTAL                 4000
$end
--------------------------------------------------------------

   16   -1510.0446157933      4.05E-09 Convergence criterion met
 Total energy in the final basis set = -1510.04461579
   15   -1510.1292929789      3.44E-09 Convergence criterion met
 Total energy in the final basis set = -1510.12929298
   15   -1510.1787889422      1.42E-09 Convergence criterion met
 Total energy in the final basis set = -1510.17878894
   15   -1510.2102078347      2.69E-09 Convergence criterion met
 Total energy in the final basis set = -1510.21020783
   14   -1510.2283965465      6.72E-09 Convergence criterion met
 Total energy in the final basis set = -1510.22839655
   14   -1510.2385590155      3.38E-09 Convergence criterion met
 Total energy in the final basis set = -1510.23855902
   13   -1510.2446201651      9.97E-09 Convergence criterion met
 Total energy in the final basis set = -1510.24462017
   13   -1510.2481199966      4.68E-09 Convergence criterion met
   10   -1510.2515842333      8.16E-09 Convergence criterion met
 Total energy in the final basis set = -1510.25158423
   10   -1510.2516056434      8.94E-09 Convergence criterion met
 Total energy in the final basis set = -1510.25160564
   10   -1510.2516193159      7.47E-09 Convergence criterion met
 Total energy in the final basis set = -1510.25161932
    9   -1510.2516259794      8.45E-09 Convergence criterion met
 Total energy in the final basis set = -1510.25162598
    9   -1510.2516283453      4.38E-09 Convergence criterion met
 Total energy in the final basis set = -1510.25162835
    9   -1510.2516298885      3.18E-09 Convergence criterion met
 Total energy in the final basis set = -1510.25162989

             Standard Nuclear Orientation (Angstroms)
    I     Atom           X                Y                Z
 ----------------------------------------------------------------
    1      O      -5.8636153052    -0.7300145262     1.9951840107
    2      C      -5.4830946863    -0.3480271903     0.8671155994
    3      C      -4.4843351680     0.8313271858     0.5711371127
    4      C      -2.9459958527     0.4213327070     0.5123079990
    5      C      -2.7734056650    -1.1494566156     0.3342476473
    6      O      -1.7407754752    -1.6429896574    -0.5478913738
    7      C      -0.3930858706    -1.1331379829    -0.1685443204
    8      C       0.5947757616    -2.2285710799    -0.7177630845
    9      O       2.0586324936    -2.0514649993    -0.5178335148
   10      C       2.5400151652    -0.7199346031    -0.3423507024
   11      C       4.1013171926    -0.7956864191    -0.4959159469
   12      C       4.8413225714     0.5935397374    -0.3550562124
   13      C       4.0024497805     1.6940287859     0.3937369254
   14      O       3.4873924683     1.6256143661     1.5294975645
   15      O      -5.9520436852    -0.8888912383    -0.3744768585
   16      O       3.9203823837     2.8453656554    -0.4583420050
   17      O       1.8534650960     0.3193067316    -0.2310956980
   18      C       3.1010992041     3.8915841075     0.1948110742
   19      C       4.8704884410    -1.6834510291     0.5799048363
   20      C       6.2107819970    -2.1715510813    -0.0952888639
   21      C       7.0126891092    -0.8187092314    -0.1624465118
   22      C       6.0366919062     0.1620423744     0.6030484028
   23      O       5.3445359451    -0.7070280354     1.5849902860
   24      H       4.2790296619    -1.2124270289    -1.5048574862
   25      H       5.1800427346     0.9909543965    -1.3271381510
   26      H       4.2549368529    -2.4735209500     1.0516218428
   27      H       6.7168841104    -2.9062354869     0.5513689916
   28      H       6.0454234176    -2.6247868897    -1.0856276271
   29      H       7.9784250487    -0.8921860323     0.3618589551
   30      H       7.1975173137    -0.4871835034    -1.1968837802
   31      H       6.5324957040     1.0063407485     1.1200703745
   32      O      -3.6197341098    -1.9774800629     0.7397284412
   33      C      -6.8368316002    -2.0457680906    -0.1133592706
   34      C      -4.6871058119     1.5548592581    -0.8251225602
   35      C      -4.1387065964     3.0262836402    -0.6764181780
   36      C      -2.5931631273     2.7486488821    -0.5768743381
   37      C      -2.5382825942     1.1870457320    -0.8259179133
   38      O      -3.6910546244     0.9162576590    -1.7131695765
   39      H      -4.6228052194     1.5539366348     1.3958340006
   40      H      -2.3873685494     0.7722316773     1.3989590557
   41      H      -7.7170451042    -1.7598063679     0.4982591032
   42      H      -5.7051648057     1.4581568083    -1.2478759968
   43      H      -4.3835592245     3.6204906839    -1.5714250317
   44      H      -4.5418765689     3.5379432324     0.2118830487
   45      H      -2.0316075207     3.2825658533    -1.3595422220
   46      H      -2.1743248346     3.0222822124     0.4048630005
   47      H      -1.6111240773     0.8361279705    -1.3092309016
   48      H      -6.2909859830    -2.8574873079     0.4097707712
   49      H      -7.1735173970    -2.4032250768    -1.1039692951
   50      H       3.0496003991     4.7327563413    -0.5207079759
   51      H       3.5594450001     4.2393734230     1.1433008818
   52      H       2.0776927124     3.5244915865     0.4140818335
   53      H       0.3488787554    -3.2032323550    -0.2463001425
   54      H       0.4150895206    -2.3280831859    -1.8121313828
   55      H      -0.2855186084    -1.0389773614     0.9324139635
   56      H      -0.1519186256    -0.1519608026    -0.6210004242
 ----------------------------------------------------------------

    9   -1510.2516303196      2.26E-09 Convergence criterion met
 Total energy in the final basis set = -1510.25163032
 Final energy is   -1510.25163031957
 **  OPTIMIZATION CONVERGED  **

                    Orbital Energies (a.u.)
 --------------------------------------------------------------

 Alpha MOs
 -- Occupied --
-18.946 -18.928 -18.925 -18.920 -18.898 -18.891 -18.890 -18.887
-18.865 -18.857 -10.115 -10.108 -10.093 -10.089 -10.082 -10.076
-10.064 -10.062 -10.061 -10.060 -10.058 -10.052 -10.043 -10.042
-10.038 -10.032 -10.023 -10.022 -10.021 -10.019  -1.022  -1.012
 -1.004  -0.995  -0.973  -0.971  -0.952  -0.942  -0.928  -0.922
 -0.766  -0.761  -0.729  -0.721  -0.718  -0.705  -0.701  -0.661
 -0.650  -0.620  -0.598  -0.590  -0.549  -0.545  -0.540  -0.538
 -0.521  -0.510  -0.484  -0.470  -0.465  -0.462  -0.457  -0.449
 -0.437  -0.436  -0.432  -0.411  -0.409  -0.408  -0.403  -0.400
 -0.396  -0.385  -0.381  -0.367  -0.363  -0.357  -0.355  -0.345
 -0.341  -0.338  -0.333  -0.333  -0.329  -0.327  -0.323  -0.320
 -0.311  -0.309  -0.306  -0.304  -0.298  -0.284  -0.282  -0.278
 -0.273  -0.259  -0.250  -0.248  -0.243  -0.237  -0.233  -0.188
 -0.180  -0.171  -0.164  -0.159  -0.156  -0.148  -0.145  -0.142
 -0.137

          Ground-State Mulliken Net Atomic Charges

     Atom                 Charge (a.u.)
  ----------------------------------------
      1 O                    -0.218292
      2 C                     0.212988
      3 C                    -0.081610
      4 C                    -0.081164
      5 C                     0.217908
      6 O                    -0.178401
      7 C                    -0.054247
      8 C                    -0.047583
      9 O                    -0.172461
     10 C                     0.216037
     11 C                    -0.078195
     12 C                    -0.080307
     13 C                     0.212934
     14 O                    -0.212613
     15 O                    -0.172125
     16 O                    -0.172222
     17 O                    -0.211638
     18 C                    -0.128533
     19 C                     0.026181
     20 C                    -0.142137
     21 C                    -0.145340
     22 C                     0.025860
     23 O                    -0.185222
     24 H                     0.085974
     25 H                     0.085995
     26 H                     0.087781
     27 H                     0.078811
     28 H                     0.074059
     29 H                     0.078687
     30 H                     0.073904
     31 H                     0.083039
     32 O                    -0.182550
     33 C                    -0.127728
     34 C                     0.024890
     35 C                    -0.142999
     36 C                    -0.145370
     37 C                     0.022523
     38 O                    -0.189098
     39 H                     0.082094
     40 H                     0.085489
     41 H                     0.085677
     42 H                     0.089541
     43 H                     0.077609
     44 H                     0.073909
     45 H                     0.077728
     46 H                     0.073482
     47 H                     0.082826
     48 H                     0.093638
     49 H                     0.087709
     50 H                     0.087736
     51 H                     0.086858
     52 H                     0.090221
     53 H                     0.095219
     54 H                     0.089052
     55 H                     0.084631
     56 H                     0.098846
  ----------------------------------------
  Sum of atomic charges =     0.000000

                    Cartesian Multipole Moments
 -----------------------------------------------------------------
    Charge (ESU x 10^10)
                 0.0000
    Dipole Moment (Debye)
         X       2.5838      Y       1.4742      Z      -2.0167
       Tot       3.5939
    Quadrupole Moments (Debye-Ang)
        XX    -153.9062     XY      -9.0808     YY    -151.8521
        XZ      -4.4148     YZ       3.1571     ZZ    -169.8385

 Total job time:  66.64s(wall), 3166.74s(cpu)
        *  Thank you very much for using Q-Chem.  Have a nice day.  *
