 Q-Chem 5.0, Q-Chem, Inc., Pleasanton, CA (2017)
 Q-Chem 5.0.1 for Intel X86 EM64T Linux

User input:
--------------------------------------------------------------
$molecule
0  1
O -3.94934 -3.66094 2.70899
C -3.26408 -4.56952 2.26188
C -3.36658 -6.02376 2.66595
C -2.91374 -7.07252 1.63693
C -2.24325 -6.54579 0.38749
O -1.20483 -5.72667 0.72831
C -0.39883 -5.34376 -0.39106
C -0.83032 -3.97434 -0.9055
O 0.10269 -3.50583 -1.89184
C 1.41154 -3.61039 -1.55253
C 2.33297 -2.9542 -2.55305
C 3.82645 -3.02846 -2.20339
C 4.20468 -4.02832 -1.12918
O 5.29858 -4.56105 -1.01022
O -3.05898 -4.24194 0.94548
O 3.6586 -3.90308 0.10493
O 1.57514 -3.27309 -0.39315
C 3.85122 -4.72816 1.20394
C 2.31727 -3.62393 -3.93834
C 2.77448 -2.62004 -4.99449
C 4.24595 -2.50159 -4.65245
C 4.35872 -3.56211 -3.54993
O 3.39472 -4.52586 -3.90108
H 2.00239 -1.89353 -2.64295
H 4.26623 -2.04727 -1.91936
H 1.32884 -4.05218 -4.21351
H 2.67862 -3.12435 -5.98292
H 2.21454 -1.66042 -5.01819
H 4.83774 -2.79552 -5.54769
H 4.57152 -1.50252 -4.28964
H 5.40687 -3.92752 -3.48091
O -2.60844 -6.80786 -0.75246
C -3.52648 -3.05729 0.34477
C -2.40035 -6.35175 3.82354
C -2.89002 -7.59053 4.5745
C -2.5743 -8.67535 3.56493
C -1.88126 -7.84727 2.47796
O -1.23484 -6.82494 3.19619
H -4.40872 -6.18608 3.02274
H -3.7511 -7.72819 1.30935
H -3.01727 -2.17476 0.79042
H -2.26503 -5.50406 4.53095
H -2.2252 -7.72604 5.45762
H -3.94709 -7.5504 4.91505
H -1.85321 -9.38614 4.02657
H -3.45361 -9.22892 3.17001
H -1.22789 -8.49293 1.85033
H -4.62477 -2.9612 0.48836
H -3.39853 -3.04022 -0.74757
H 2.86668 -5.1146 1.53983
H 4.30533 -4.14301 2.02938
H 4.49714 -5.60356 0.97806
H -1.79498 -4.10639 -1.41494
H -0.87463 -3.24654 -0.06601
H -0.39315 -6.08272 -1.22595
H 0.63356 -5.37782 0.00339
$end

$opt
CONSTRAINT
tors           1           2           3           4    +154.044
tors           3           4           5           6     +53.256
tors           4           5           6           7    +171.392
tors           5           6           7           8     +96.898
tors           6           7           8           9    +171.369
tors           7           8           9          10     -47.525
tors           8           9          10          11    -173.137
tors           9          10          11          12    +179.188
tors          11          12          13          14    +154.288
ENDCONSTRAINT
$end

$rem
JOBTYPE                   OPT
METHOD                    B3LYP
DFT_D                     d3_op
BASIS                     STO-3G
GEOM_OPT_MAX_CYCLES       100
GEOM_OPT_TOL_GRADIENT     300
GEOM_OPT_TOL_DISPLACEMENT 1200
GEOM_OPT_TOL_ENERGY       100
SYMMETRY                  False
THRESH                    12
SCF_CONVERGENCE           8
MAX_SUB_FILE_NUM          128
MEM_STATIC                400
MEM_TOTAL                 4000
$end
--------------------------------------------------------------

   16   -1510.0211177568      3.98E-09 Convergence criterion met
 Total energy in the final basis set = -1510.02111776
   14   -1510.1122056483      8.19E-09 Convergence criterion met
 Total energy in the final basis set = -1510.11220565
   15   -1510.1622083548      1.74E-09 Convergence criterion met
 Total energy in the final basis set = -1510.16220835
   14   -1510.1981012527      7.96E-09 Convergence criterion met
 Total energy in the final basis set = -1510.19810125
   14   -1510.2180473728      6.44E-09 Convergence criterion met
 Total energy in the final basis set = -1510.21804737
   13   -1510.2306683345      9.68E-09 Convergence criterion met
 Total energy in the final basis set = -1510.23066833
   14   -1510.2402432090      4.26E-09 Convergence criterion met
 Total energy in the final basis set = -1510.24024321
   13   -1510.2468065087      7.12E-09 Convergence criterion met
   11   -1510.2665527000      7.94E-09 Convergence criterion met
 Total energy in the final basis set = -1510.26655270
   11   -1510.2665863610      8.54E-09 Convergence criterion met
 Total energy in the final basis set = -1510.26658636
   11   -1510.2666145272      4.77E-09 Convergence criterion met
 Total energy in the final basis set = -1510.26661453
   11   -1510.2666248937      3.05E-09 Convergence criterion met
 Total energy in the final basis set = -1510.26662489
   11   -1510.2666314555      3.05E-09 Convergence criterion met
 Total energy in the final basis set = -1510.26663146
   10   -1510.2666295588      7.32E-09 Convergence criterion met
 Total energy in the final basis set = -1510.26662956

             Standard Nuclear Orientation (Angstroms)
    I     Atom           X                Y                Z
 ----------------------------------------------------------------
    1      O      -5.0153706861     1.6275273422     2.2595499919
    2      C      -4.3235435947     1.2659123798     1.2799950331
    3      C      -4.8731238878     0.3816867791     0.1069699993
    4      C      -4.2189059473     0.4537677516    -1.3322670446
    5      C      -2.7102653902     0.8764450132    -1.4481600426
    6      O      -1.9091605152     0.0473168574    -0.5994404431
    7      C      -0.4696381754     0.2890568486    -0.8468339260
    8      C       0.0905711316     1.3080428472     0.2164971349
    9      O       1.5658114980     1.5015067592     0.2253875656
   10      C       2.3316324955     0.2963522605     0.2072256885
   11      C       3.8402727710     0.7094381963     0.4003035586
   12      C       4.7929170574    -0.5445918246     0.4187414998
   13      C       4.1766124843    -1.8850781506     0.9526209080
   14      O       4.5509107932    -3.0412457373     0.6562085419
   15      O      -2.9830809465     1.7167457445     1.0685696333
   16      O       3.3318619492    -1.5803217342     2.0744199237
   17      O       1.9018211961    -0.8616208109     0.0048972176
   18      C       2.7712655644    -2.8231509673     2.6488373215
   19      C       4.2828306037     1.3512411276    -0.9877439751
   20      C       5.7960820103     1.8070961694    -0.9348740208
   21      C       6.5444614534     0.4357540144    -1.1394309603
   22      C       5.3284131406    -0.5663378616    -1.0764991329
   23      O       4.2905819088     0.1484999782    -1.8585181074
   24      H       3.9616093407     1.3779107252     1.2699486369
   25      H       5.6397169781    -0.3332180865     1.0999480784
   26      H       3.5738962038     2.1088991741    -1.3751239384
   27      H       6.0157712538     2.5181644746    -1.7467168352
   28      H       6.0441913266     2.2831879320     0.0274530897
   29      H       7.0285447488     0.3876978571    -2.1281258313
   30      H       7.2993515607     0.2363137991    -0.3623902372
   31      H       5.5069116410    -1.5792092329    -1.4874045271
   32      O      -2.2507307267     1.7463734851    -2.2215017943
   33      C      -2.5944546535     2.6316197057     2.1690722077
   34      C      -4.9109408107    -1.1981386413     0.3643797994
   35      C      -6.2126837637    -1.7373412490    -0.3470006818
   36      C      -5.8146007392    -1.5414070839    -1.8581472250
   37      C      -4.3037295150    -1.0899552193    -1.7281473593
   38      O      -3.8357042420    -1.7489390560    -0.4864922903
   39      H      -5.9209357831     0.7222732963     0.0107640452
   40      H      -4.8025631659     1.1026329466    -2.0083467383
   41      H      -2.4661928309     2.0829225557     3.1245145480
   42      H      -4.7768994098    -1.5067790439     1.4192216399
   43      H      -6.3625719460    -2.8025671019    -0.1077400223
   44      H      -7.1178260072    -1.1775455653    -0.0627134544
   45      H      -5.8891520923    -2.4827467206    -2.4250568298
   46      H      -6.4285709373    -0.7779477796    -2.3624851979
   47      H      -3.6579246473    -1.3736165598    -2.5818358029
   48      H      -3.3490510013     3.4293002935     2.3202730529
   49      H      -1.6304475070     3.0804406299     1.8699864465
   50      H       1.6903031896    -2.8858067330     2.4105444007
   51      H       2.9037239227    -2.7894917953     3.7474107408
   52      H       3.2989347727    -3.7002465090     2.2224453571
   53      H      -0.3271133671     2.3178319059     0.0295131425
   54      H      -0.2393418404     0.9712080963     1.2242537498
   55      H      -0.3110511602     0.6851660328    -1.8711459990
   56      H       0.0644621772    -0.6733081482    -0.7119410976
 ----------------------------------------------------------------

    9   -1510.2666294671      6.07E-09 Convergence criterion met
 Total energy in the final basis set = -1510.26662947
 Final energy is   -1510.26662946711
 **  OPTIMIZATION CONVERGED  **

                    Orbital Energies (a.u.)
 --------------------------------------------------------------

 Alpha MOs
 -- Occupied --
-18.941 -18.938 -18.928 -18.923 -18.890 -18.885 -18.883 -18.872
-18.868 -18.867 -10.106 -10.102 -10.096 -10.095 -10.070 -10.067
-10.062 -10.061 -10.060 -10.058 -10.054 -10.051 -10.039 -10.039
-10.038 -10.035 -10.022 -10.021 -10.020 -10.019  -1.016  -1.014
 -1.004  -1.002  -0.972  -0.969  -0.943  -0.937  -0.929  -0.928
 -0.764  -0.763  -0.728  -0.723  -0.710  -0.705  -0.692  -0.665
 -0.654  -0.617  -0.598  -0.582  -0.545  -0.544  -0.538  -0.537
 -0.515  -0.509  -0.483  -0.476  -0.469  -0.458  -0.456  -0.438
 -0.433  -0.431  -0.423  -0.414  -0.410  -0.408  -0.403  -0.394
 -0.391  -0.378  -0.376  -0.366  -0.362  -0.359  -0.350  -0.344
 -0.342  -0.342  -0.333  -0.330  -0.329  -0.329  -0.321  -0.315
 -0.312  -0.309  -0.306  -0.301  -0.295  -0.290  -0.284  -0.279
 -0.272  -0.254  -0.248  -0.242  -0.238  -0.234  -0.233  -0.187
 -0.181  -0.167  -0.165  -0.156  -0.152  -0.149  -0.147  -0.144
 -0.142

          Ground-State Mulliken Net Atomic Charges

     Atom                 Charge (a.u.)
  ----------------------------------------
      1 O                    -0.217135
      2 C                     0.206197
      3 C                    -0.080548
      4 C                    -0.078553
      5 C                     0.212938
      6 O                    -0.161514
      7 C                    -0.063437
      8 C                    -0.049665
      9 O                    -0.173480
     10 C                     0.222688
     11 C                    -0.074997
     12 C                    -0.079632
     13 C                     0.217619
     14 O                    -0.217530
     15 O                    -0.166055
     16 O                    -0.175179
     17 O                    -0.206948
     18 C                    -0.135401
     19 C                     0.023192
     20 C                    -0.145448
     21 C                    -0.141544
     22 C                     0.023918
     23 O                    -0.192109
     24 H                     0.087980
     25 H                     0.083704
     26 H                     0.085921
     27 H                     0.078560
     28 H                     0.073518
     29 H                     0.078368
     30 H                     0.073543
     31 H                     0.090971
     32 O                    -0.220360
     33 C                    -0.128925
     34 C                     0.027128
     35 C                    -0.141527
     36 C                    -0.145612
     37 C                     0.026301
     38 O                    -0.182672
     39 H                     0.085597
     40 H                     0.085174
     41 H                     0.088437
     42 H                     0.085031
     43 H                     0.078346
     44 H                     0.074731
     45 H                     0.078782
     46 H                     0.073993
     47 H                     0.083046
     48 H                     0.092972
     49 H                     0.089790
     50 H                     0.086304
     51 H                     0.083018
     52 H                     0.100964
     53 H                     0.090064
     54 H                     0.085840
     55 H                     0.091729
     56 H                     0.111913
  ----------------------------------------
  Sum of atomic charges =     0.000000

                    Cartesian Multipole Moments
 -----------------------------------------------------------------
    Charge (ESU x 10^10)
                 0.0000
    Dipole Moment (Debye)
         X      -0.1946      Y       1.5717      Z       1.2733
       Tot       2.0321
    Quadrupole Moments (Debye-Ang)
        XX    -143.2225     XY      12.0706     YY    -163.2699
        XZ      10.1859     YZ       0.8604     ZZ    -159.9537

 Total job time:  94.18s(wall), 4467.22s(cpu)
        *  Thank you very much for using Q-Chem.  Have a nice day.  *
