 Q-Chem 5.0, Q-Chem, Inc., Pleasanton, CA (2017)
 Q-Chem 5.0.1 for Intel X86 EM64T Linux

User input:
--------------------------------------------------------------
$molecule
0  1
O -5.0153706861 1.6275273422 2.2595499919
C -4.3235435947 1.2659123798 1.2799950331
C -4.8731238878 0.3816867791 0.1069699993
C -4.2189059473 0.4537677516 -1.3322670446
C -2.7102653902 0.8764450132 -1.4481600426
O -1.9091605152 0.0473168574 -0.5994404431
C -0.4696381754 0.2890568486 -0.846833926
C 0.0905711316 1.3080428472 0.2164971349
O 1.565811498 1.5015067592 0.2253875656
C 2.3316324955 0.2963522605 0.2072256885
C 3.840272771 0.7094381963 0.4003035586
C 4.7929170574 -0.5445918246 0.4187414998
C 4.1766124843 -1.8850781506 0.952620908
O 4.5509107932 -3.0412457373 0.6562085419
O -2.9830809465 1.7167457445 1.0685696333
O 3.3318619492 -1.5803217342 2.0744199237
O 1.9018211961 -0.8616208109 0.0048972176
C 2.7712655644 -2.8231509673 2.6488373215
C 4.2828306037 1.3512411276 -0.9877439751
C 5.7960820103 1.8070961694 -0.9348740208
C 6.5444614534 0.4357540144 -1.1394309603
C 5.3284131406 -0.5663378616 -1.0764991329
O 4.2905819088 0.1484999782 -1.8585181074
H 3.9616093407 1.3779107252 1.2699486369
H 5.6397169781 -0.3332180865 1.0999480784
H 3.5738962038 2.1088991741 -1.3751239384
H 6.0157712538 2.5181644746 -1.7467168352
H 6.0441913266 2.283187932 0.0274530897
H 7.0285447488 0.3876978571 -2.1281258313
H 7.2993515607 0.2363137991 -0.3623902372
H 5.506911641 -1.5792092329 -1.4874045271
O -2.2507307267 1.7463734851 -2.2215017943
C -2.5944546535 2.6316197057 2.1690722077
C -4.9109408107 -1.1981386413 0.3643797994
C -6.2126837637 -1.737341249 -0.3470006818
C -5.8146007392 -1.5414070839 -1.858147225
C -4.303729515 -1.0899552193 -1.7281473593
O -3.835704242 -1.748939056 -0.4864922903
H -5.9209357831 0.7222732963 0.0107640452
H -4.8025631659 1.1026329466 -2.0083467383
H -2.4661928309 2.0829225557 3.124514548
H -4.7768994098 -1.5067790439 1.4192216399
H -6.362571946 -2.8025671019 -0.1077400223
H -7.1178260072 -1.1775455653 -0.0627134544
H -5.8891520923 -2.4827467206 -2.4250568298
H -6.4285709373 -0.7779477796 -2.3624851979
H -3.6579246473 -1.3736165598 -2.5818358029
H -3.3490510013 3.4293002935 2.3202730529
H -1.630447507 3.0804406299 1.8699864465
H 1.6903031896 -2.885806733 2.4105444007
H 2.9037239227 -2.7894917953 3.7474107408
H 3.2989347727 -3.700246509 2.2224453571
H -0.3271133671 2.3178319059 0.0295131425
H -0.2393418404 0.9712080963 1.2242537498
H -0.3110511602 0.6851660328 -1.871145999
H 0.0644621772 -0.6733081482 -0.7119410976
$end

$rem
JOBTYPE                   OPT
METHOD                    B3LYP
DFT_D                     d3_op
BASIS                     STO-3G
GEOM_OPT_MAX_CYCLES       100
GEOM_OPT_TOL_GRADIENT     300
GEOM_OPT_TOL_DISPLACEMENT 1200
GEOM_OPT_TOL_ENERGY       100
SYMMETRY                  False
THRESH                    12
SCF_CONVERGENCE           8
MAX_SUB_FILE_NUM          128
MEM_STATIC                400
MEM_TOTAL                 4000
$end
--------------------------------------------------------------

   16   -1510.2665241802      5.77E-09 Convergence criterion met
 Total energy in the final basis set = -1510.26652418
   13   -1510.2700740148      9.13E-09 Convergence criterion met
 Total energy in the final basis set = -1510.27007401
   13   -1510.2720182625      6.57E-09 Convergence criterion met
 Total energy in the final basis set = -1510.27201826
   13   -1510.2749434688      6.38E-09 Convergence criterion met
 Total energy in the final basis set = -1510.27494347
   13   -1510.2769693517      4.07E-09 Convergence criterion met
 Total energy in the final basis set = -1510.27696935
   12   -1510.2785483947      6.86E-09 Convergence criterion met
 Total energy in the final basis set = -1510.27854839
   13   -1510.2797810175      3.70E-09 Convergence criterion met
 Total energy in the final basis set = -1510.27978102
   13   -1510.2809332482      4.31E-09 Convergence criterion met
   11   -1510.2880372963      5.81E-09 Convergence criterion met
 Total energy in the final basis set = -1510.28803730
   12   -1510.2881474732      5.81E-09 Convergence criterion met
 Total energy in the final basis set = -1510.28814747
   12   -1510.2882015712      2.68E-09 Convergence criterion met
 Total energy in the final basis set = -1510.28820157
   12   -1510.2882178927      2.58E-09 Convergence criterion met
 Total energy in the final basis set = -1510.28821789
   10   -1510.2882216953      7.58E-09 Convergence criterion met
 Total energy in the final basis set = -1510.28822170
   10   -1510.2882227100      5.49E-09 Convergence criterion met
 Total energy in the final basis set = -1510.28822271

             Standard Nuclear Orientation (Angstroms)
    I     Atom           X                Y                Z
 ----------------------------------------------------------------
    1      O      -3.4794542710    -1.0669890595     2.0741040668
    2      C      -3.7815298933    -0.0419793288     1.4284136875
    3      C      -4.7789831398     0.0645523420     0.2216239063
    4      C      -4.2042985527     0.7770207273    -1.0727352733
    5      C      -2.6914547260     1.1673566902    -0.9899599092
    6      O      -1.9385347781     0.0009032496    -0.6248915326
    7      C      -0.4852187482     0.2829421558    -0.6875385849
    8      C       0.0293751245     0.9547488014     0.6407768435
    9      O       1.4347865697     1.4130822075     0.5128421989
   10      C       2.3368226924     0.3070360923     0.5986248036
   11      C       3.7924307996     0.8461747858     0.4062796123
   12      C       4.8920940421    -0.2847305265     0.5282453698
   13      C       4.3326653988    -1.7018140325     0.9258897315
   14      O       4.2117930502    -2.7016695794     0.1872852895
   15      O      -3.3090129061     1.2779024187     1.7369132224
   16      O       4.1068505947    -1.7046922111     2.3441060720
   17      O       1.9797394131    -0.8794089244     0.7757144915
   18      C       3.5066452374    -2.9956040437     2.7473532278
   19      C       4.0104725536     1.3146785707    -1.0980300469
   20      C       5.3611173598     2.1296625013    -1.1818019810
   21      C       6.4228202638     0.9695825587    -1.1074596700
   22      C       5.4846154716    -0.2887021858    -0.9436055160
   23      O       4.3162079908     0.0455825534    -1.7936561156
   24      H       3.9612667633     1.6736742891     1.1184317241
   25      H       5.6545265731     0.0018202527     1.2746158596
   26      H       3.1283200907     1.8101829890    -1.5485740936
   27      H       5.4225835322     2.6754972005    -2.1366670321
   28      H       5.4604406857     2.8514678021    -0.3554185871
   29      H       7.0043579971     0.8954471061    -2.0401760246
   30      H       7.1211078063     1.0838611577    -0.2630904554
   31      H       5.9172930004    -1.2596741338    -1.2533351708
   32      O      -2.1819260655     2.2770563650    -1.2573403682
   33      C      -2.5183396944     1.2566528156     2.9888022874
   34      C      -5.1598311090    -1.3643327443    -0.3491406528
   35      C      -6.4994256015    -1.2265392643    -1.1700823148
   36      C      -5.9863263418    -0.4735804135    -2.4540122943
   37      C      -4.4376057391    -0.3704428439    -2.1534630818
   38      O      -4.1409161508    -1.6065794531    -1.3972732940
   39      H      -5.6753857683     0.6029150661     0.5817423329
   40      H      -4.7709817196     1.6930498836    -1.3147758652
   41      H      -1.8059634280     0.4084349144     3.0117147404
   42      H      -5.1330954730    -2.1698804769     0.4105237365
   43      H      -6.9008660552    -2.2213352105    -1.4206883556
   44      H      -7.2702102641    -0.6619120614    -0.6216872183
   45      H      -6.1614785063    -1.0644499160    -3.3672380914
   46      H      -6.4509889970     0.5173741443    -2.5816111637
   47      H      -3.7892362675    -0.2970250619    -3.0481781215
   48      H      -3.1822158818     1.1790527417     3.8745604639
   49      H      -1.9674839240     2.2142127134     3.0287547128
   50      H       2.5137678963    -3.1393225514     2.2736868553
   51      H       3.3906109742    -2.9519958794     3.8459663734
   52      H       4.1549959829    -3.8535705295     2.4752837814
   53      H      -0.5619167530     1.8692159048     0.8453804033
   54      H      -0.0777528612     0.2405796382     1.4836382679
   55      H      -0.2520896173     0.9518104623    -1.5432008478
   56      H       0.0116807464    -0.6977418840    -0.8276418447
 ----------------------------------------------------------------

    8   -1510.2882225980      9.32E-09 Convergence criterion met
 Total energy in the final basis set = -1510.28822260
 Final energy is   -1510.28822259798
 **  OPTIMIZATION CONVERGED  **

                    Orbital Energies (a.u.)
 --------------------------------------------------------------

 Alpha MOs
 -- Occupied --
-18.943 -18.936 -18.935 -18.917 -18.888 -18.887 -18.886 -18.879
-18.876 -18.858 -10.107 -10.102 -10.101 -10.088 -10.074 -10.070
-10.067 -10.062 -10.061 -10.058 -10.056 -10.051 -10.040 -10.040
-10.039 -10.032 -10.021 -10.020 -10.020 -10.018  -1.022  -1.016
 -1.009  -0.995  -0.970  -0.969  -0.946  -0.939  -0.938  -0.922
 -0.765  -0.762  -0.729  -0.723  -0.712  -0.705  -0.695  -0.666
 -0.652  -0.619  -0.598  -0.585  -0.546  -0.544  -0.538  -0.536
 -0.513  -0.510  -0.488  -0.474  -0.466  -0.457  -0.453  -0.442
 -0.435  -0.432  -0.430  -0.416  -0.408  -0.405  -0.401  -0.398
 -0.395  -0.384  -0.376  -0.364  -0.363  -0.355  -0.354  -0.350
 -0.344  -0.340  -0.337  -0.331  -0.331  -0.326  -0.322  -0.313
 -0.310  -0.307  -0.305  -0.301  -0.297  -0.291  -0.277  -0.275
 -0.272  -0.263  -0.255  -0.247  -0.242  -0.234  -0.233  -0.194
 -0.180  -0.171  -0.162  -0.161  -0.159  -0.152  -0.144  -0.144
 -0.139

          Ground-State Mulliken Net Atomic Charges

     Atom                 Charge (a.u.)
  ----------------------------------------
      1 O                    -0.209466
      2 C                     0.214280
      3 C                    -0.078243
      4 C                    -0.078312
      5 C                     0.210411
      6 O                    -0.167142
      7 C                    -0.053148
      8 C                    -0.051467
      9 O                    -0.170374
     10 C                     0.214532
     11 C                    -0.077847
     12 C                    -0.081735
     13 C                     0.215480
     14 O                    -0.216461
     15 O                    -0.174885
     16 O                    -0.176967
     17 O                    -0.206572
     18 C                    -0.128656
     19 C                     0.024884
     20 C                    -0.143827
     21 C                    -0.143898
     22 C                     0.024762
     23 O                    -0.189705
     24 H                     0.087425
     25 H                     0.083588
     26 H                     0.085252
     27 H                     0.078370
     28 H                     0.073627
     29 H                     0.078138
     30 H                     0.073324
     31 H                     0.089568
     32 O                    -0.214260
     33 C                    -0.130388
     34 C                     0.024672
     35 C                    -0.143749
     36 C                    -0.144103
     37 C                     0.026310
     38 O                    -0.184612
     39 H                     0.084514
     40 H                     0.085874
     41 H                     0.092875
     42 H                     0.091175
     43 H                     0.078709
     44 H                     0.072968
     45 H                     0.078548
     46 H                     0.073718
     47 H                     0.082925
     48 H                     0.086009
     49 H                     0.089788
     50 H                     0.092639
     51 H                     0.085398
     52 H                     0.086566
     53 H                     0.095282
     54 H                     0.090874
     55 H                     0.092905
     56 H                     0.100428
  ----------------------------------------
  Sum of atomic charges =    -0.000000

                    Cartesian Multipole Moments
 -----------------------------------------------------------------
    Charge (ESU x 10^10)
                -0.0000
    Dipole Moment (Debye)
         X      -0.9622      Y       2.6780      Z       1.4261
       Tot       3.1830
    Quadrupole Moments (Debye-Ang)
        XX    -134.7353     XY       5.0060     YY    -168.4140
        XZ       5.6630     YZ      -0.2152     ZZ    -155.3003

 Total job time:  111.06s(wall), 5276.83s(cpu)
        *  Thank you very much for using Q-Chem.  Have a nice day.  *
