 Q-Chem 5.0, Q-Chem, Inc., Pleasanton, CA (2017)
 Q-Chem 5.0.1 for Intel X86 EM64T Linux

User input:
--------------------------------------------------------------
$molecule
0  1
O 5.5229749673 -0.1808333032 1.134740725
C 4.3119577819 0.0432740235 0.9235468965
C 3.6381768121 1.4038490283 0.5502887538
C 2.8514295834 1.335420279 -0.831180146
C 2.8360601135 -0.1156237306 -1.4561040518
O 1.5084136581 -0.648885251 -1.3760039156
C 1.240762912 -1.6271422506 -2.4538011105
C -0.085741683 -2.338121682 -2.0260391824
O -1.1993151777 -1.3627420103 -2.1188985497
C -1.6006985726 -0.9350450827 -0.8088817587
C -2.9699956294 -0.1833950847 -0.9334031219
C -3.8634454013 -0.3354458444 0.3630491896
C -3.391726533 -1.4419266058 1.3719182289
O -3.3499187693 -1.3587666098 2.617202131
O 3.2908152042 -0.9634556824 0.9282058918
O -3.1988833313 -2.6609640636 0.6375421278
O -0.9623007553 -1.1706768826 0.2396815839
C -2.7167620805 -3.7254584156 1.5442077888
C -2.7059358429 1.3867240056 -0.9039975627
C -4.0539982659 2.1491185484 -1.2223676084
C -4.810360765 2.0275825559 0.1533311166
C -3.8003321252 1.1288796123 0.9670147276
O -2.4785129299 1.6425658977 0.5360133395
H -3.4846969134 -0.5100527138 -1.8531642684
H -4.9000830529 -0.5898341767 0.0721006433
H -1.8311937223 1.7123806234 -1.4998991681
H -3.8513475025 3.199875831 -1.4836058961
H -4.6051961704 1.6795129195 -2.0529409555
H -4.9247166472 3.0108887233 0.6368524797
H -5.8039399027 1.5620207357 0.055649166
H -3.8923196065 1.16475542 2.0702093106
O 3.7909694886 -0.6884558769 -2.0256933664
C 3.8874274974 -2.303610226 1.1216232578
C 2.4641038786 1.8193606089 1.5416926977
C 2.1834126634 3.3605581213 1.3381268552
C 1.4436230077 3.3491263056 -0.0504360208
C 1.4081988498 1.8022377687 -0.3679822005
O 1.2673619067 1.1709613454 0.9645531941
H 4.4323179819 2.1707579855 0.5224593738
H 3.3005575233 2.0150618854 -1.5780337569
H 4.499867366 -2.3520511269 2.044599322
H 2.6115023805 1.4990424823 2.5911840261
H 1.5297944163 3.7389335273 2.1401505982
H 3.1097485258 3.9568002933 1.3246459141
H 0.4186649107 3.7434523965 0.0353631808
H 1.9808263529 3.9208814168 -0.8241187669
H 0.5911807281 1.471096939 -1.0354903521
H 4.5237679489 -2.5860433435 0.2574008663
H 3.0375790944 -3.0061359073 1.2005503693
H -2.6774981114 -4.6502044805 0.9394835576
H -3.3984715556 -3.8716912296 2.4066510498
H -1.7030486616 -3.4919355711 1.9300868454
H -0.3204107949 -3.1744219218 -2.7173957215
H 0.0112409929 -2.7046100829 -0.9821973181
H 2.0720231977 -2.3599374031 -2.5553436956
H 1.1052555393 -1.1066603074 -3.4278092984
$end

$rem
JOBTYPE                   OPT
METHOD                    B3LYP
DFT_D                     d3_op
BASIS                     STO-3G
GEOM_OPT_MAX_CYCLES       100
GEOM_OPT_TOL_GRADIENT     300
GEOM_OPT_TOL_DISPLACEMENT 1200
GEOM_OPT_TOL_ENERGY       100
SYMMETRY                  False
THRESH                    12
SCF_CONVERGENCE           8
MAX_SUB_FILE_NUM          128
MEM_STATIC                400
MEM_TOTAL                 4000
$end
--------------------------------------------------------------

   16   -1510.2770054783      5.50E-09 Convergence criterion met
 Total energy in the final basis set = -1510.27700548
   14   -1510.2818229796      8.30E-09 Convergence criterion met
 Total energy in the final basis set = -1510.28182298
   14   -1510.2856653263      9.96E-09 Convergence criterion met
 Total energy in the final basis set = -1510.28566533
   14   -1510.2877174721      8.59E-09 Convergence criterion met
 Total energy in the final basis set = -1510.28771747
   14   -1510.2900601533      5.05E-09 Convergence criterion met
 Total energy in the final basis set = -1510.29006015
   14   -1510.2911444646      6.61E-09 Convergence criterion met
 Total energy in the final basis set = -1510.29114446
   14   -1510.2924041940      3.31E-09 Convergence criterion met
 Total energy in the final basis set = -1510.29240419
   13   -1510.2930717269      6.08E-09 Convergence criterion met
   12   -1510.2974129533      4.47E-09 Convergence criterion met
 Total energy in the final basis set = -1510.29741295
   12   -1510.2974008728      3.38E-09 Convergence criterion met
 Total energy in the final basis set = -1510.29740087
   11   -1510.2974194469      7.65E-09 Convergence criterion met
 Total energy in the final basis set = -1510.29741945
   11   -1510.2974262410      8.69E-09 Convergence criterion met
 Total energy in the final basis set = -1510.29742624
   11   -1510.2974253327      5.15E-09 Convergence criterion met
 Total energy in the final basis set = -1510.29742533
   10   -1510.2974275068      6.49E-09 Convergence criterion met
 Total energy in the final basis set = -1510.29742751

             Standard Nuclear Orientation (Angstroms)
    I     Atom           X                Y                Z
 ----------------------------------------------------------------
    1      O       5.0716976266    -0.4917328924     0.8689478767
    2      C       3.8425504326    -0.3135129083     0.7323845014
    3      C       3.0283915069     0.9952596265     0.9911513139
    4      C       2.1214290468     1.4451994041    -0.2388503035
    5      C       2.2709173488     0.4440153604    -1.4419054365
    6      O       1.0146732666    -0.1857081286    -1.7121201148
    7      C       1.1837586203    -1.3137447054    -2.6570082878
    8      C       0.2398027812    -2.4561805529    -2.1445114823
    9      O      -1.1536527853    -1.9542648234    -2.1665516470
   10      C      -1.4831916557    -1.3419560714    -0.9097851355
   11      C      -2.7562064199    -0.4612561222    -1.1520019952
   12      C      -3.2651279476     0.3078127605     0.1335782819
   13      C      -2.5200120134    -0.0520390648     1.4718655275
   14      O      -1.7740769523     0.6968590895     2.1374395649
   15      O       2.9242970141    -1.3391046244     0.3191407173
   16      O      -2.9429475793    -1.3569279799     1.8857852001
   17      O      -0.8425071691    -1.4945159585     0.1516651149
   18      C      -2.1650697372    -1.7681224569     3.0759861386
   19      C      -2.3681313605     0.7563525183    -2.0971772502
   20      C      -3.6861659121     1.4679046326    -2.5930233670
   21      C      -4.1161885846     2.2579982776    -1.3003965318
   22      C      -2.9955746711     1.8118300705    -0.2858002811
   23      O      -1.7861926033     1.7305664195    -1.1447603328
   24      H      -3.5460243723    -1.0872832750    -1.6045508912
   25      H      -4.3436630342     0.1214267182     0.2852687225
   26      H      -1.6354160757     0.4960878309    -2.8855884158
   27      H      -3.4649526693     2.1497344619    -3.4295229234
   28      H      -4.4465695115     0.7410850461    -2.9210089446
   29      H      -4.0778547856     3.3468725177    -1.4633373414
   30      H      -5.1250499212     1.9865970508    -0.9507681936
   31      H      -2.8116518653     2.4921346962     0.5680277445
   32      O       3.3182967546     0.2003324589    -2.0826020197
   33      C       3.6614949059    -2.5762572691    -0.0185183872
   34      C       1.9139539632     0.7748995548     2.1089129744
   35      C       1.4471761219     2.1906232730     2.6236709410
   36      C       0.5818109440     2.6766027433     1.4051723680
   37      C       0.6820010528     1.4404476069     0.4270041236
   38      O       0.7529646419     0.2769373057     1.3440034010
   39      H       3.7465553067     1.7843915711     1.2745800649
   40      H       2.4169036581     2.4509928980    -0.5901829294
   41      H       4.2989403429    -2.9188451912     0.8215220628
   42      H       2.1982041952     0.0542076893     2.9001411113
   43      H       0.8348687374     2.0811964489     3.5329339421
   44      H       2.2964420399     2.8569501953     2.8453111126
   45      H      -0.4687411197     2.8248017807     1.6998165352
   46      H       0.9653732710     3.6036925601     0.9497331571
   47      H      -0.1850045526     1.3586172066    -0.2734922436
   48      H       4.3038666072    -2.4313297777    -0.9118926365
   49      H       2.8931656834    -3.3407065112    -0.2363955873
   50      H      -2.4800880089    -2.8023799247     3.3069520241
   51      H      -2.3729449124    -1.1141534457     3.9479302385
   52      H      -1.0765436344    -1.7437702908     2.8641078449
   53      H       0.2860706342    -3.3337600756    -2.8209415339
   54      H       0.5253981991    -2.7454099023    -1.1105255782
   55      H       2.2474341875    -1.6340283861    -2.6858095999
   56      H       0.8792498352    -0.9993845166    -3.6793714181
 ----------------------------------------------------------------

    9   -1510.2974278416      8.99E-09 Convergence criterion met
 Total energy in the final basis set = -1510.29742784
 Final energy is   -1510.29742784163
 **  OPTIMIZATION CONVERGED  **

                    Orbital Energies (a.u.)
 --------------------------------------------------------------

 Alpha MOs
 -- Occupied --
-18.929 -18.926 -18.926 -18.917 -18.902 -18.885 -18.867 -18.866
-18.862 -18.861 -10.100 -10.092 -10.089 -10.088 -10.073 -10.069
-10.066 -10.062 -10.059 -10.049 -10.043 -10.040 -10.034 -10.025
-10.025 -10.024 -10.024 -10.023 -10.002  -9.996  -1.015  -1.006
 -0.998  -0.995  -0.979  -0.948  -0.940  -0.928  -0.927  -0.922
 -0.766  -0.747  -0.728  -0.716  -0.707  -0.701  -0.684  -0.653
 -0.651  -0.614  -0.591  -0.573  -0.548  -0.541  -0.529  -0.517
 -0.511  -0.501  -0.479  -0.479  -0.462  -0.455  -0.453  -0.435
 -0.428  -0.423  -0.415  -0.408  -0.407  -0.404  -0.398  -0.392
 -0.386  -0.373  -0.369  -0.362  -0.355  -0.351  -0.346  -0.344
 -0.340  -0.337  -0.333  -0.332  -0.326  -0.317  -0.314  -0.309
 -0.305  -0.300  -0.291  -0.287  -0.284  -0.280  -0.274  -0.271
 -0.262  -0.251  -0.245  -0.242  -0.241  -0.234  -0.210  -0.181
 -0.169  -0.163  -0.163  -0.155  -0.153  -0.149  -0.141  -0.140
 -0.120

          Ground-State Mulliken Net Atomic Charges

     Atom                 Charge (a.u.)
  ----------------------------------------
      1 O                    -0.212378
      2 C                     0.209082
      3 C                    -0.080418
      4 C                    -0.078471
      5 C                     0.215315
      6 O                    -0.172670
      7 C                    -0.051068
      8 C                    -0.050975
      9 O                    -0.178961
     10 C                     0.218295
     11 C                    -0.077240
     12 C                    -0.081899
     13 C                     0.217518
     14 O                    -0.210728
     15 O                    -0.168703
     16 O                    -0.174996
     17 O                    -0.189419
     18 C                    -0.128162
     19 C                     0.027237
     20 C                    -0.143721
     21 C                    -0.143260
     22 C                     0.025621
     23 O                    -0.186778
     24 H                     0.087529
     25 H                     0.084010
     26 H                     0.089911
     27 H                     0.079128
     28 H                     0.075356
     29 H                     0.078985
     30 H                     0.075056
     31 H                     0.090514
     32 O                    -0.226402
     33 C                    -0.129326
     34 C                     0.026808
     35 C                    -0.143298
     36 C                    -0.144801
     37 C                     0.011728
     38 O                    -0.182308
     39 H                     0.082792
     40 H                     0.081692
     41 H                     0.090111
     42 H                     0.076926
     43 H                     0.077152
     44 H                     0.068232
     45 H                     0.080457
     46 H                     0.065816
     47 H                     0.109664
     48 H                     0.088200
     49 H                     0.085630
     50 H                     0.084772
     51 H                     0.083270
     52 H                     0.100269
     53 H                     0.087293
     54 H                     0.102237
     55 H                     0.097564
     56 H                     0.081809
  ----------------------------------------
  Sum of atomic charges =    -0.000000

                    Cartesian Multipole Moments
 -----------------------------------------------------------------
    Charge (ESU x 10^10)
                -0.0000
    Dipole Moment (Debye)
         X      -3.1933      Y      -0.6799      Z      -1.2722
       Tot       3.5040
    Quadrupole Moments (Debye-Ang)
        XX    -164.3113     XY      -4.9996     YY    -149.8666
        XZ       4.1203     YZ       1.7927     ZZ    -153.8079

 Total job time:  108.97s(wall), 5181.89s(cpu)
        *  Thank you very much for using Q-Chem.  Have a nice day.  *
