 Q-Chem 5.0, Q-Chem, Inc., Pleasanton, CA (2017)
 Q-Chem 5.0.1 for Intel X86 EM64T Linux

User input:
--------------------------------------------------------------
$molecule
0  1
O -3.94934 -3.66094 2.70899
C -3.26408 -4.56952 2.26188
C -3.36658 -6.02376 2.66595
C -3.67062 -7.04199 1.55482
C -3.66228 -6.51543 0.13681
O -2.58181 -7.01097 -0.53583
C -2.79701 -7.11661 -1.94713
C -1.47395 -7.3671 -2.66329
O -0.98349 -8.67799 -2.34094
C 0.06312 -8.7134 -1.47925
C 0.73101 -10.06657 -1.4201
C 2.23357 -10.03359 -1.10465
C 2.76422 -8.72595 -0.55221
O 3.56503 -8.61699 0.36507
O -2.30799 -4.26933 1.34221
O 2.61366 -7.64694 -1.36925
O 0.16009 -7.89663 -0.57019
C 3.13508 -6.3942 -1.1198
C 0.22509 -10.939 -0.2506
C 0.44665 -12.41238 -0.58493
C 1.95856 -12.49194 -0.51229
C 2.28092 -11.08819 0.01796
O 1.15503 -10.73911 0.78556
H 0.50689 -10.60235 -2.37166
H 2.84887 -10.28386 -1.99644
H -0.8414 -10.75698 0.00711
H 0.01755 -12.996 0.26136
H -0.00086 -12.77196 -1.53636
H 2.23238 -13.27996 0.2237
H 2.47147 -12.67551 -1.48137
H 3.25411 -11.0977 0.55586
O -4.5202 -5.78214 -0.33813
C -2.06788 -3.00354 0.85132
C -2.04111 -6.57321 3.22554
C -2.32246 -7.74419 4.16291
C -2.75951 -8.79775 3.16888
C -2.52442 -8.05036 1.84983
O -1.43421 -7.20664 2.12707
H -4.14461 -6.06355 3.46221
H -4.65427 -7.54393 1.68812
H -1.77785 -2.32075 1.67828
H -1.43117 -5.80167 3.74502
H -1.34597 -8.05205 4.60135
H -3.04308 -7.53703 4.98307
H -2.07019 -9.6672 3.25569
H -3.81342 -9.13676 3.2667
H -2.37944 -8.79467 1.0363
H -2.97436 -2.61357 0.34094
H -1.23718 -3.0503 0.11765
H 2.8507 -5.71141 -1.94645
H 4.24341 -6.44372 -1.06214
H 2.72562 -5.99366 -0.16784
H -1.63234 -7.32615 -3.76181
H -0.75765 -6.55048 -2.40985
H -3.167 -6.14563 -2.34975
H -3.53834 -7.91301 -2.1788
$end

$opt
CONSTRAINT
tors           1           2           3           4    +121.694
tors           3           4           5           6    +110.026
tors           4           5           6           7    +152.079
tors           5           6           7           8    +167.178
tors           6           7           8           9     +68.554
tors           7           8           9          10    -105.645
tors           8           9          10          11    -166.973
tors           9          10          11          12    +149.668
tors          11          12          13          14    +137.913
ENDCONSTRAINT
$end

$rem
JOBTYPE                   OPT
METHOD                    B3LYP
DFT_D                     d3_op
BASIS                     STO-3G
GEOM_OPT_MAX_CYCLES       100
GEOM_OPT_TOL_GRADIENT     300
GEOM_OPT_TOL_DISPLACEMENT 1200
GEOM_OPT_TOL_ENERGY       100
SYMMETRY                  False
THRESH                    12
SCF_CONVERGENCE           8
MAX_SUB_FILE_NUM          128
MEM_STATIC                400
MEM_TOTAL                 4000
$end
--------------------------------------------------------------

   16   -1510.1403092235      2.16E-09 Convergence criterion met
 Total energy in the final basis set = -1510.14030922
   13   -1510.2098798244      9.31E-09 Convergence criterion met
 Total energy in the final basis set = -1510.20987982
   14   -1510.2470141973      5.87E-09 Convergence criterion met
 Total energy in the final basis set = -1510.24701420
   14   -1510.2635301556      5.57E-09 Convergence criterion met
 Total energy in the final basis set = -1510.26353016
   13   -1510.2695178966      8.17E-09 Convergence criterion met
 Total energy in the final basis set = -1510.26951790
   13   -1510.2720537076      5.20E-09 Convergence criterion met
 Total energy in the final basis set = -1510.27205371
   13   -1510.2733921318      3.18E-09 Convergence criterion met
 Total energy in the final basis set = -1510.27339213
   12   -1510.2742904387      8.71E-09 Convergence criterion met
   11   -1510.2768568381      6.98E-09 Convergence criterion met
 Total energy in the final basis set = -1510.27685684
   11   -1510.2769105547      5.54E-09 Convergence criterion met
 Total energy in the final basis set = -1510.27691055
   11   -1510.2769429323      4.64E-09 Convergence criterion met
 Total energy in the final basis set = -1510.27694293
   11   -1510.2769566463      2.80E-09 Convergence criterion met
 Total energy in the final basis set = -1510.27695665
    9   -1510.2769610513      8.71E-09 Convergence criterion met
 Total energy in the final basis set = -1510.27696105
    9   -1510.2769626712      6.54E-09 Convergence criterion met
 Total energy in the final basis set = -1510.27696267

             Standard Nuclear Orientation (Angstroms)
    I     Atom           X                Y                Z
 ----------------------------------------------------------------
    1      O       5.5229749673    -0.1808333032     1.1347407250
    2      C       4.3119577819     0.0432740235     0.9235468965
    3      C       3.6381768121     1.4038490283     0.5502887538
    4      C       2.8514295834     1.3354202790    -0.8311801460
    5      C       2.8360601135    -0.1156237306    -1.4561040518
    6      O       1.5084136581    -0.6488852510    -1.3760039156
    7      C       1.2407629120    -1.6271422506    -2.4538011105
    8      C      -0.0857416830    -2.3381216820    -2.0260391824
    9      O      -1.1993151777    -1.3627420103    -2.1188985497
   10      C      -1.6006985726    -0.9350450827    -0.8088817587
   11      C      -2.9699956294    -0.1833950847    -0.9334031219
   12      C      -3.8634454013    -0.3354458444     0.3630491896
   13      C      -3.3917265330    -1.4419266058     1.3719182289
   14      O      -3.3499187693    -1.3587666098     2.6172021310
   15      O       3.2908152042    -0.9634556824     0.9282058918
   16      O      -3.1988833313    -2.6609640636     0.6375421278
   17      O      -0.9623007553    -1.1706768826     0.2396815839
   18      C      -2.7167620805    -3.7254584156     1.5442077888
   19      C      -2.7059358429     1.3867240056    -0.9039975627
   20      C      -4.0539982659     2.1491185484    -1.2223676084
   21      C      -4.8103607650     2.0275825559     0.1533311166
   22      C      -3.8003321252     1.1288796123     0.9670147276
   23      O      -2.4785129299     1.6425658977     0.5360133395
   24      H      -3.4846969134    -0.5100527138    -1.8531642684
   25      H      -4.9000830529    -0.5898341767     0.0721006433
   26      H      -1.8311937223     1.7123806234    -1.4998991681
   27      H      -3.8513475025     3.1998758310    -1.4836058961
   28      H      -4.6051961704     1.6795129195    -2.0529409555
   29      H      -4.9247166472     3.0108887233     0.6368524797
   30      H      -5.8039399027     1.5620207357     0.0556491660
   31      H      -3.8923196065     1.1647554200     2.0702093106
   32      O       3.7909694886    -0.6884558769    -2.0256933664
   33      C       3.8874274974    -2.3036102260     1.1216232578
   34      C       2.4641038786     1.8193606089     1.5416926977
   35      C       2.1834126634     3.3605581213     1.3381268552
   36      C       1.4436230077     3.3491263056    -0.0504360208
   37      C       1.4081988498     1.8022377687    -0.3679822005
   38      O       1.2673619067     1.1709613454     0.9645531941
   39      H       4.4323179819     2.1707579855     0.5224593738
   40      H       3.3005575233     2.0150618854    -1.5780337569
   41      H       4.4998673660    -2.3520511269     2.0445993220
   42      H       2.6115023805     1.4990424823     2.5911840261
   43      H       1.5297944163     3.7389335273     2.1401505982
   44      H       3.1097485258     3.9568002933     1.3246459141
   45      H       0.4186649107     3.7434523965     0.0353631808
   46      H       1.9808263529     3.9208814168    -0.8241187669
   47      H       0.5911807281     1.4710969390    -1.0354903521
   48      H       4.5237679489    -2.5860433435     0.2574008663
   49      H       3.0375790944    -3.0061359073     1.2005503693
   50      H      -2.6774981114    -4.6502044805     0.9394835576
   51      H      -3.3984715556    -3.8716912296     2.4066510498
   52      H      -1.7030486616    -3.4919355711     1.9300868454
   53      H      -0.3204107949    -3.1744219218    -2.7173957215
   54      H       0.0112409929    -2.7046100829    -0.9821973181
   55      H       2.0720231977    -2.3599374031    -2.5553436956
   56      H       1.1052555393    -1.1066603074    -3.4278092984
 ----------------------------------------------------------------

    9   -1510.2769631062      5.12E-09 Convergence criterion met
 Total energy in the final basis set = -1510.27696311
 Final energy is   -1510.27696310624
 **  OPTIMIZATION CONVERGED  **

                    Orbital Energies (a.u.)
 --------------------------------------------------------------

 Alpha MOs
 -- Occupied --
-18.930 -18.928 -18.925 -18.922 -18.885 -18.880 -18.875 -18.872
-18.869 -18.868 -10.096 -10.096 -10.094 -10.093 -10.073 -10.072
-10.059 -10.058 -10.058 -10.055 -10.053 -10.051 -10.036 -10.034
-10.032 -10.031 -10.020 -10.018 -10.014 -10.013  -1.012  -1.008
 -1.002  -0.998  -0.968  -0.961  -0.937  -0.931  -0.930  -0.927
 -0.761  -0.756  -0.725  -0.718  -0.712  -0.701  -0.692  -0.657
 -0.655  -0.613  -0.594  -0.576  -0.544  -0.540  -0.536  -0.530
 -0.511  -0.508  -0.485  -0.477  -0.464  -0.457  -0.450  -0.432
 -0.429  -0.426  -0.418  -0.411  -0.409  -0.406  -0.404  -0.401
 -0.389  -0.375  -0.370  -0.361  -0.358  -0.354  -0.352  -0.347
 -0.340  -0.337  -0.334  -0.330  -0.323  -0.323  -0.319  -0.309
 -0.303  -0.301  -0.300  -0.296  -0.290  -0.283  -0.281  -0.272
 -0.268  -0.250  -0.245  -0.244  -0.241  -0.231  -0.223  -0.175
 -0.172  -0.168  -0.165  -0.154  -0.151  -0.146  -0.143  -0.141
 -0.134

          Ground-State Mulliken Net Atomic Charges

     Atom                 Charge (a.u.)
  ----------------------------------------
      1 O                    -0.210593
      2 C                     0.209003
      3 C                    -0.080075
      4 C                    -0.078043
      5 C                     0.213927
      6 O                    -0.172026
      7 C                    -0.047490
      8 C                    -0.049493
      9 O                    -0.177099
     10 C                     0.217009
     11 C                    -0.077465
     12 C                    -0.079059
     13 C                     0.216941
     14 O                    -0.211512
     15 O                    -0.163761
     16 O                    -0.176621
     17 O                    -0.199657
     18 C                    -0.129053
     19 C                     0.025787
     20 C                    -0.144784
     21 C                    -0.143133
     22 C                     0.024579
     23 O                    -0.186175
     24 H                     0.086312
     25 H                     0.083173
     26 H                     0.079322
     27 H                     0.076879
     28 H                     0.073124
     29 H                     0.077683
     30 H                     0.072811
     31 H                     0.091682
     32 O                    -0.220389
     33 C                    -0.128117
     34 C                     0.026690
     35 C                    -0.143126
     36 C                    -0.145408
     37 C                     0.027796
     38 O                    -0.177153
     39 H                     0.083293
     40 H                     0.083008
     41 H                     0.089942
     42 H                     0.083186
     43 H                     0.078746
     44 H                     0.072014
     45 H                     0.079366
     46 H                     0.070401
     47 H                     0.086250
     48 H                     0.089473
     49 H                     0.090962
     50 H                     0.086408
     51 H                     0.089192
     52 H                     0.091832
     53 H                     0.085987
     54 H                     0.103460
     55 H                     0.091102
     56 H                     0.082891
  ----------------------------------------
  Sum of atomic charges =     0.000000

                    Cartesian Multipole Moments
 -----------------------------------------------------------------
    Charge (ESU x 10^10)
                -0.0000
    Dipole Moment (Debye)
         X      -2.3725      Y      -0.1054      Z      -2.3905
       Tot       3.3696
    Quadrupole Moments (Debye-Ang)
        XX    -165.2906     XY       1.5614     YY    -142.5892
        XZ       6.0225     YZ      -1.1415     ZZ    -160.7164

 Total job time:  56.69s(wall), 2698.76s(cpu)
        *  Thank you very much for using Q-Chem.  Have a nice day.  *
