 Q-Chem 5.0, Q-Chem, Inc., Pleasanton, CA (2017)
 Q-Chem 5.0.1 for Intel X86 EM64T Linux

User input:
--------------------------------------------------------------
$molecule
0  1
O -3.94934 -3.66094 2.70899
C -3.26408 -4.56952 2.26188
C -3.36658 -6.02376 2.66595
C -3.67062 -7.04199 1.55482
C -3.66228 -6.51543 0.13681
O -3.92857 -7.53094 -0.73683
C -4.91728 -7.18857 -1.71381
C -4.26739 -7.02277 -3.08358
O -2.92034 -6.54807 -2.93194
C -2.79737 -5.28805 -2.44575
C -1.37916 -4.77199 -2.50071
C -1.02748 -3.97914 -3.76799
C -2.20277 -3.51722 -4.60587
O -2.38079 -2.37712 -5.00964
O -2.06218 -4.2024 1.74626
O -2.98795 -4.50198 -5.11977
O -3.73947 -4.501 -2.41486
C -4.05947 -4.28833 -5.96146
C -0.99534 -3.74133 -1.43819
C 0.51945 -3.77495 -1.21554
C 1.00607 -3.15451 -2.50861
C -0.33277 -2.76053 -3.1435
O -1.17277 -2.48738 -2.05032
H -0.71382 -5.65814 -2.37789
H -0.37529 -4.56985 -4.44844
H -1.55623 -3.91533 -0.51919
H 0.75514 -3.06952 -0.39101
H 0.95327 -4.76903 -0.97352
H 1.61198 -2.25407 -2.2629
H 1.58278 -3.8336 -3.17351
H -0.18434 -1.93079 -3.86875
O -3.90992 -5.34211 -0.08199
C -1.58074 -2.90468 1.81292
C -2.03452 -6.5773 3.20755
C -2.28615 -7.81347 4.07083
C -2.62999 -8.83269 3.00661
C -2.46187 -7.98498 1.74295
O -1.40889 -7.11062 2.06788
H -4.13753 -6.06893 3.46809
H -4.63508 -7.57675 1.70824
H -1.52464 -2.57216 2.8718
H -1.45283 -5.82237 3.78127
H -1.32001 -8.1057 4.54094
H -3.05465 -7.67181 4.86095
H -1.85481 -9.63132 3.02288
H -3.64103 -9.28687 3.08892
H -2.28706 -8.64773 0.86715
H -2.23797 -2.21708 1.23805
H -0.55722 -2.86554 1.40191
H -4.51732 -5.26458 -6.22161
H -3.72088 -3.79169 -6.89572
H -4.82227 -3.65915 -5.45495
H -4.16565 -8.04248 -3.51142
H -4.88262 -6.42649 -3.79294
H -5.45054 -6.23727 -1.49021
H -5.72726 -7.94768 -1.74519
$end

$opt
CONSTRAINT
tors           1           2           3           4    +121.694
tors           3           4           5           6    +179.156
tors           4           5           6           7    +132.627
tors           5           6           7           8    +108.581
tors           6           7           8           9     -30.784
tors           7           8           9          10     -67.206
tors           8           9          10          11    -171.486
tors           9          10          11          12     +92.771
tors          11          12          13          14    +129.652
ENDCONSTRAINT
$end

$rem
JOBTYPE                   OPT
METHOD                    B3LYP
DFT_D                     d3_op
BASIS                     STO-3G
GEOM_OPT_MAX_CYCLES       100
GEOM_OPT_TOL_GRADIENT     300
GEOM_OPT_TOL_DISPLACEMENT 1200
GEOM_OPT_TOL_ENERGY       100
SYMMETRY                  False
THRESH                    12
SCF_CONVERGENCE           8
MAX_SUB_FILE_NUM          128
MEM_STATIC                400
MEM_TOTAL                 4000
$end
--------------------------------------------------------------

   15   -1510.1211679050      7.39E-09 Convergence criterion met
 Total energy in the final basis set = -1510.12116791
   14   -1510.1938859552      7.31E-09 Convergence criterion met
 Total energy in the final basis set = -1510.19388596
   15   -1510.2262772469      2.00E-09 Convergence criterion met
 Total energy in the final basis set = -1510.22627725
   15   -1510.2494721312      2.46E-09 Convergence criterion met
 Total energy in the final basis set = -1510.24947213
   13   -1510.2577778072      6.72E-09 Convergence criterion met
 Total energy in the final basis set = -1510.25777781
   14   -1510.2625055687      2.68E-09 Convergence criterion met
 Total energy in the final basis set = -1510.26250557
   12   -1510.2650301722      9.68E-09 Convergence criterion met
 Total energy in the final basis set = -1510.26503017
   12   -1510.2661320798      6.34E-09 Convergence criterion met
   11   -1510.2669748387      9.31E-09 Convergence criterion met
 Total energy in the final basis set = -1510.26697484
   11   -1510.2669989107      5.29E-09 Convergence criterion met
 Total energy in the final basis set = -1510.26699891
   11   -1510.2670167054      3.48E-09 Convergence criterion met
 Total energy in the final basis set = -1510.26701671
   10   -1510.2670262761      6.53E-09 Convergence criterion met
 Total energy in the final basis set = -1510.26702628
   10   -1510.2670349019      9.10E-09 Convergence criterion met
 Total energy in the final basis set = -1510.26703490
   10   -1510.2670377985      4.60E-09 Convergence criterion met
 Total energy in the final basis set = -1510.26703780

             Standard Nuclear Orientation (Angstroms)
    I     Atom           X                Y                Z
 ----------------------------------------------------------------
    1      O      -2.8278570408    -1.6757169016     2.5710014866
    2      C      -2.9721554439    -1.2469369280     1.4051414867
    3      C      -3.9445984772    -0.0953780813     0.9574155988
    4      C      -3.2687018546     1.1429780730     0.2451908108
    5      C      -1.6966437391     1.1333693064     0.2673839803
    6      O      -1.2617865603     2.3100198815    -0.4349785565
    7      C      -0.2131801234     3.1116453931     0.2421693814
    8      C       1.2204844831     3.0236998015    -0.4496263165
    9      O       1.5399416816     1.7553893765    -1.1322840260
   10      C       1.6616701959     0.6905184683    -0.1748791969
   11      C       2.2109697666    -0.5679792513    -0.9223826544
   12      C       3.7911339854    -0.7357782611    -0.8973995511
   13      C       4.5599895537     0.2395635019     0.0668286557
   14      O       5.4164741807    -0.0767395302     0.9198164150
   15      O      -2.4299439850    -1.8926273532     0.2443065180
   16      O       4.1641228530     1.5891154296    -0.2022412871
   17      O       1.4916964056     0.8331987554     1.0539289748
   18      C       4.8556010944     2.5125093101     0.7265384176
   19      C       1.7523392720    -1.9228677160    -0.2339542018
   20      C       1.8481857776    -3.0709358455    -1.3107848356
   21      C       3.4096137199    -3.2332443895    -1.4321087526
   22      C       3.9137259245    -2.2123761668    -0.3366084765
   23      O       2.8552802796    -2.2453078938     0.7000358426
   24      H       1.8598115303    -0.5147428140    -1.9682212099
   25      H       4.2103832053    -0.6284202513    -1.9150914131
   26      H       0.7923066566    -1.8451651516     0.3094083817
   27      H       1.3768855948    -3.9921806584    -0.9323219120
   28      H       1.3696997795    -2.7945083128    -2.2637291405
   29      H       3.7323746024    -4.2570270695    -1.1851142128
   30      H       3.7850756730    -2.9783294706    -2.4362709013
   31      H       4.9012827604    -2.4331779647     0.1131231594
   32      O      -0.9797593799     0.3293226152     0.8974503901
   33      C      -1.6584251675    -3.0851200141     0.6589542361
   34      C      -4.9008379451    -0.6061050973    -0.2082948438
   35      C      -6.0962831531     0.4147301548    -0.3752050779
   36      C      -5.3834945102     1.6025405665    -1.1217069872
   37      C      -3.9043173789     1.0567842047    -1.2108716367
   38      O      -4.0870669420    -0.3949300455    -1.4278401333
   39      H      -4.5117318576     0.2194403095     1.8504687098
   40      H      -3.5729728750     2.0877351597     0.7322150823
   41      H      -2.3209458117    -3.8722146679     1.0753592648
   42      H      -5.1995312424    -1.6686787895    -0.1229428221
   43      H      -6.8966001003    -0.0268413988    -0.9899272246
   44      H      -6.5223544748     0.7158152804     0.5952634431
   45      H      -5.7996623206     1.7529950827    -2.1306356146
   46      H      -5.4432590923     2.5530986055    -0.5682048837
   47      H      -3.2797749207     1.5013963503    -2.0097953045
   48      H      -0.8928839200    -2.8362882290     1.4214616287
   49      H      -1.1674513788    -3.4659315095    -0.2552679334
   50      H       4.5777274604     3.5334336328     0.4062105943
   51      H       5.9569083663     2.3931502709     0.6782969161
   52      H       4.5286893319     2.3497524350     1.7741690335
   53      H       1.2884726862     3.7873405428    -1.2499667688
   54      H       1.9819931487     3.2497769186     0.3282321674
   55      H      -0.1121579255     2.7955984331     1.3014666459
   56      H      -0.5559378779     4.1677508625     0.2038324527
 ----------------------------------------------------------------

    9   -1510.2670401161      9.02E-09 Convergence criterion met
 Total energy in the final basis set = -1510.26704012
 Final energy is   -1510.26704011609
 **  OPTIMIZATION CONVERGED  **

                    Orbital Energies (a.u.)
 --------------------------------------------------------------

 Alpha MOs
 -- Occupied --
-18.936 -18.929 -18.921 -18.919 -18.897 -18.888 -18.880 -18.876
-18.869 -18.859 -10.109 -10.099 -10.093 -10.088 -10.077 -10.071
-10.066 -10.060 -10.058 -10.053 -10.053 -10.051 -10.037 -10.036
-10.032 -10.031 -10.020 -10.019 -10.016 -10.015  -1.016  -1.012
 -1.001  -0.996  -0.969  -0.964  -0.946  -0.936  -0.928  -0.922
 -0.761  -0.759  -0.724  -0.720  -0.713  -0.702  -0.694  -0.663
 -0.651  -0.618  -0.597  -0.580  -0.545  -0.541  -0.536  -0.532
 -0.514  -0.504  -0.484  -0.472  -0.465  -0.449  -0.445  -0.442
 -0.432  -0.427  -0.424  -0.415  -0.413  -0.408  -0.403  -0.400
 -0.392  -0.387  -0.374  -0.364  -0.360  -0.354  -0.348  -0.345
 -0.343  -0.335  -0.332  -0.329  -0.328  -0.324  -0.321  -0.312
 -0.305  -0.305  -0.301  -0.297  -0.291  -0.285  -0.282  -0.271
 -0.269  -0.252  -0.250  -0.243  -0.238  -0.233  -0.228  -0.186
 -0.178  -0.167  -0.163  -0.156  -0.152  -0.143  -0.142  -0.139
 -0.138

          Ground-State Mulliken Net Atomic Charges

     Atom                 Charge (a.u.)
  ----------------------------------------
      1 O                    -0.218134
      2 C                     0.212353
      3 C                    -0.081781
      4 C                    -0.077508
      5 C                     0.221251
      6 O                    -0.188978
      7 C                    -0.049440
      8 C                    -0.047610
      9 O                    -0.167228
     10 C                     0.214824
     11 C                    -0.079267
     12 C                    -0.077118
     13 C                     0.211725
     14 O                    -0.209185
     15 O                    -0.169053
     16 O                    -0.170956
     17 O                    -0.207025
     18 C                    -0.129043
     19 C                     0.023511
     20 C                    -0.143585
     21 C                    -0.144960
     22 C                     0.023985
     23 O                    -0.188339
     24 H                     0.084867
     25 H                     0.085022
     26 H                     0.092117
     27 H                     0.075485
     28 H                     0.073590
     29 H                     0.077518
     30 H                     0.072159
     31 H                     0.089699
     32 O                    -0.187530
     33 C                    -0.128625
     34 C                     0.027097
     35 C                    -0.144797
     36 C                    -0.143243
     37 C                     0.025557
     38 O                    -0.185599
     39 H                     0.083591
     40 H                     0.083494
     41 H                     0.083578
     42 H                     0.083415
     43 H                     0.077656
     44 H                     0.073596
     45 H                     0.077604
     46 H                     0.072765
     47 H                     0.087845
     48 H                     0.093716
     49 H                     0.086985
     50 H                     0.087780
     51 H                     0.091503
     52 H                     0.091609
     53 H                     0.085593
     54 H                     0.086384
     55 H                     0.095146
     56 H                     0.085982
  ----------------------------------------
  Sum of atomic charges =    -0.000000

                    Cartesian Multipole Moments
 -----------------------------------------------------------------
    Charge (ESU x 10^10)
                -0.0000
    Dipole Moment (Debye)
         X      -1.0037      Y       2.8868      Z      -2.2984
       Tot       3.8241
    Quadrupole Moments (Debye-Ang)
        XX    -150.1107     XY      -0.0203     YY    -143.5963
        XZ      -7.6598     YZ       8.3986     ZZ    -168.9837

 Total job time:  53.95s(wall), 2568.53s(cpu)
        *  Thank you very much for using Q-Chem.  Have a nice day.  *
