 Q-Chem 5.0, Q-Chem, Inc., Pleasanton, CA (2017)
 Q-Chem 5.0.1 for Intel X86 EM64T Linux

User input:
--------------------------------------------------------------
$molecule
0  1
O -2.8278570408 -1.6757169016 2.5710014866
C -2.9721554439 -1.246936928 1.4051414867
C -3.9445984772 -0.0953780813 0.9574155988
C -3.2687018546 1.142978073 0.2451908108
C -1.6966437391 1.1333693064 0.2673839803
O -1.2617865603 2.3100198815 -0.4349785565
C -0.2131801234 3.1116453931 0.2421693814
C 1.2204844831 3.0236998015 -0.4496263165
O 1.5399416816 1.7553893765 -1.132284026
C 1.6616701959 0.6905184683 -0.1748791969
C 2.2109697666 -0.5679792513 -0.9223826544
C 3.7911339854 -0.7357782611 -0.8973995511
C 4.5599895537 0.2395635019 0.0668286557
O 5.4164741807 -0.0767395302 0.919816415
O -2.429943985 -1.8926273532 0.244306518
O 4.164122853 1.5891154296 -0.2022412871
O 1.4916964056 0.8331987554 1.0539289748
C 4.8556010944 2.5125093101 0.7265384176
C 1.752339272 -1.922867716 -0.2339542018
C 1.8481857776 -3.0709358455 -1.3107848356
C 3.4096137199 -3.2332443895 -1.4321087526
C 3.9137259245 -2.2123761668 -0.3366084765
O 2.8552802796 -2.2453078938 0.7000358426
H 1.8598115303 -0.514742814 -1.9682212099
H 4.2103832053 -0.6284202513 -1.9150914131
H 0.7923066566 -1.8451651516 0.3094083817
H 1.3768855948 -3.9921806584 -0.932321912
H 1.3696997795 -2.7945083128 -2.2637291405
H 3.7323746024 -4.2570270695 -1.1851142128
H 3.785075673 -2.9783294706 -2.4362709013
H 4.9012827604 -2.4331779647 0.1131231594
O -0.9797593799 0.3293226152 0.8974503901
C -1.6584251675 -3.0851200141 0.6589542361
C -4.9008379451 -0.6061050973 -0.2082948438
C -6.0962831531 0.4147301548 -0.3752050779
C -5.3834945102 1.6025405665 -1.1217069872
C -3.9043173789 1.0567842047 -1.2108716367
O -4.087066942 -0.3949300455 -1.4278401333
H -4.5117318576 0.2194403095 1.8504687098
H -3.572972875 2.0877351597 0.7322150823
H -2.3209458117 -3.8722146679 1.0753592648
H -5.1995312424 -1.6686787895 -0.1229428221
H -6.8966001003 -0.0268413988 -0.9899272246
H -6.5223544748 0.7158152804 0.5952634431
H -5.7996623206 1.7529950827 -2.1306356146
H -5.4432590923 2.5530986055 -0.5682048837
H -3.2797749207 1.5013963503 -2.0097953045
H -0.89288392 -2.836288229 1.4214616287
H -1.1674513788 -3.4659315095 -0.2552679334
H 4.5777274604 3.5334336328 0.4062105943
H 5.9569083663 2.3931502709 0.6782969161
H 4.5286893319 2.349752435 1.7741690335
H 1.2884726862 3.7873405428 -1.2499667688
H 1.9819931487 3.2497769186 0.3282321674
H -0.1121579255 2.7955984331 1.3014666459
H -0.5559378779 4.1677508625 0.2038324527
$end

$rem
JOBTYPE                   OPT
METHOD                    B3LYP
DFT_D                     d3_op
BASIS                     STO-3G
GEOM_OPT_MAX_CYCLES       100
GEOM_OPT_TOL_GRADIENT     300
GEOM_OPT_TOL_DISPLACEMENT 1200
GEOM_OPT_TOL_ENERGY       100
SYMMETRY                  False
THRESH                    12
SCF_CONVERGENCE           8
MAX_SUB_FILE_NUM          128
MEM_STATIC                400
MEM_TOTAL                 4000
$end
--------------------------------------------------------------

   16   -1510.2670810351      4.22E-09 Convergence criterion met
 Total energy in the final basis set = -1510.26708104
   14   -1510.2726011490      6.59E-09 Convergence criterion met
 Total energy in the final basis set = -1510.27260115
   15   -1510.2621776622      2.37E-09 Convergence criterion met
 Total energy in the final basis set = -1510.26217766
   15   -1510.2799527768      3.12E-09 Convergence criterion met
 Total energy in the final basis set = -1510.27995278
   14   -1510.2838461357      5.38E-09 Convergence criterion met
 Total energy in the final basis set = -1510.28384614
   15   -1510.2876315669      2.15E-09 Convergence criterion met
 Total energy in the final basis set = -1510.28763157
   15   -1510.2902654790      2.69E-09 Convergence criterion met
 Total energy in the final basis set = -1510.29026548
   15   -1510.2849912037      1.39E-09 Convergence criterion met
    9   -1510.3041211285      4.78E-09 Convergence criterion met
 Total energy in the final basis set = -1510.30412113
    9   -1510.3041223830      3.75E-09 Convergence criterion met
 Total energy in the final basis set = -1510.30412238
    9   -1510.3041239502      4.24E-09 Convergence criterion met
 Total energy in the final basis set = -1510.30412395
    9   -1510.3041263555      8.29E-09 Convergence criterion met
 Total energy in the final basis set = -1510.30412636
    9   -1510.3041260317      8.87E-09 Convergence criterion met
 Total energy in the final basis set = -1510.30412603
   10   -1510.3041216230      9.39E-09 Convergence criterion met
 Total energy in the final basis set = -1510.30412162

             Standard Nuclear Orientation (Angstroms)
    I     Atom           X                Y                Z
 ----------------------------------------------------------------
    1      O      -1.9178534834    -2.0747713185     2.5278344367
    2      C      -1.9431172835    -1.1592207162     1.6763067724
    3      C      -3.1427546999    -0.8114659899     0.7291925487
    4      C      -3.4353667905     0.7401971119     0.5356228410
    5      C      -2.4084971580     1.6714120108     1.2853106115
    6      O      -1.5197698224     2.2638625503     0.3303977027
    7      C      -0.4809162347     3.0534387351     1.0306896973
    8      C       0.5709354073     3.4701661251    -0.0569922522
    9      O       0.8893677858     2.3631604627    -0.9928077495
   10      C       1.6170206540     1.3267738803    -0.3380423849
   11      C       1.8278728795     0.1575601359    -1.3511674836
   12      C       2.9101305694    -0.9014801326    -0.8872297147
   13      C       3.5433188733    -0.6045241818     0.5215467853
   14      O       3.3111526370    -1.1951580137     1.5977610242
   15      O      -0.8604429363    -0.2709813644     1.4127144914
   16      O       4.5470232311     0.4082963039     0.3543216161
   17      O       1.9902163552     1.3798680593     0.8589004310
   18      C       5.1133743702     0.7676599520     1.6728592744
   19      C       0.5285899999    -0.7605669654    -1.4590338554
   20      C       0.6688279839    -1.6313526774    -2.7697839738
   21      C       1.7543982877    -2.6848238786    -2.3325174454
   22      C       2.0384757632    -2.2251014847    -0.8488882943
   23      O       0.7187107228    -1.7500004339    -0.3756240363
   24      H       2.0792227800     0.5968435686    -2.3326717501
   25      H       3.7297662942    -0.9631720214    -1.6254835765
   26      H      -0.4543068447    -0.2393768321    -1.3461686404
   27      H      -0.2917441752    -2.1154955751    -3.0081118161
   28      H       0.9829784842    -1.0309749434    -3.6382564406
   29      H       1.3539533565    -3.7110740077    -2.3477783522
   30      H       2.6595004872    -2.6499994727    -2.9597412870
   31      H       2.4336371259    -3.0056641754    -0.1701859813
   32      O      -2.3913925480     1.9254083424     2.5091368602
   33      C       0.2637398336    -0.5373426703     2.3433831051
   34      C      -2.8840896830    -1.2581003502    -0.7772153820
   35      C      -4.2793884584    -1.3471864280    -1.5079783111
   36      C      -4.6325428072     0.1785352417    -1.6704903235
   37      C      -3.3562382224     0.8651586784    -1.0408263574
   38      O      -2.2626071743    -0.0687022620    -1.4005809812
   39      H      -4.0293344541    -1.3297297095     1.1351374618
   40      H      -4.4442010344     0.9867539232     0.9133341827
   41      H       0.5965421138    -1.5911106898     2.2758070538
   42      H      -2.2235827069    -2.1398731937    -0.8896618689
   43      H      -4.1695337396    -1.8418058496    -2.4863971273
   44      H      -5.0259173165    -1.8986340638    -0.9146636281
   45      H      -4.7371580158     0.4582934669    -2.7307601954
   46      H      -5.5554683156     0.4588811786    -1.1381457644
   47      H      -3.1314991045     1.8828032403    -1.4119615419
   48      H      -0.0278252646    -0.3094647880     3.3886582624
   49      H       1.0837180913     0.1311351162     2.0103235796
   50      H       5.9079611539     1.5105342724     1.4753643422
   51      H       5.5466800587    -0.1139033417     2.1880706551
   52      H       4.3403801215     1.2157462452     2.3305378332
   53      H       0.1586059121     4.2711106565    -0.7022888640
   54      H       1.4888361968     3.8415967310     0.4486915491
   55      H       0.0028068632     2.4444048110     1.8226858543
   56      H      -0.9116930893     3.9643100546     1.5030475329
 ----------------------------------------------------------------

    9   -1510.3041208250      9.89E-09 Convergence criterion met
 Total energy in the final basis set = -1510.30412083
 Final energy is   -1510.30412082503
 **  OPTIMIZATION CONVERGED  **

                    Orbital Energies (a.u.)
 --------------------------------------------------------------

 Alpha MOs
 -- Occupied --
-18.945 -18.929 -18.924 -18.919 -18.902 -18.884 -18.875 -18.865
-18.863 -18.860 -10.107 -10.097 -10.090 -10.088 -10.081 -10.072
-10.065 -10.064 -10.054 -10.049 -10.038 -10.036 -10.035 -10.034
-10.033 -10.028 -10.024 -10.023 -10.012 -10.009  -1.022  -1.008
 -0.998  -0.997  -0.978  -0.960  -0.945  -0.930  -0.924  -0.923
 -0.765  -0.756  -0.729  -0.719  -0.711  -0.705  -0.690  -0.653
 -0.642  -0.617  -0.595  -0.576  -0.548  -0.541  -0.536  -0.528
 -0.515  -0.500  -0.486  -0.467  -0.466  -0.451  -0.447  -0.443
 -0.435  -0.430  -0.423  -0.410  -0.406  -0.405  -0.402  -0.396
 -0.387  -0.376  -0.372  -0.361  -0.359  -0.355  -0.348  -0.343
 -0.338  -0.337  -0.335  -0.328  -0.326  -0.322  -0.319  -0.309
 -0.305  -0.303  -0.297  -0.295  -0.293  -0.287  -0.276  -0.272
 -0.268  -0.258  -0.248  -0.243  -0.238  -0.233  -0.221  -0.183
 -0.174  -0.165  -0.163  -0.159  -0.155  -0.147  -0.141  -0.140
 -0.135

          Ground-State Mulliken Net Atomic Charges

     Atom                 Charge (a.u.)
  ----------------------------------------
      1 O                    -0.211957
      2 C                     0.211485
      3 C                    -0.080048
      4 C                    -0.079147
      5 C                     0.216128
      6 O                    -0.172399
      7 C                    -0.049516
      8 C                    -0.045468
      9 O                    -0.161667
     10 C                     0.223353
     11 C                    -0.079584
     12 C                    -0.081635
     13 C                     0.213766
     14 O                    -0.218257
     15 O                    -0.170820
     16 O                    -0.176196
     17 O                    -0.219116
     18 C                    -0.128630
     19 C                     0.008293
     20 C                    -0.144308
     21 C                    -0.145317
     22 C                     0.024179
     23 O                    -0.195500
     24 H                     0.086113
     25 H                     0.082854
     26 H                     0.117131
     27 H                     0.073382
     28 H                     0.070689
     29 H                     0.074792
     30 H                     0.070822
     31 H                     0.084832
     32 O                    -0.220594
     33 C                    -0.136401
     34 C                     0.026973
     35 C                    -0.142941
     36 C                    -0.144174
     37 C                     0.027851
     38 O                    -0.187102
     39 H                     0.085486
     40 H                     0.084323
     41 H                     0.098572
     42 H                     0.090316
     43 H                     0.078224
     44 H                     0.076288
     45 H                     0.078326
     46 H                     0.074797
     47 H                     0.091920
     48 H                     0.081100
     49 H                     0.105648
     50 H                     0.085892
     51 H                     0.087198
     52 H                     0.090377
     53 H                     0.092008
     54 H                     0.091754
     55 H                     0.100040
     56 H                     0.085862
  ----------------------------------------
  Sum of atomic charges =    -0.000000

                    Cartesian Multipole Moments
 -----------------------------------------------------------------
    Charge (ESU x 10^10)
                -0.0000
    Dipole Moment (Debye)
         X      -0.4411      Y       1.9532      Z      -3.2133
       Tot       3.7861
    Quadrupole Moments (Debye-Ang)
        XX    -145.2285     XY       1.2996     YY    -153.6243
        XZ       5.3351     YZ       6.9055     ZZ    -166.3718

 Total job time:  260.90s(wall), 12448.42s(cpu)
        *  Thank you very much for using Q-Chem.  Have a nice day.  *
