 Q-Chem 5.0, Q-Chem, Inc., Pleasanton, CA (2017)
 Q-Chem 5.0.1 for Intel X86 EM64T Linux

User input:
--------------------------------------------------------------
$molecule
0  1
O -5.3199451748 -0.5061562342 1.4166878109
C -4.3449794715 -0.2347432061 0.6825735071
C -3.7679553581 -1.135376783 -0.4654743548
C -2.7668033971 -0.436955443 -1.4862587627
C -2.6262737796 1.129927213 -1.3450476851
O -1.3661580864 1.4645174487 -0.7355220861
C -0.9854720842 2.8459558108 -1.1149478909
C 0.1938387045 3.2790140209 -0.1846216222
O 1.405606353 2.4949009081 -0.5128682606
C 1.7626612856 1.6067880468 0.5618551097
C 3.1654809116 1.0254500492 0.1647184437
C 3.875651265 0.0014745074 1.1301528363
C 2.9554171178 -1.0429236604 1.875810552
O 3.3684638877 -1.9563041841 2.6268261097
O -3.5132983667 0.9118164932 0.856949447
O 1.6396191402 -0.9859684119 1.3451698017
O 1.1234308124 1.5185305462 1.6301800951
C 0.8065126727 -2.0958062618 1.8632761959
C 3.2795871445 0.282662983 -1.2441064773
C 4.6795113395 0.6887461458 -1.8443255534
C 5.6377804583 -0.0195168803 -0.8141081277
C 4.6145352564 -0.8852187758 0.0281321061
O 3.4924235965 -1.1441577534 -0.9105625964
H 3.8073822519 1.9256366214 0.1129416211
H 4.5653460725 0.4877224407 1.8416905102
H 2.406640052 0.4102053341 -1.9129360131
H 4.7980684345 0.2681380133 -2.8560970064
H 4.8250277014 1.7797480119 -1.891110584
H 6.3743097963 -0.6663949381 -1.3159340523
H 6.1774381207 0.7013666259 -0.179033538
H 5.0181523084 -1.8383754481 0.4219950017
O -3.4119894354 1.9725441083 -1.8318088644
C -4.0222292421 1.7746758856 1.945314122
C -2.8196904387 -2.2404047481 0.1713587912
C -2.5273932897 -3.3627527849 -0.8999208671
C -1.4879736846 -2.6379666338 -1.833416521
C -1.4192159958 -1.2128122244 -1.1619786202
O -1.5391308884 -1.510678602 0.2852148404
H -4.6227796724 -1.5990067852 -0.9899373153
H -3.0986347903 -0.6302175105 -2.5223818945
H -4.0869850815 1.2194347803 2.9029677744
H -3.1489105805 -2.6087762658 1.1626617315
H -2.0896890287 -4.2505401969 -0.4161503601
H -3.4412162486 -3.6664271632 -1.4353607274
H -0.5016829869 -3.1277709592 -1.7980564784
H -1.8210070844 -2.5849562037 -2.8821672837
H -0.4991670227 -0.6281158995 -1.3522349024
H -5.0237939319 2.1848725244 1.7022111191
H -3.2941411871 2.6009182629 2.0405787247
H -0.1523074596 -2.0135411859 1.2961175473
H 0.6270992018 -1.9845794912 2.9514741754
H 1.2942680508 -3.0753124047 1.6854233607
H 0.426185215 4.3520089174 -0.3516586579
H -0.073754931 3.1016738662 0.8801287437
H -1.8464477443 3.5405259488 -0.9970780664
H -0.6614559608 2.8751788878 -2.1791491662
$end

$rem
JOBTYPE                   OPT
METHOD                    B3LYP
DFT_D                     d3_op
BASIS                     STO-3G
GEOM_OPT_MAX_CYCLES       100
GEOM_OPT_TOL_GRADIENT     300
GEOM_OPT_TOL_DISPLACEMENT 1200
GEOM_OPT_TOL_ENERGY       100
SYMMETRY                  False
THRESH                    12
SCF_CONVERGENCE           8
MAX_SUB_FILE_NUM          128
MEM_STATIC                400
MEM_TOTAL                 4000
$end
--------------------------------------------------------------

   16   -1510.2734370505      5.88E-09 Convergence criterion met
 Total energy in the final basis set = -1510.27343705
   14   -1510.2748518633      6.01E-09 Convergence criterion met
 Total energy in the final basis set = -1510.27485186
   14   -1510.2756263532      3.30E-09 Convergence criterion met
 Total energy in the final basis set = -1510.27562635
   15   -1510.2783609988      2.95E-09 Convergence criterion met
 Total energy in the final basis set = -1510.27836100
   13   -1510.2813737013      5.71E-09 Convergence criterion met
 Total energy in the final basis set = -1510.28137370
   14   -1510.2833264928      5.30E-09 Convergence criterion met
 Total energy in the final basis set = -1510.28332649
   13   -1510.2858021063      4.49E-09 Convergence criterion met
 Total energy in the final basis set = -1510.28580211
   13   -1510.2877174499      8.79E-09 Convergence criterion met
   11   -1510.3008723426      8.68E-09 Convergence criterion met
 Total energy in the final basis set = -1510.30087234
   12   -1510.3008745667      4.12E-09 Convergence criterion met
 Total energy in the final basis set = -1510.30087457
   11   -1510.3008839591      7.91E-09 Convergence criterion met
 Total energy in the final basis set = -1510.30088396
   11   -1510.3008822382      4.05E-09 Convergence criterion met
 Total energy in the final basis set = -1510.30088224
    9   -1510.3008842050      8.17E-09 Convergence criterion met
 Total energy in the final basis set = -1510.30088420
    9   -1510.3008862451      3.82E-09 Convergence criterion met
 Total energy in the final basis set = -1510.30088625

             Standard Nuclear Orientation (Angstroms)
    I     Atom           X                Y                Z
 ----------------------------------------------------------------
    1      O      -5.3396715956     0.1130002901    -0.6147945837
    2      C      -4.1263835358    -0.0057842390    -0.3395574253
    3      C      -3.0871152474    -0.9521545837    -1.0242748650
    4      C      -1.7647068031    -0.2245103601    -1.5362766421
    5      C      -1.7534122365     1.3027088501    -1.1525846486
    6      O      -0.8015118839     1.5357887316    -0.1109128142
    7      C      -0.8890058500     2.9386966720     0.3595046043
    8      C       0.1380350740     3.0589797126     1.5359701917
    9      O       1.4990724012     2.7888660395     1.0173341416
   10      C       1.8165389492     1.3983447502     1.1681540919
   11      C       3.0708065523     1.1040284251     0.2801336913
   12      C       3.5929018730    -0.3893173734     0.3815026433
   13      C       2.8499177568    -1.2479071279     1.4774314349
   14      O       3.1481558013    -1.3214071989     2.6902222986
   15      O      -3.4685320901     0.7182839400     0.7089422516
   16      O       1.8249506873    -1.9992116764     0.8334949565
   17      O       1.1653583886     0.5906073749     1.8653007210
   18      C       0.9288059353    -2.6532563592     1.8179763294
   19      C       2.6408743493     1.1756585232    -1.2482630047
   20      C       3.9366653743     1.2086560228    -2.1465008740
   21      C       4.4109596058    -0.2886451508    -2.0537143968
   22      C       3.3157771255    -0.8997606684    -1.0953675646
   23      O       2.0818179403    -0.1740427331    -1.4908106245
   24      H       3.8601270051     1.8410048221     0.5132289617
   25      H       4.6718053709    -0.4004113598     0.6169916586
   26      H       1.8855357053     1.9556471411    -1.4658911947
   27      H       3.6816395256     1.4900457531    -3.1806272358
   28      H       4.6863992176     1.9179012732    -1.7610052122
   29      H       4.3802291931    -0.7828764401    -3.0378501736
   30      H       5.4266511628    -0.3895305906    -1.6391626723
   31      H       3.1625155822    -1.9918355369    -1.1825083390
   32      O      -2.4557972546     2.2024491093    -1.6643522433
   33      C      -4.4194752934     1.6531774593     1.3514117780
   34      C      -2.4692806845    -2.0063155751    -0.0034060996
   35      C      -1.8629105688    -3.1981179950    -0.8385242343
   36      C      -0.5883536993    -2.5091475473    -1.4496695127
   37      C      -0.6501384989    -1.0707901619    -0.8007586356
   38      O      -1.2727987974    -1.3134818303     0.5284532156
   39      H      -3.6069889755    -1.4609339237    -1.8551675814
   40      H      -1.6857020385    -0.2981176724    -2.6361168940
   41      H      -5.3090332494     1.1236618292     1.7487967455
   42      H      -3.1454710876    -2.2998721504     0.8230227979
   43      H      -1.5917231800    -4.0326085049    -0.1718785070
   44      H      -2.5617919004    -3.5702463396    -1.6045197720
   45      H       0.3390322887    -3.0147624422    -1.1381368104
   46      H      -0.6165574281    -2.4659634919    -2.5499948404
   47      H       0.3529846194    -0.5881046860    -0.7277900186
   48      H      -4.7619370380     2.4332301216     0.6404197578
   49      H      -3.8674377532     2.1260830388     2.1843140712
   50      H      -0.0978145292    -2.2954280929     1.5582584545
   51      H       1.2190757080    -2.3640328324     2.8462388159
   52      H       1.0073554662    -3.7526873321     1.7037866948
   53      H       0.1366810685     4.0905397344     1.9428933935
   54      H      -0.1160681413     2.3269354856     2.3320873797
   55      H      -1.9155157114     3.1754908929     0.7145771654
   56      H      -0.6301010916     3.6487490174    -0.4564583417
 ----------------------------------------------------------------

    9   -1510.3008856870      3.54E-09 Convergence criterion met
 Total energy in the final basis set = -1510.30088569
 Final energy is   -1510.30088568702
 **  OPTIMIZATION CONVERGED  **

                    Orbital Energies (a.u.)
 --------------------------------------------------------------

 Alpha MOs
 -- Occupied --
-18.935 -18.934 -18.931 -18.909 -18.899 -18.891 -18.887 -18.875
-18.865 -18.850 -10.104 -10.097 -10.096 -10.084 -10.076 -10.074
-10.066 -10.064 -10.062 -10.059 -10.041 -10.039 -10.035 -10.032
-10.032 -10.025 -10.023 -10.022 -10.015 -10.008  -1.019  -1.012
 -1.004  -0.990  -0.977  -0.966  -0.943  -0.935  -0.931  -0.915
 -0.765  -0.759  -0.729  -0.720  -0.714  -0.705  -0.694  -0.660
 -0.638  -0.615  -0.594  -0.575  -0.547  -0.542  -0.539  -0.528
 -0.512  -0.508  -0.488  -0.478  -0.469  -0.460  -0.445  -0.437
 -0.433  -0.428  -0.420  -0.414  -0.411  -0.404  -0.399  -0.396
 -0.385  -0.376  -0.370  -0.362  -0.358  -0.357  -0.351  -0.344
 -0.341  -0.338  -0.333  -0.333  -0.327  -0.322  -0.318  -0.313
 -0.306  -0.301  -0.299  -0.295  -0.293  -0.289  -0.277  -0.274
 -0.271  -0.255  -0.251  -0.247  -0.239  -0.232  -0.223  -0.178
 -0.177  -0.173  -0.159  -0.158  -0.153  -0.152  -0.144  -0.136
 -0.135

          Ground-State Mulliken Net Atomic Charges

     Atom                 Charge (a.u.)
  ----------------------------------------
      1 O                    -0.210617
      2 C                     0.208675
      3 C                    -0.079693
      4 C                    -0.077707
      5 C                     0.212794
      6 O                    -0.168805
      7 C                    -0.046157
      8 C                    -0.051026
      9 O                    -0.176527
     10 C                     0.217745
     11 C                    -0.078285
     12 C                    -0.081866
     13 C                     0.214835
     14 O                    -0.224049
     15 O                    -0.167761
     16 O                    -0.179807
     17 O                    -0.195500
     18 C                    -0.149787
     19 C                     0.026138
     20 C                    -0.143659
     21 C                    -0.143962
     22 C                     0.026966
     23 O                    -0.189128
     24 H                     0.087793
     25 H                     0.082571
     26 H                     0.087208
     27 H                     0.078747
     28 H                     0.075556
     29 H                     0.078057
     30 H                     0.075165
     31 H                     0.090977
     32 O                    -0.223903
     33 C                    -0.129045
     34 C                     0.026362
     35 C                    -0.144617
     36 C                    -0.145507
     37 C                     0.017142
     38 O                    -0.181807
     39 H                     0.085169
     40 H                     0.084275
     41 H                     0.090742
     42 H                     0.081756
     43 H                     0.076062
     44 H                     0.072990
     45 H                     0.081467
     46 H                     0.071204
     47 H                     0.117139
     48 H                     0.090326
     49 H                     0.088522
     50 H                     0.112521
     51 H                     0.092324
     52 H                     0.068388
     53 H                     0.088993
     54 H                     0.105053
     55 H                     0.088801
     56 H                     0.086748
  ----------------------------------------
  Sum of atomic charges =    -0.000000

                    Cartesian Multipole Moments
 -----------------------------------------------------------------
    Charge (ESU x 10^10)
                -0.0000
    Dipole Moment (Debye)
         X       1.3541      Y       0.8880      Z      -1.1947
       Tot       2.0123
    Quadrupole Moments (Debye-Ang)
        XX    -160.9451     XY       4.7126     YY    -149.6131
        XZ     -15.5007     YZ       8.7414     ZZ    -163.8834

 Total job time:  125.59s(wall), 5993.27s(cpu)
        *  Thank you very much for using Q-Chem.  Have a nice day.  *
