 Q-Chem 5.0, Q-Chem, Inc., Pleasanton, CA (2017)
 Q-Chem 5.0.1 for Intel X86 EM64T Linux

User input:
--------------------------------------------------------------
$molecule
0  1
O -3.94934 -3.66094 2.70899
C -3.26408 -4.56952 2.26188
C -3.36658 -6.02376 2.66595
C -2.67433 -7.0552 1.75999
C -1.80758 -6.50362 0.64977
O -0.48896 -6.67109 0.96382
C 0.36485 -6.69524 -0.18495
C 1.82342 -6.56505 0.24138
O 2.23652 -7.74963 0.94066
C 2.50728 -7.58389 2.25913
C 3.13062 -8.80625 2.88996
C 3.45975 -8.66738 4.3835
C 2.80944 -7.49956 5.09764
O 2.90357 -7.2579 6.29233
O -2.13431 -4.16985 1.61788
O 1.76585 -6.81971 4.54012
O 3.0047 -6.50306 2.56955
C 1.11548 -5.7436 5.12052
C 2.19705 -10.03179 2.91938
C 3.03383 -11.30623 3.01305
C 3.55571 -11.19932 4.43286
C 2.80068 -9.95308 4.91074
O 1.592 -9.98613 4.18882
H 4.04472 -9.04331 2.29834
H 4.55394 -8.59736 4.5688
H 1.50626 -10.08461 2.04969
H 2.323 -12.16205 2.95968
H 3.81232 -11.4297 2.22976
H 3.22987 -12.1026 4.99478
H 4.6553 -11.06543 4.52648
H 2.7056 -9.95584 6.01917
O -2.23693 -6.02572 -0.39375
C -1.8301 -2.86876 1.2719
C -2.69531 -6.31313 4.01892
C -3.33594 -7.54081 4.66105
C -2.80775 -8.63536 3.75844
C -1.87765 -7.82162 2.84931
O -1.41832 -6.78752 3.67819
H -4.45787 -6.23076 2.74434
H -3.3855 -7.75781 1.27214
H -1.76084 -2.23487 2.18136
H -2.72683 -5.44938 4.71881
H -2.87665 -7.65901 5.66882
H -4.4417 -7.50229 4.76448
H -2.22085 -9.34789 4.3801
H -3.5778 -9.18492 3.17521
H -1.10113 -8.49496 2.42348
H -2.60723 -2.46475 0.5885
H -0.85167 -2.85229 0.74951
H 0.38239 -5.32233 4.4072
H 1.8468 -4.94144 5.35727
H 0.59046 -6.06167 6.04642
H 2.46313 -6.46574 -0.66119
H 1.90739 -5.61036 0.80787
H 0.16582 -5.80636 -0.82758
H 0.2014 -7.61969 -0.78185
$end

$opt
CONSTRAINT
tors           1           2           3           4    +165.364
tors           3           4           5           6    +105.854
tors           4           5           6           7    +156.166
tors           5           6           7           8    +167.178
tors           6           7           8           9     +68.554
tors           7           8           9          10    -112.631
tors           8           9          10          11    -171.395
tors           9          10          11          12    +179.855
tors          11          12          13          14    +176.683
ENDCONSTRAINT
$end

$rem
JOBTYPE                   OPT
METHOD                    B3LYP
DFT_D                     d3_op
BASIS                     STO-3G
GEOM_OPT_MAX_CYCLES       100
GEOM_OPT_TOL_GRADIENT     300
GEOM_OPT_TOL_DISPLACEMENT 1200
GEOM_OPT_TOL_ENERGY       100
SYMMETRY                  False
THRESH                    12
SCF_CONVERGENCE           8
MAX_SUB_FILE_NUM          128
MEM_STATIC                400
MEM_TOTAL                 4000
$end
--------------------------------------------------------------

   16   -1510.1013881197      3.56E-09 Convergence criterion met
 Total energy in the final basis set = -1510.10138812
   14   -1510.1788394278      5.23E-09 Convergence criterion met
 Total energy in the final basis set = -1510.17883943
   14   -1510.2229425722      6.01E-09 Convergence criterion met
 Total energy in the final basis set = -1510.22294257
   14   -1510.2448234580      7.76E-09 Convergence criterion met
 Total energy in the final basis set = -1510.24482346
   14   -1510.2552553314      6.36E-09 Convergence criterion met
 Total energy in the final basis set = -1510.25525533
   15   -1510.2586766336      2.27E-09 Convergence criterion met
 Total energy in the final basis set = -1510.25867663
   13   -1510.2653722538      8.08E-09 Convergence criterion met
 Total energy in the final basis set = -1510.26537225
   13   -1510.2695630981      6.20E-09 Convergence criterion met
   12   -1510.2738689221      1.96E-09 Convergence criterion met
 Total energy in the final basis set = -1510.27386892
   11   -1510.2739236943      9.61E-09 Convergence criterion met
 Total energy in the final basis set = -1510.27392369
   11   -1510.2739627374      2.66E-09 Convergence criterion met
 Total energy in the final basis set = -1510.27396274
   11   -1510.2739679356      4.37E-09 Convergence criterion met
 Total energy in the final basis set = -1510.27396794
   10   -1510.2739680461      7.44E-09 Convergence criterion met
 Total energy in the final basis set = -1510.27396805
   10   -1510.2739692250      5.03E-09 Convergence criterion met
 Total energy in the final basis set = -1510.27396923

             Standard Nuclear Orientation (Angstroms)
    I     Atom           X                Y                Z
 ----------------------------------------------------------------
    1      O      -5.3199451748    -0.5061562342     1.4166878109
    2      C      -4.3449794715    -0.2347432061     0.6825735071
    3      C      -3.7679553581    -1.1353767830    -0.4654743548
    4      C      -2.7668033971    -0.4369554430    -1.4862587627
    5      C      -2.6262737796     1.1299272130    -1.3450476851
    6      O      -1.3661580864     1.4645174487    -0.7355220861
    7      C      -0.9854720842     2.8459558108    -1.1149478909
    8      C       0.1938387045     3.2790140209    -0.1846216222
    9      O       1.4056063530     2.4949009081    -0.5128682606
   10      C       1.7626612856     1.6067880468     0.5618551097
   11      C       3.1654809116     1.0254500492     0.1647184437
   12      C       3.8756512650     0.0014745074     1.1301528363
   13      C       2.9554171178    -1.0429236604     1.8758105520
   14      O       3.3684638877    -1.9563041841     2.6268261097
   15      O      -3.5132983667     0.9118164932     0.8569494470
   16      O       1.6396191402    -0.9859684119     1.3451698017
   17      O       1.1234308124     1.5185305462     1.6301800951
   18      C       0.8065126727    -2.0958062618     1.8632761959
   19      C       3.2795871445     0.2826629830    -1.2441064773
   20      C       4.6795113395     0.6887461458    -1.8443255534
   21      C       5.6377804583    -0.0195168803    -0.8141081277
   22      C       4.6145352564    -0.8852187758     0.0281321061
   23      O       3.4924235965    -1.1441577534    -0.9105625964
   24      H       3.8073822519     1.9256366214     0.1129416211
   25      H       4.5653460725     0.4877224407     1.8416905102
   26      H       2.4066400520     0.4102053341    -1.9129360131
   27      H       4.7980684345     0.2681380133    -2.8560970064
   28      H       4.8250277014     1.7797480119    -1.8911105840
   29      H       6.3743097963    -0.6663949381    -1.3159340523
   30      H       6.1774381207     0.7013666259    -0.1790335380
   31      H       5.0181523084    -1.8383754481     0.4219950017
   32      O      -3.4119894354     1.9725441083    -1.8318088644
   33      C      -4.0222292421     1.7746758856     1.9453141220
   34      C      -2.8196904387    -2.2404047481     0.1713587912
   35      C      -2.5273932897    -3.3627527849    -0.8999208671
   36      C      -1.4879736846    -2.6379666338    -1.8334165210
   37      C      -1.4192159958    -1.2128122244    -1.1619786202
   38      O      -1.5391308884    -1.5106786020     0.2852148404
   39      H      -4.6227796724    -1.5990067852    -0.9899373153
   40      H      -3.0986347903    -0.6302175105    -2.5223818945
   41      H      -4.0869850815     1.2194347803     2.9029677744
   42      H      -3.1489105805    -2.6087762658     1.1626617315
   43      H      -2.0896890287    -4.2505401969    -0.4161503601
   44      H      -3.4412162486    -3.6664271632    -1.4353607274
   45      H      -0.5016829869    -3.1277709592    -1.7980564784
   46      H      -1.8210070844    -2.5849562037    -2.8821672837
   47      H      -0.4991670227    -0.6281158995    -1.3522349024
   48      H      -5.0237939319     2.1848725244     1.7022111191
   49      H      -3.2941411871     2.6009182629     2.0405787247
   50      H      -0.1523074596    -2.0135411859     1.2961175473
   51      H       0.6270992018    -1.9845794912     2.9514741754
   52      H       1.2942680508    -3.0753124047     1.6854233607
   53      H       0.4261852150     4.3520089174    -0.3516586579
   54      H      -0.0737549310     3.1016738662     0.8801287437
   55      H      -1.8464477443     3.5405259488    -0.9970780664
   56      H      -0.6614559608     2.8751788878    -2.1791491662
 ----------------------------------------------------------------

    9   -1510.2739691667      1.93E-09 Convergence criterion met
 Total energy in the final basis set = -1510.27396917
 Final energy is   -1510.27396916670
 **  OPTIMIZATION CONVERGED  **

                    Orbital Energies (a.u.)
 --------------------------------------------------------------

 Alpha MOs
 -- Occupied --
-18.946 -18.924 -18.922 -18.914 -18.906 -18.883 -18.878 -18.875
-18.866 -18.849 -10.105 -10.099 -10.097 -10.080 -10.071 -10.070
-10.069 -10.069 -10.064 -10.057 -10.055 -10.044 -10.040 -10.033
-10.030 -10.026 -10.024 -10.023 -10.018 -10.017  -1.019  -1.009
 -1.001  -0.991  -0.982  -0.966  -0.941  -0.935  -0.927  -0.913
 -0.768  -0.759  -0.729  -0.721  -0.716  -0.706  -0.692  -0.666
 -0.637  -0.614  -0.598  -0.575  -0.550  -0.543  -0.539  -0.533
 -0.518  -0.506  -0.490  -0.476  -0.471  -0.461  -0.440  -0.439
 -0.433  -0.430  -0.417  -0.416  -0.411  -0.408  -0.399  -0.394
 -0.385  -0.378  -0.373  -0.369  -0.358  -0.354  -0.349  -0.346
 -0.342  -0.341  -0.336  -0.328  -0.327  -0.326  -0.314  -0.312
 -0.311  -0.307  -0.303  -0.298  -0.296  -0.292  -0.284  -0.281
 -0.263  -0.250  -0.245  -0.241  -0.238  -0.230  -0.224  -0.183
 -0.172  -0.168  -0.159  -0.159  -0.156  -0.148  -0.145  -0.139
 -0.132

          Ground-State Mulliken Net Atomic Charges

     Atom                 Charge (a.u.)
  ----------------------------------------
      1 O                    -0.212595
      2 C                     0.212153
      3 C                    -0.077407
      4 C                    -0.079339
      5 C                     0.219006
      6 O                    -0.172698
      7 C                    -0.048678
      8 C                    -0.053493
      9 O                    -0.182256
     10 C                     0.218934
     11 C                    -0.077907
     12 C                    -0.077102
     13 C                     0.209790
     14 O                    -0.225806
     15 O                    -0.161789
     16 O                    -0.165788
     17 O                    -0.202326
     18 C                    -0.146547
     19 C                     0.026857
     20 C                    -0.141025
     21 C                    -0.146265
     22 C                     0.023296
     23 O                    -0.192016
     24 H                     0.082248
     25 H                     0.083033
     26 H                     0.084652
     27 H                     0.076380
     28 H                     0.073487
     29 H                     0.077602
     30 H                     0.073254
     31 H                     0.085707
     32 O                    -0.223028
     33 C                    -0.124577
     34 C                     0.027274
     35 C                    -0.144289
     36 C                    -0.144618
     37 C                     0.028551
     38 O                    -0.183043
     39 H                     0.087218
     40 H                     0.084847
     41 H                     0.094097
     42 H                     0.087545
     43 H                     0.080427
     44 H                     0.076290
     45 H                     0.082489
     46 H                     0.075063
     47 H                     0.097747
     48 H                     0.090954
     49 H                     0.094406
     50 H                     0.115237
     51 H                     0.076662
     52 H                     0.076151
     53 H                     0.084053
     54 H                     0.103138
     55 H                     0.092031
     56 H                     0.082014
  ----------------------------------------
  Sum of atomic charges =    -0.000000

                    Cartesian Multipole Moments
 -----------------------------------------------------------------
    Charge (ESU x 10^10)
                -0.0000
    Dipole Moment (Debye)
         X       0.2204      Y       1.3779      Z      -2.3191
       Tot       2.7066
    Quadrupole Moments (Debye-Ang)
        XX    -161.0149     XY      10.1527     YY    -150.9075
        XZ      -4.6637     YZ       7.7129     ZZ    -162.8885

 Total job time:  63.83s(wall), 3039.21s(cpu)
        *  Thank you very much for using Q-Chem.  Have a nice day.  *
