 Q-Chem 5.0, Q-Chem, Inc., Pleasanton, CA (2017)
 Q-Chem 5.0.1 for Intel X86 EM64T Linux

User input:
--------------------------------------------------------------
$molecule
0  1
O -6.1945472872 -0.8863457316 -0.0539913009
C -5.1662491347 -0.3492735254 -0.5201552967
C -4.5574447016 1.0324193996 -0.1038606387
C -3.4432373856 0.8907447321 1.0259249742
C -3.05937961 -0.6097629606 1.3247135398
O -1.7336969856 -0.8772705085 0.8506218229
C -1.0936141578 -1.9545978315 1.6424945863
C 0.3008994887 -2.1864652723 0.984800232
O 1.1117862045 -0.9762484243 1.2574995431
C 2.1081311528 -0.7976980421 0.2366880794
C 3.1249484245 0.2801020506 0.7588953025
C 4.5651513355 0.1836691813 0.1226649332
C 5.0766792604 -1.2163770918 -0.3684374068
O 6.1322414791 -1.4224085132 -1.0070839326
O -4.295342732 -0.9738134968 -1.4698306741
O 4.3019051932 -2.2609412713 0.2309996843
O 2.0730636396 -1.3497467742 -0.8825172639
C 4.8337297153 -3.5833053824 -0.1680603503
C 2.6567147739 1.6665874918 0.1254720997
C 3.5638558827 2.8486972251 0.6563619667
C 4.8474186298 2.6856728367 -0.242119145
C 4.5097530076 1.3335526665 -0.9798551778
O 3.0697443189 1.491459762 -1.2877561538
H 3.1366699174 0.280280705 1.8621337302
H 5.29924922 0.4838956991 0.8956266316
H 1.5655719131 1.8464801216 0.1899853472
H 3.071199034 3.8201372796 0.4932551442
H 3.7834963521 2.7415842183 1.7309640504
H 4.9313933261 3.5074020972 -0.971458806
H 5.7795632021 2.6300542524 0.3423723366
H 5.0909944282 1.1227672482 -1.8986438336
O -3.7592458611 -1.4400744984 1.9451738465
C -4.7900889621 -2.3315260492 -1.7930949992
C -3.7372814381 1.7751636556 -1.2433216051
C -3.6435392722 3.2998741488 -0.8448473236
C -2.6156264122 3.2337544123 0.3454924215
C -2.2531984257 1.6947637835 0.3582211609
O -2.3486054383 1.293933584 -1.0652185376
H -5.3903529781 1.6599141221 0.2597057211
H -3.7854658658 1.3389230732 1.9764800452
H -5.7933073524 -2.3008375816 -2.2654370246
H -4.0892425791 1.5717374387 -2.272794849
H -3.2471237279 3.8913482101 -1.6855699646
H -4.6187539277 3.7168116721 -0.5467250344
H -1.7185942322 3.8394296491 0.1410178927
H -3.0525523996 3.5619353219 1.3022314957
H -1.2550885578 1.4415633974 0.7631742386
H -4.8476606927 -2.9680364925 -0.8864168572
H -4.0595962466 -2.7601931154 -2.5035961617
H 4.2397651096 -4.330994015 0.3889896672
H 5.9069518837 -3.6882056184 0.0916075442
H 4.7153986694 -3.7550922446 -1.2574218803
H 0.7912451358 -3.0780273955 1.4360562675
H 0.2029433615 -2.3461627628 -0.1107491646
H -1.6948151621 -2.8909141445 1.6178050462
H -0.9738796596 -1.6423996024 2.7032070781
$end

$rem
JOBTYPE                   OPT
METHOD                    B3LYP
DFT_D                     d3_op
BASIS                     STO-3G
GEOM_OPT_MAX_CYCLES       100
GEOM_OPT_TOL_GRADIENT     300
GEOM_OPT_TOL_DISPLACEMENT 1200
GEOM_OPT_TOL_ENERGY       100
SYMMETRY                  False
THRESH                    12
SCF_CONVERGENCE           8
MAX_SUB_FILE_NUM          128
MEM_STATIC                400
MEM_TOTAL                 4000
$end
--------------------------------------------------------------

   16   -1510.2662752129      5.96E-09 Convergence criterion met
 Total energy in the final basis set = -1510.26627521
   13   -1510.2709590605      3.64E-09 Convergence criterion met
 Total energy in the final basis set = -1510.27095906
   13   -1510.2742776278      6.70E-09 Convergence criterion met
 Total energy in the final basis set = -1510.27427763
   13   -1510.2766871475      3.94E-09 Convergence criterion met
 Total energy in the final basis set = -1510.27668715
   13   -1510.2783997746      9.34E-09 Convergence criterion met
 Total energy in the final basis set = -1510.27839977
   13   -1510.2800446163      8.89E-09 Convergence criterion met
 Total energy in the final basis set = -1510.28004462
   13   -1510.2814925951      7.75E-09 Convergence criterion met
 Total energy in the final basis set = -1510.28149260
   14   -1510.2828481251      5.50E-09 Convergence criterion met
   11   -1510.3057515744      7.14E-09 Convergence criterion met
 Total energy in the final basis set = -1510.30575157
   10   -1510.3057575961      6.74E-09 Convergence criterion met
 Total energy in the final basis set = -1510.30575760
   10   -1510.3057561018      8.47E-09 Convergence criterion met
 Total energy in the final basis set = -1510.30575610
   10   -1510.3057601178      6.65E-09 Convergence criterion met
 Total energy in the final basis set = -1510.30576012
    9   -1510.3057587236      9.77E-09 Convergence criterion met
 Total energy in the final basis set = -1510.30575872
    9   -1510.3057600192      9.45E-09 Convergence criterion met
 Total energy in the final basis set = -1510.30576002

             Standard Nuclear Orientation (Angstroms)
    I     Atom           X                Y                Z
 ----------------------------------------------------------------
    1      O      -4.3682721357     1.4893823945     1.2173661702
    2      C      -3.6158048171     0.8129423767     0.4842248782
    3      C      -2.4363720074     1.3141106037    -0.4094136983
    4      C      -1.1901596418     0.3365847437    -0.4164373661
    5      C      -1.2808024850    -0.8071960955     0.6469536591
    6      O      -1.1895325132    -2.0913756109     0.0108995190
    7      C      -0.8734369124    -3.1336292723     1.0108144658
    8      C       0.6880247792    -3.3173360761     1.1113132121
    9      O       1.3236171152    -2.1378226739     1.7508954211
   10      C       1.7271112748    -1.1756129586     0.7730358198
   11      C       2.2823225450     0.0828128546     1.5180223785
   12      C       3.0506746812     1.0828828931     0.5597834232
   13      C       3.0376454365     0.6667383084    -0.9585281849
   14      O       2.3414494522     1.1697168871    -1.8682971603
   15      O      -3.7245740681    -0.6103993477     0.3195577251
   16      O       4.0802526000    -0.2905264955    -1.1757686324
   17      O       1.6355485425    -1.3373392731    -0.4658982761
   18      C       4.0475737597    -0.7507606243    -2.5823243319
   19      C       1.1076267734     1.0160303811     2.0597614850
   20      C       1.7227548173     2.0055670738     3.1198795119
   21      C       2.5154046872     3.0020550022     2.1910374236
   22      C       2.2086728741     2.4062785010     0.7631620751
   23      O       0.8222990946     1.8998600981     0.9028656014
   24      H       2.9206070137    -0.2601330536     2.3514449623
   25      H       4.1013126942     1.2013265216     0.8789640185
   26      H       0.1780766899     0.4674305925     2.3426538252
   27      H       0.9220612660     2.5206838299     3.6743852480
   28      H       2.3745830067     1.4867109188     3.8405628726
   29      H       2.1229965947     4.0282190779     2.2720736897
   30      H       3.5953845405     3.0177561410     2.4085157695
   31      H       2.2736072862     3.1175579219    -0.0827009111
   32      O      -1.2918992023    -0.6621538082     1.8952614084
   33      C      -4.7654514325    -1.1584913513     1.2159976525
   34      C      -2.8184853709     1.2847239665    -1.9542601628
   35      C      -1.6882682528     2.0605196867    -2.7485338838
   36      C      -0.5486717222     0.9771068845    -2.8027391916
   37      C      -1.1846240927    -0.1608662259    -1.9208245122
   38      O      -2.6156906290    -0.1331817813    -2.3161991964
   39      H      -2.1616418412     2.3295808491    -0.0741430820
   40      H      -0.2721335162     0.9217098656    -0.1590495080
   41      H      -5.7335649798    -0.6336252132     1.0878716081
   42      H      -3.8560948031     1.6012915395    -2.1776832532
   43      H      -2.0398018477     2.3366603948    -3.7554050023
   44      H      -1.3794655229     2.9759408043    -2.2191552930
   45      H      -0.3985950166     0.6139677435    -3.8320184520
   46      H       0.4251303000     1.3153623111    -2.4018979356
   47      H      -0.7596640317    -1.1729040134    -2.0577952205
   48      H      -4.4593953079    -1.0825659108     2.2799489281
   49      H      -4.8780932910    -2.2230076062     0.9397864621
   50      H       4.8927238622    -1.4544223963    -2.6949587023
   51      H       4.1667209602     0.0930064513    -3.2923334318
   52      H       3.0948528653    -1.2721939536    -2.8080554335
   53      H       0.9229024901    -4.1874249285     1.7581060801
   54      H       1.1096603197    -3.4715527938     0.0951728897
   55      H      -1.3356263386    -4.0780406151     0.6582838394
   56      H      -1.2826283499    -2.8470516971     2.0032692379
 ----------------------------------------------------------------

    9   -1510.3057599917      8.72E-09 Convergence criterion met
 Total energy in the final basis set = -1510.30575999
 Final energy is   -1510.30575999167
 **  OPTIMIZATION CONVERGED  **

                    Orbital Energies (a.u.)
 --------------------------------------------------------------

 Alpha MOs
 -- Occupied --
-18.945 -18.929 -18.929 -18.928 -18.902 -18.890 -18.870 -18.867
-18.867 -18.862 -10.111 -10.100 -10.095 -10.089 -10.078 -10.072
-10.065 -10.059 -10.058 -10.055 -10.045 -10.043 -10.040 -10.034
-10.024 -10.022 -10.021 -10.007 -10.001  -9.989  -1.026  -1.008
 -1.005  -0.999  -0.979  -0.951  -0.948  -0.932  -0.931  -0.927
 -0.768  -0.746  -0.728  -0.718  -0.706  -0.701  -0.683  -0.660
 -0.652  -0.619  -0.593  -0.574  -0.548  -0.542  -0.529  -0.518
 -0.514  -0.501  -0.487  -0.472  -0.465  -0.459  -0.453  -0.439
 -0.431  -0.423  -0.415  -0.413  -0.408  -0.405  -0.404  -0.397
 -0.391  -0.382  -0.371  -0.365  -0.358  -0.354  -0.352  -0.348
 -0.345  -0.341  -0.335  -0.332  -0.328  -0.315  -0.314  -0.308
 -0.307  -0.302  -0.293  -0.288  -0.284  -0.278  -0.277  -0.275
 -0.265  -0.258  -0.250  -0.241  -0.240  -0.235  -0.213  -0.196
 -0.172  -0.170  -0.168  -0.159  -0.155  -0.151  -0.150  -0.140
 -0.125

          Ground-State Mulliken Net Atomic Charges

     Atom                 Charge (a.u.)
  ----------------------------------------
      1 O                    -0.213626
      2 C                     0.209384
      3 C                    -0.079451
      4 C                    -0.096410
      5 C                     0.215655
      6 O                    -0.167968
      7 C                    -0.053443
      8 C                    -0.052914
      9 O                    -0.168958
     10 C                     0.211062
     11 C                    -0.080274
     12 C                    -0.082148
     13 C                     0.219502
     14 O                    -0.219460
     15 O                    -0.165503
     16 O                    -0.172816
     17 O                    -0.208506
     18 C                    -0.128222
     19 C                     0.013812
     20 C                    -0.143332
     21 C                    -0.143800
     22 C                     0.026255
     23 O                    -0.189811
     24 H                     0.088902
     25 H                     0.086265
     26 H                     0.110164
     27 H                     0.081211
     28 H                     0.074860
     29 H                     0.079628
     30 H                     0.074431
     31 H                     0.089340
     32 O                    -0.236009
     33 C                    -0.128188
     34 C                     0.025055
     35 C                    -0.144540
     36 C                    -0.152982
     37 C                     0.022368
     38 O                    -0.192759
     39 H                     0.085765
     40 H                     0.113333
     41 H                     0.091006
     42 H                     0.077414
     43 H                     0.072340
     44 H                     0.071582
     45 H                     0.069360
     46 H                     0.096076
     47 H                     0.090030
     48 H                     0.087550
     49 H                     0.089736
     50 H                     0.087813
     51 H                     0.088343
     52 H                     0.093902
     53 H                     0.090253
     54 H                     0.098683
     55 H                     0.089732
     56 H                     0.100310
  ----------------------------------------
  Sum of atomic charges =    -0.000000

                    Cartesian Multipole Moments
 -----------------------------------------------------------------
    Charge (ESU x 10^10)
                -0.0000
    Dipole Moment (Debye)
         X       3.0675      Y      -1.4135      Z       1.4340
       Tot       3.6693
    Quadrupole Moments (Debye-Ang)
        XX    -156.0149     XY       6.2152     YY    -148.6927
        XZ       0.8761     YZ      -3.0542     ZZ    -160.7851

 Total job time:  137.51s(wall), 6539.30s(cpu)
        *  Thank you very much for using Q-Chem.  Have a nice day.  *
