 Q-Chem 5.0, Q-Chem, Inc., Pleasanton, CA (2017)
 Q-Chem 5.0.1 for Intel X86 EM64T Linux

User input:
--------------------------------------------------------------
$molecule
0  1
O -3.94934 -3.66094 2.70899
C -3.26408 -4.56952 2.26188
C -3.36658 -6.02376 2.66595
C -4.2755 -6.92677 1.81607
C -4.84076 -6.31686 0.55251
O -4.26077 -6.89407 -0.54104
C -5.10492 -6.88448 -1.69714
C -4.36928 -7.48593 -2.89013
O -4.16908 -8.89301 -2.68297
C -3.09761 -9.42929 -3.31818
C -3.11257 -10.93938 -3.32466
C -2.32657 -11.58961 -4.47256
C -1.36805 -10.68051 -5.21519
O -0.56639 -11.03895 -6.06572
O -2.47255 -4.30935 1.18678
O -1.8666 -9.45231 -5.53891
O -2.03004 -8.82717 -3.24879
C -1.27775 -8.52265 -6.37708
C -2.40664 -11.56578 -2.10636
C -2.94009 -12.97867 -1.87737
C -2.3444 -13.70209 -3.06924
C -1.47678 -12.5856 -3.66346
O -1.09491 -11.81678 -2.54762
H -4.17916 -11.26274 -3.3323
H -2.98824 -12.06471 -5.22983
H -2.50619 -10.95736 -1.18051
H -2.45347 -13.35941 -0.95066
H -4.04284 -13.06651 -1.7722
H -1.71511 -14.5386 -2.69225
H -3.07972 -14.08018 -3.81228
H -0.64547 -13.01828 -4.26293
O -5.71029 -5.45556 0.5207
C -2.31982 -3.0645 0.61367
C -2.025 -6.77554 2.58375
C -2.03449 -7.96028 3.5461
C -3.00197 -8.88495 2.8406
C -3.26995 -8.08474 1.55947
O -2.06061 -7.40493 1.32687
H -3.71253 -6.00833 3.72452
H -5.15094 -7.31324 2.38327
H -1.90369 -2.3503 1.35597
H -1.14525 -6.12504 2.78348
H -1.01918 -8.41694 3.5146
H -2.2937 -7.71456 4.59839
H -2.46879 -9.83254 2.60297
H -3.93946 -9.10645 3.39493
H -3.60496 -8.78504 0.76288
H -3.2979 -2.69262 0.24029
H -1.61748 -3.14187 -0.24141
H -1.91808 -7.61794 -6.42093
H -1.17565 -8.93458 -7.40363
H -0.2793 -8.23576 -5.98365
H -4.99731 -7.35809 -3.79825
H -3.42421 -6.91543 -3.03588
H -5.35677 -5.83268 -1.96401
H -6.04575 -7.44962 -1.50999
$end

$opt
CONSTRAINT
tors           1           2           3           4     +93.382
tors           3           4           5           6    +110.026
tors           4           5           6           7    +152.079
tors           5           6           7           8    +177.444
tors           6           7           8           9     +68.554
tors           7           8           9          10    -153.089
tors           8           9          10          11    -166.973
tors           9          10          11          12    +155.131
tors          11          12          13          14    +172.536
ENDCONSTRAINT
$end

$rem
JOBTYPE                   OPT
METHOD                    B3LYP
DFT_D                     d3_op
BASIS                     STO-3G
GEOM_OPT_MAX_CYCLES       100
GEOM_OPT_TOL_GRADIENT     300
GEOM_OPT_TOL_DISPLACEMENT 1200
GEOM_OPT_TOL_ENERGY       100
SYMMETRY                  False
THRESH                    12
SCF_CONVERGENCE           8
MAX_SUB_FILE_NUM          128
MEM_STATIC                400
MEM_TOTAL                 4000
$end
--------------------------------------------------------------

   15   -1510.1008414436      7.83E-09 Convergence criterion met
 Total energy in the final basis set = -1510.10084144
   14   -1510.1759724542      8.26E-09 Convergence criterion met
 Total energy in the final basis set = -1510.17597245
   14   -1510.2179071540      7.34E-09 Convergence criterion met
 Total energy in the final basis set = -1510.21790715
   14   -1510.2391594631      5.11E-09 Convergence criterion met
 Total energy in the final basis set = -1510.23915946
   14   -1510.2502050288      5.41E-09 Convergence criterion met
 Total energy in the final basis set = -1510.25020503
   14   -1510.2559014847      3.30E-09 Convergence criterion met
 Total energy in the final basis set = -1510.25590148
   13   -1510.2591872294      2.89E-09 Convergence criterion met
 Total energy in the final basis set = -1510.25918723
   12   -1510.2611840770      8.16E-09 Convergence criterion met
   10   -1510.2664290188      8.11E-09 Convergence criterion met
 Total energy in the final basis set = -1510.26642902
   10   -1510.2664440941      8.22E-09 Convergence criterion met
 Total energy in the final basis set = -1510.26644409
   10   -1510.2664544890      6.84E-09 Convergence criterion met
 Total energy in the final basis set = -1510.26645449
    9   -1510.2664568688      8.78E-09 Convergence criterion met
 Total energy in the final basis set = -1510.26645687
    9   -1510.2664591586      4.17E-09 Convergence criterion met
 Total energy in the final basis set = -1510.26645916
    9   -1510.2664629954      4.43E-09 Convergence criterion met
 Total energy in the final basis set = -1510.26646300

             Standard Nuclear Orientation (Angstroms)
    I     Atom           X                Y                Z
 ----------------------------------------------------------------
    1      O      -6.1945472872    -0.8863457316    -0.0539913009
    2      C      -5.1662491347    -0.3492735254    -0.5201552967
    3      C      -4.5574447016     1.0324193996    -0.1038606387
    4      C      -3.4432373856     0.8907447321     1.0259249742
    5      C      -3.0593796100    -0.6097629606     1.3247135398
    6      O      -1.7336969856    -0.8772705085     0.8506218229
    7      C      -1.0936141578    -1.9545978315     1.6424945863
    8      C       0.3008994887    -2.1864652723     0.9848002320
    9      O       1.1117862045    -0.9762484243     1.2574995431
   10      C       2.1081311528    -0.7976980421     0.2366880794
   11      C       3.1249484245     0.2801020506     0.7588953025
   12      C       4.5651513355     0.1836691813     0.1226649332
   13      C       5.0766792604    -1.2163770918    -0.3684374068
   14      O       6.1322414791    -1.4224085132    -1.0070839326
   15      O      -4.2953427320    -0.9738134968    -1.4698306741
   16      O       4.3019051932    -2.2609412713     0.2309996843
   17      O       2.0730636396    -1.3497467742    -0.8825172639
   18      C       4.8337297153    -3.5833053824    -0.1680603503
   19      C       2.6567147739     1.6665874918     0.1254720997
   20      C       3.5638558827     2.8486972251     0.6563619667
   21      C       4.8474186298     2.6856728367    -0.2421191450
   22      C       4.5097530076     1.3335526665    -0.9798551778
   23      O       3.0697443189     1.4914597620    -1.2877561538
   24      H       3.1366699174     0.2802807050     1.8621337302
   25      H       5.2992492200     0.4838956991     0.8956266316
   26      H       1.5655719131     1.8464801216     0.1899853472
   27      H       3.0711990340     3.8201372796     0.4932551442
   28      H       3.7834963521     2.7415842183     1.7309640504
   29      H       4.9313933261     3.5074020972    -0.9714588060
   30      H       5.7795632021     2.6300542524     0.3423723366
   31      H       5.0909944282     1.1227672482    -1.8986438336
   32      O      -3.7592458611    -1.4400744984     1.9451738465
   33      C      -4.7900889621    -2.3315260492    -1.7930949992
   34      C      -3.7372814381     1.7751636556    -1.2433216051
   35      C      -3.6435392722     3.2998741488    -0.8448473236
   36      C      -2.6156264122     3.2337544123     0.3454924215
   37      C      -2.2531984257     1.6947637835     0.3582211609
   38      O      -2.3486054383     1.2939335840    -1.0652185376
   39      H      -5.3903529781     1.6599141221     0.2597057211
   40      H      -3.7854658658     1.3389230732     1.9764800452
   41      H      -5.7933073524    -2.3008375816    -2.2654370246
   42      H      -4.0892425791     1.5717374387    -2.2727948490
   43      H      -3.2471237279     3.8913482101    -1.6855699646
   44      H      -4.6187539277     3.7168116721    -0.5467250344
   45      H      -1.7185942322     3.8394296491     0.1410178927
   46      H      -3.0525523996     3.5619353219     1.3022314957
   47      H      -1.2550885578     1.4415633974     0.7631742386
   48      H      -4.8476606927    -2.9680364925    -0.8864168572
   49      H      -4.0595962466    -2.7601931154    -2.5035961617
   50      H       4.2397651096    -4.3309940150     0.3889896672
   51      H       5.9069518837    -3.6882056184     0.0916075442
   52      H       4.7153986694    -3.7550922446    -1.2574218803
   53      H       0.7912451358    -3.0780273955     1.4360562675
   54      H       0.2029433615    -2.3461627628    -0.1107491646
   55      H      -1.6948151621    -2.8909141445     1.6178050462
   56      H      -0.9738796596    -1.6423996024     2.7032070781
 ----------------------------------------------------------------

    9   -1510.2664638499      6.28E-09 Convergence criterion met
 Total energy in the final basis set = -1510.26646385
 Final energy is   -1510.26646384994
 **  OPTIMIZATION CONVERGED  **

                    Orbital Energies (a.u.)
 --------------------------------------------------------------

 Alpha MOs
 -- Occupied --
-18.934 -18.930 -18.929 -18.924 -18.887 -18.884 -18.877 -18.872
-18.871 -18.870 -10.100 -10.099 -10.096 -10.094 -10.077 -10.072
-10.064 -10.060 -10.059 -10.059 -10.056 -10.056 -10.037 -10.037
-10.036 -10.034 -10.021 -10.019 -10.018 -10.017  -1.013  -1.011
 -1.006  -1.002  -0.970  -0.965  -0.940  -0.934  -0.931  -0.928
 -0.763  -0.760  -0.728  -0.721  -0.714  -0.704  -0.696  -0.661
 -0.656  -0.614  -0.597  -0.576  -0.545  -0.543  -0.537  -0.534
 -0.515  -0.512  -0.485  -0.481  -0.467  -0.461  -0.451  -0.436
 -0.432  -0.430  -0.416  -0.413  -0.409  -0.408  -0.408  -0.403
 -0.395  -0.377  -0.373  -0.367  -0.360  -0.358  -0.351  -0.348
 -0.344  -0.340  -0.334  -0.330  -0.327  -0.323  -0.319  -0.313
 -0.306  -0.305  -0.304  -0.296  -0.293  -0.289  -0.285  -0.276
 -0.270  -0.254  -0.252  -0.245  -0.242  -0.232  -0.229  -0.179
 -0.175  -0.172  -0.165  -0.156  -0.154  -0.148  -0.145  -0.142
 -0.139

          Ground-State Mulliken Net Atomic Charges

     Atom                 Charge (a.u.)
  ----------------------------------------
      1 O                    -0.210513
      2 C                     0.205315
      3 C                    -0.079706
      4 C                    -0.077157
      5 C                     0.208281
      6 O                    -0.170444
      7 C                    -0.044557
      8 C                    -0.048152
      9 O                    -0.179246
     10 C                     0.219350
     11 C                    -0.077208
     12 C                    -0.079606
     13 C                     0.211951
     14 O                    -0.215888
     15 O                    -0.166807
     16 O                    -0.169660
     17 O                    -0.206724
     18 C                    -0.127196
     19 C                     0.024969
     20 C                    -0.145589
     21 C                    -0.141618
     22 C                     0.025927
     23 O                    -0.186580
     24 H                     0.085891
     25 H                     0.083628
     26 H                     0.083375
     27 H                     0.077828
     28 H                     0.072951
     29 H                     0.078440
     30 H                     0.073686
     31 H                     0.089268
     32 O                    -0.210073
     33 C                    -0.128454
     34 C                     0.025867
     35 C                    -0.143397
     36 C                    -0.145399
     37 C                     0.025025
     38 O                    -0.184241
     39 H                     0.083461
     40 H                     0.085441
     41 H                     0.087520
     42 H                     0.086008
     43 H                     0.077774
     44 H                     0.072795
     45 H                     0.076609
     46 H                     0.071958
     47 H                     0.088776
     48 H                     0.090328
     49 H                     0.091245
     50 H                     0.088954
     51 H                     0.089836
     52 H                     0.091775
     53 H                     0.082178
     54 H                     0.104209
     55 H                     0.091076
     56 H                     0.086518
  ----------------------------------------
  Sum of atomic charges =     0.000000

                    Cartesian Multipole Moments
 -----------------------------------------------------------------
    Charge (ESU x 10^10)
                 0.0000
    Dipole Moment (Debye)
         X       1.0310      Y       0.9286      Z       2.2897
       Tot       2.6773
    Quadrupole Moments (Debye-Ang)
        XX    -171.0557     XY      -5.6282     YY    -143.0806
        XZ      15.3181     YZ       2.9621     ZZ    -161.1609

 Total job time:  67.08s(wall), 3196.39s(cpu)
        *  Thank you very much for using Q-Chem.  Have a nice day.  *
