 Q-Chem 5.0, Q-Chem, Inc., Pleasanton, CA (2017)
 Q-Chem 5.0.1 for Intel X86 EM64T Linux

User input:
--------------------------------------------------------------
$molecule
0  1
O -6.0664943029 0.2408929598 0.6308166565
C -4.9407768211 0.3247601298 0.0935654186
C -3.7885297585 1.3201678767 0.4691638752
C -2.4382210758 0.6039331112 0.8807555906
C -2.5169985586 -0.9649240099 0.949407584
O -1.1929456697 -1.4653241238 0.7293815964
C -0.8722547382 -2.6595583293 1.5450119617
C 0.5581377606 -3.0441694328 1.041960078
O 1.482706838 -1.9765637991 1.4966868627
C 1.9337715133 -1.2087253684 0.3697028792
C 2.9294218374 -0.1166466049 0.8949725912
C 4.0410010172 0.2791833989 -0.1498034265
C 4.4392229301 -0.7963526668 -1.2181438468
O 5.1405532233 -0.5976359059 -2.2348974879
O -4.5302007024 -0.4411117893 -1.0455787487
O 4.0785431908 -2.0982803651 -0.7384490226
O 1.4942397414 -1.3448395343 -0.792478625
C 4.4597341426 -3.1414050151 -1.7166140596
C 2.1048723252 1.2435497239 0.9349531875
C 2.9906452644 2.4124574438 1.5232506503
C 3.8822284849 2.7849587527 0.2793372897
C 3.4604167996 1.6474105551 -0.7289088317
O 1.9967692723 1.5589962679 -0.5100077417
H 3.3375807944 -0.4168805409 1.8750441773
H 4.9787000376 0.4968620776 0.3970508887
H 1.0998650487 1.1450842465 1.3876047962
H 2.3566502591 3.2562545175 1.838354274
H 3.586740841 2.0787432031 2.3879431981
H 3.6103890034 3.7731934848 -0.1252403164
H 4.9608484877 2.7763136325 0.5030601288
H 3.6908214211 1.8326116972 -1.7960554004
O -3.5044140505 -1.6668199206 1.2570207673
C -5.5675602177 -1.4416169749 -1.3796546029
C -3.2967992346 2.1529933865 -0.7957575408
C -2.4070067567 3.3609657835 -0.2962941935
C -1.0705922023 2.6206610782 0.0827206472
C -1.4493221347 1.1260934674 -0.2507074584
O -2.3209347611 1.2471012415 -1.4405403208
H -4.1634597608 1.97476101 1.2750922089
H -2.1013133259 0.9380823692 1.8807152093
H -6.5575062207 -0.9691903963 -1.5434965101
H -4.1024332605 2.4241361731 -1.5052593401
H -2.2521574305 4.0845807851 -1.1122812013
H -2.8606538708 3.8856513554 0.5599743763
H -0.2216712213 2.9419355785 -0.5424826782
H -0.7981816769 2.756245432 1.1415184308
H -0.5973311492 0.4486143862 -0.4568251131
H -5.6653852206 -2.199039599 -0.5747388991
H -5.2300064027 -1.9329017671 -2.3106718349
H 3.5422371933 -3.5853465699 -2.1521167065
H 5.0325094015 -3.9264063616 -1.1861529371
H 5.0771403655 -2.6880575198 -2.5185102286
H 0.8942774813 -4.0056617944 1.483202941
H 0.5661571767 -3.0890852906 -0.0681826121
H -1.5981659526 -3.4870843342 1.3787310697
H -0.8559990494 -2.4074220704 2.6282281894
$end

$rem
JOBTYPE                   OPT
METHOD                    B3LYP
DFT_D                     d3_op
BASIS                     STO-3G
GEOM_OPT_MAX_CYCLES       100
GEOM_OPT_TOL_GRADIENT     300
GEOM_OPT_TOL_DISPLACEMENT 1200
GEOM_OPT_TOL_ENERGY       100
SYMMETRY                  False
THRESH                    12
SCF_CONVERGENCE           8
MAX_SUB_FILE_NUM          128
MEM_STATIC                400
MEM_TOTAL                 4000
$end
--------------------------------------------------------------

   16   -1510.2744505631      6.00E-09 Convergence criterion met
 Total energy in the final basis set = -1510.27445056
   14   -1510.2787227777      5.20E-09 Convergence criterion met
 Total energy in the final basis set = -1510.27872278
   14   -1510.2816435981      1.77E-09 Convergence criterion met
 Total energy in the final basis set = -1510.28164360
   13   -1510.2842884858      3.13E-09 Convergence criterion met
 Total energy in the final basis set = -1510.28428849
   13   -1510.2858916353      4.22E-09 Convergence criterion met
 Total energy in the final basis set = -1510.28589164
   13   -1510.2873806179      6.02E-09 Convergence criterion met
 Total energy in the final basis set = -1510.28738062
   13   -1510.2885394429      4.63E-09 Convergence criterion met
 Total energy in the final basis set = -1510.28853944
   13   -1510.2896265991      5.85E-09 Convergence criterion met
   10   -1510.3008404801      8.39E-09 Convergence criterion met
 Total energy in the final basis set = -1510.30084048
   11   -1510.3008403347      7.36E-09 Convergence criterion met
 Total energy in the final basis set = -1510.30084033
   11   -1510.3008410399      2.05E-09 Convergence criterion met
 Total energy in the final basis set = -1510.30084104
    9   -1510.3008374630      7.41E-09 Convergence criterion met
 Total energy in the final basis set = -1510.30083746
   10   -1510.3008411809      5.45E-09 Convergence criterion met
 Total energy in the final basis set = -1510.30084118
   10   -1510.3008377129      3.79E-09 Convergence criterion met
 Total energy in the final basis set = -1510.30083771

             Standard Nuclear Orientation (Angstroms)
    I     Atom           X                Y                Z
 ----------------------------------------------------------------
    1      O      -5.0254189824     0.0605314822     0.8588024491
    2      C      -4.2760416561     0.1249525786    -0.1407570998
    3      C      -3.0734844022     1.1195740409    -0.3423599289
    4      C      -1.7166356665     0.6084564352     0.3010910059
    5      C      -1.8159736608    -0.8199961598     0.9146831820
    6      O      -0.7123540434    -1.0112340057     1.8175762388
    7      C      -0.6614462426    -2.4195381036     2.2779844250
    8      C       0.6043568660    -3.0995991522     1.6402821235
    9      O       1.7787431597    -2.2301584436     1.8993969509
   10      C       1.9178569148    -1.2702627968     0.8488503079
   11      C       2.8319118611    -0.1149943749     1.3618807150
   12      C       3.4161996702     0.8023764030     0.2131633944
   13      C       3.0666969878     0.3229846221    -1.2428628091
   14      O       2.3558185412     0.9133886018    -2.0853281471
   15      O      -4.4450062247    -0.6675926452    -1.3214595600
   16      O       3.8120010238    -0.8740790065    -1.5016966648
   17      O       1.3637587498    -1.3581880411    -0.2728219477
   18      C       3.4646055188    -1.4165519615    -2.8351287182
   19      C       1.9306636000     0.9353664527     2.1552569981
   20      C       2.8832135752     1.8991366363     2.9646587756
   21      C       3.4436809141     2.8122079269     1.8104421296
   22      C       2.7255260847     2.1883784805     0.5513281813
   23      O       1.3969905588     1.7927666531     1.0758758534
   24      H       3.6211229508    -0.5400637456     2.0065675546
   25      H       4.5165978721     0.8632473497     0.2946412521
   26      H       1.1008414011     0.4735235929     2.7263258392
   27      H       2.3068073252     2.4836014319     3.6994186092
   28      H       3.6756816513     1.3471502626     3.4947167067
   29      H       3.1400231345     3.8625929150     1.9447368987
   30      H       4.5413560560     2.7696023299     1.7273818314
   31      H       2.6096092021     2.8581266548    -0.3224783922
   32      O      -2.6706683031    -1.7029815869     0.6768760822
   33      C      -5.5143719548    -1.6660092071    -1.1038559600
   34      C      -2.6389906733     1.2843015342    -1.8619441160
   35      C      -1.7452584194     2.5812487879    -1.9871921791
   36      C      -0.4056832412     2.0885631509    -1.3288161607
   37      C      -0.7641950232     0.5942829666    -0.9785747175
   38      O      -1.6756489454     0.1792060765    -2.0669770059
   39      H      -3.3651708086     2.0859832978     0.1062033906
   40      H      -1.3283102437     1.2972056748     1.0721272000
   41      H      -6.4761590182    -1.1866200519    -0.8283411441
   42      H      -3.4744745959     1.2112194676    -2.5837866018
   43      H      -1.6044411407     2.8460304860    -3.0473782984
   44      H      -2.1892151578     3.4436202651    -1.4641388267
   45      H       0.4487178494     2.1045376893    -2.0252471636
   46      H      -0.1321130091     2.6525035875    -0.4236813785
   47      H       0.1033594544    -0.0973265827    -0.8879496523
   48      H      -5.2341677772    -2.3824327060    -0.3046267505
   49      H      -5.6286448280    -2.2060779786    -2.0617262367
   50      H       2.8458649699    -2.3282725246    -2.7120762291
   51      H       4.4037814615    -1.6766514905    -3.3599976143
   52      H       2.8947778921    -0.6591154011    -3.4099530104
   53      H       0.8064792085    -4.0783629437     2.1195304548
   54      H       0.4620688572    -3.2270773451     0.5460042352
   55      H      -1.5933704322    -2.9380051603     1.9616888220
   56      H      -0.5777865384    -2.4120877387     3.3839329673
 ----------------------------------------------------------------

    9   -1510.3008372769      4.20E-09 Convergence criterion met
 Total energy in the final basis set = -1510.30083728
 Final energy is   -1510.30083727685
 **  OPTIMIZATION CONVERGED  **

                    Orbital Energies (a.u.)
 --------------------------------------------------------------

 Alpha MOs
 -- Occupied --
-18.945 -18.935 -18.926 -18.915 -18.893 -18.892 -18.881 -18.873
-18.867 -18.850 -10.114 -10.100 -10.099 -10.081 -10.079 -10.073
-10.065 -10.062 -10.053 -10.048 -10.045 -10.041 -10.040 -10.031
-10.025 -10.025 -10.024 -10.021 -10.001  -9.991  -1.027  -1.013
 -1.005  -0.991  -0.976  -0.951  -0.949  -0.938  -0.932  -0.916
 -0.768  -0.748  -0.730  -0.720  -0.707  -0.700  -0.686  -0.657
 -0.643  -0.621  -0.595  -0.573  -0.549  -0.543  -0.527  -0.519
 -0.512  -0.499  -0.488  -0.474  -0.463  -0.459  -0.449  -0.438
 -0.434  -0.431  -0.416  -0.412  -0.410  -0.404  -0.398  -0.396
 -0.392  -0.383  -0.373  -0.364  -0.359  -0.354  -0.351  -0.350
 -0.343  -0.339  -0.337  -0.331  -0.324  -0.318  -0.312  -0.310
 -0.306  -0.301  -0.294  -0.287  -0.286  -0.284  -0.274  -0.268
 -0.262  -0.257  -0.249  -0.245  -0.238  -0.233  -0.214  -0.194
 -0.174  -0.170  -0.166  -0.158  -0.157  -0.154  -0.150  -0.133
 -0.124

          Ground-State Mulliken Net Atomic Charges

     Atom                 Charge (a.u.)
  ----------------------------------------
      1 O                    -0.225138
      2 C                     0.211398
      3 C                    -0.081236
      4 C                    -0.079937
      5 C                     0.215391
      6 O                    -0.178891
      7 C                    -0.057802
      8 C                    -0.052890
      9 O                    -0.170199
     10 C                     0.225440
     11 C                    -0.077841
     12 C                    -0.080247
     13 C                     0.218224
     14 O                    -0.214753
     15 O                    -0.166589
     16 O                    -0.175557
     17 O                    -0.212103
     18 C                    -0.134842
     19 C                     0.024633
     20 C                    -0.143900
     21 C                    -0.144052
     22 C                     0.024594
     23 O                    -0.191699
     24 H                     0.089196
     25 H                     0.085885
     26 H                     0.091910
     27 H                     0.078927
     28 H                     0.074716
     29 H                     0.078579
     30 H                     0.074217
     31 H                     0.090201
     32 O                    -0.209586
     33 C                    -0.126707
     34 C                     0.025879
     35 C                    -0.145772
     36 C                    -0.149955
     37 C                     0.016842
     38 O                    -0.191489
     39 H                     0.081084
     40 H                     0.090014
     41 H                     0.085175
     42 H                     0.084338
     43 H                     0.073766
     44 H                     0.068212
     45 H                     0.087832
     46 H                     0.077743
     47 H                     0.101103
     48 H                     0.090866
     49 H                     0.086854
     50 H                     0.086813
     51 H                     0.084019
     52 H                     0.102555
     53 H                     0.091877
     54 H                     0.100738
     55 H                     0.105367
     56 H                     0.086795
  ----------------------------------------
  Sum of atomic charges =     0.000000

                    Cartesian Multipole Moments
 -----------------------------------------------------------------
    Charge (ESU x 10^10)
                 0.0000
    Dipole Moment (Debye)
         X       3.3057      Y      -0.2759      Z       1.9974
       Tot       3.8721
    Quadrupole Moments (Debye-Ang)
        XX    -157.4685     XY       2.0731     YY    -149.2166
        XZ       5.8820     YZ      -0.6781     ZZ    -157.7536

 Total job time:  116.89s(wall), 5564.43s(cpu)
        *  Thank you very much for using Q-Chem.  Have a nice day.  *
