 Q-Chem 5.0, Q-Chem, Inc., Pleasanton, CA (2017)
 Q-Chem 5.0.1 for Intel X86 EM64T Linux

User input:
--------------------------------------------------------------
$molecule
0  1
O -3.94934 -3.66094 2.70899
C -3.26408 -4.56952 2.26188
C -3.36658 -6.02376 2.66595
C -3.67062 -7.04199 1.55482
C -3.66228 -6.51543 0.13681
O -3.37991 -7.52975 -0.73316
C -4.10879 -7.43718 -1.96174
C -3.67372 -8.54474 -2.91576
O -4.10321 -9.81997 -2.41355
C -3.11464 -10.63358 -1.96643
C -3.62633 -11.96836 -1.4794
C -2.64727 -13.13887 -1.65153
C -1.20852 -12.75997 -1.93986
O -0.25482 -13.52428 -1.91084
O -2.29769 -4.26417 1.35397
O -1.0505 -11.81303 -2.91003
O -2.09245 -10.14913 -1.48782
C 0.13842 -11.36704 -3.46445
C -3.84698 -12.00731 0.04673
C -4.86076 -13.09714 0.38873
C -4.04767 -14.34126 0.09098
C -2.68511 -13.70999 -0.22186
O -2.65596 -12.54437 0.56619
H -4.5999 -12.16667 -1.98455
H -2.96775 -13.85947 -2.43559
H -4.16945 -11.03007 0.46959
H -5.03373 -13.0394 1.48756
H -5.8374 -13.03211 -0.13732
H -4.00123 -14.95849 1.01548
H -4.41146 -14.95433 -0.76199
H -1.86863 -14.44221 -0.03529
O -4.3342 -5.53905 -0.17966
C -2.05043 -2.99462 0.87584
C -2.03215 -6.55887 3.21218
C -2.28531 -7.76012 4.11981
C -2.67825 -8.80337 3.09757
C -2.48131 -8.01099 1.79988
O -1.41542 -7.14226 2.09274
H -4.13969 -6.0679 3.46651
H -4.64785 -7.55418 1.69941
H -1.76754 -2.31918 1.71128
H -1.44038 -5.7866 3.75149
H -1.30694 -8.05063 4.5655
H -3.02355 -7.58881 4.93256
H -1.94608 -9.63989 3.15355
H -3.7125 -9.19954 3.19155
H -2.30219 -8.73146 0.97443
H -2.95108 -2.5986 0.35978
H -1.21247 -3.0365 0.15025
H 0.21623 -10.27029 -3.31578
H 0.13539 -11.57916 -4.55325
H 1.03277 -11.84024 -3.00617
H -4.16277 -8.39091 -3.90097
H -2.57579 -8.46766 -3.09263
H -3.8747 -6.47013 -2.46342
H -5.20574 -7.50437 -1.78254
$end

$opt
CONSTRAINT
tors           1           2           3           4    +121.694
tors           3           4           5           6    +154.493
tors           4           5           6           7    +143.003
tors           5           6           7           8    +176.189
tors           6           7           8           9     +68.554
tors           7           8           9          10    -110.040
tors           8           9          10          11    -178.779
tors           9          10          11          12    +149.668
tors          11          12          13          14    +168.463
ENDCONSTRAINT
$end

$rem
JOBTYPE                   OPT
METHOD                    B3LYP
DFT_D                     d3_op
BASIS                     STO-3G
GEOM_OPT_MAX_CYCLES       100
GEOM_OPT_TOL_GRADIENT     300
GEOM_OPT_TOL_DISPLACEMENT 1200
GEOM_OPT_TOL_ENERGY       100
SYMMETRY                  False
THRESH                    12
SCF_CONVERGENCE           8
MAX_SUB_FILE_NUM          128
MEM_STATIC                400
MEM_TOTAL                 4000
$end
--------------------------------------------------------------

   15   -1510.1107549815      8.10E-09 Convergence criterion met
 Total energy in the final basis set = -1510.11075498
   14   -1510.1843264695      7.97E-09 Convergence criterion met
 Total energy in the final basis set = -1510.18432647
   14   -1510.2256856685      8.14E-09 Convergence criterion met
 Total energy in the final basis set = -1510.22568567
   14   -1510.2471857244      8.50E-09 Convergence criterion met
 Total energy in the final basis set = -1510.24718572
   14   -1510.2568874804      4.89E-09 Convergence criterion met
 Total energy in the final basis set = -1510.25688748
   13   -1510.2622366206      7.47E-09 Convergence criterion met
 Total energy in the final basis set = -1510.26223662
   13   -1510.2656387070      2.70E-09 Convergence criterion met
 Total energy in the final basis set = -1510.26563871
   13   -1510.2677444407      2.68E-09 Convergence criterion met
   10   -1510.2745186382      6.27E-09 Convergence criterion met
 Total energy in the final basis set = -1510.27451864
   10   -1510.2745585988      6.87E-09 Convergence criterion met
 Total energy in the final basis set = -1510.27455860
    9   -1510.2745750032      9.81E-09 Convergence criterion met
 Total energy in the final basis set = -1510.27457500
    9   -1510.2745821637      8.00E-09 Convergence criterion met
 Total energy in the final basis set = -1510.27458216
    9   -1510.2745844712      6.06E-09 Convergence criterion met
 Total energy in the final basis set = -1510.27458447
    9   -1510.2745861841      2.07E-09 Convergence criterion met
 Total energy in the final basis set = -1510.27458618

             Standard Nuclear Orientation (Angstroms)
    I     Atom           X                Y                Z
 ----------------------------------------------------------------
    1      O      -6.0664943029     0.2408929598     0.6308166565
    2      C      -4.9407768211     0.3247601298     0.0935654186
    3      C      -3.7885297585     1.3201678767     0.4691638752
    4      C      -2.4382210758     0.6039331112     0.8807555906
    5      C      -2.5169985586    -0.9649240099     0.9494075840
    6      O      -1.1929456697    -1.4653241238     0.7293815964
    7      C      -0.8722547382    -2.6595583293     1.5450119617
    8      C       0.5581377606    -3.0441694328     1.0419600780
    9      O       1.4827068380    -1.9765637991     1.4966868627
   10      C       1.9337715133    -1.2087253684     0.3697028792
   11      C       2.9294218374    -0.1166466049     0.8949725912
   12      C       4.0410010172     0.2791833989    -0.1498034265
   13      C       4.4392229301    -0.7963526668    -1.2181438468
   14      O       5.1405532233    -0.5976359059    -2.2348974879
   15      O      -4.5302007024    -0.4411117893    -1.0455787487
   16      O       4.0785431908    -2.0982803651    -0.7384490226
   17      O       1.4942397414    -1.3448395343    -0.7924786250
   18      C       4.4597341426    -3.1414050151    -1.7166140596
   19      C       2.1048723252     1.2435497239     0.9349531875
   20      C       2.9906452644     2.4124574438     1.5232506503
   21      C       3.8822284849     2.7849587527     0.2793372897
   22      C       3.4604167996     1.6474105551    -0.7289088317
   23      O       1.9967692723     1.5589962679    -0.5100077417
   24      H       3.3375807944    -0.4168805409     1.8750441773
   25      H       4.9787000376     0.4968620776     0.3970508887
   26      H       1.0998650487     1.1450842465     1.3876047962
   27      H       2.3566502591     3.2562545175     1.8383542740
   28      H       3.5867408410     2.0787432031     2.3879431981
   29      H       3.6103890034     3.7731934848    -0.1252403164
   30      H       4.9608484877     2.7763136325     0.5030601288
   31      H       3.6908214211     1.8326116972    -1.7960554004
   32      O      -3.5044140505    -1.6668199206     1.2570207673
   33      C      -5.5675602177    -1.4416169749    -1.3796546029
   34      C      -3.2967992346     2.1529933865    -0.7957575408
   35      C      -2.4070067567     3.3609657835    -0.2962941935
   36      C      -1.0705922023     2.6206610782     0.0827206472
   37      C      -1.4493221347     1.1260934674    -0.2507074584
   38      O      -2.3209347611     1.2471012415    -1.4405403208
   39      H      -4.1634597608     1.9747610100     1.2750922089
   40      H      -2.1013133259     0.9380823692     1.8807152093
   41      H      -6.5575062207    -0.9691903963    -1.5434965101
   42      H      -4.1024332605     2.4241361731    -1.5052593401
   43      H      -2.2521574305     4.0845807851    -1.1122812013
   44      H      -2.8606538708     3.8856513554     0.5599743763
   45      H      -0.2216712213     2.9419355785    -0.5424826782
   46      H      -0.7981816769     2.7562454320     1.1415184308
   47      H      -0.5973311492     0.4486143862    -0.4568251131
   48      H      -5.6653852206    -2.1990395990    -0.5747388991
   49      H      -5.2300064027    -1.9329017671    -2.3106718349
   50      H       3.5422371933    -3.5853465699    -2.1521167065
   51      H       5.0325094015    -3.9264063616    -1.1861529371
   52      H       5.0771403655    -2.6880575198    -2.5185102286
   53      H       0.8942774813    -4.0056617944     1.4832029410
   54      H       0.5661571767    -3.0890852906    -0.0681826121
   55      H      -1.5981659526    -3.4870843342     1.3787310697
   56      H      -0.8559990494    -2.4074220704     2.6282281894
 ----------------------------------------------------------------

    9   -1510.2745868248      2.16E-09 Convergence criterion met
 Total energy in the final basis set = -1510.27458682
 Final energy is   -1510.27458682484
 **  OPTIMIZATION CONVERGED  **

                    Orbital Energies (a.u.)
 --------------------------------------------------------------

 Alpha MOs
 -- Occupied --
-18.936 -18.929 -18.924 -18.920 -18.892 -18.882 -18.880 -18.878
-18.871 -18.860 -10.104 -10.103 -10.099 -10.086 -10.077 -10.071
-10.064 -10.063 -10.060 -10.053 -10.051 -10.048 -10.042 -10.041
-10.033 -10.029 -10.025 -10.023 -10.014 -10.011  -1.016  -1.012
 -1.005  -0.996  -0.974  -0.962  -0.942  -0.938  -0.930  -0.922
 -0.767  -0.756  -0.730  -0.720  -0.714  -0.704  -0.693  -0.661
 -0.649  -0.617  -0.597  -0.578  -0.548  -0.541  -0.537  -0.531
 -0.514  -0.510  -0.485  -0.479  -0.465  -0.460  -0.456  -0.436
 -0.433  -0.426  -0.419  -0.413  -0.410  -0.410  -0.403  -0.399
 -0.391  -0.382  -0.374  -0.363  -0.360  -0.358  -0.352  -0.346
 -0.345  -0.338  -0.334  -0.333  -0.324  -0.323  -0.317  -0.316
 -0.308  -0.305  -0.300  -0.296  -0.293  -0.290  -0.283  -0.273
 -0.269  -0.250  -0.247  -0.246  -0.239  -0.237  -0.225  -0.180
 -0.175  -0.168  -0.162  -0.161  -0.155  -0.153  -0.146  -0.138
 -0.135

          Ground-State Mulliken Net Atomic Charges

     Atom                 Charge (a.u.)
  ----------------------------------------
      1 O                    -0.216839
      2 C                     0.210927
      3 C                    -0.081427
      4 C                    -0.078113
      5 C                     0.218450
      6 O                    -0.181844
      7 C                    -0.045494
      8 C                    -0.051850
      9 O                    -0.176405
     10 C                     0.220533
     11 C                    -0.076894
     12 C                    -0.078713
     13 C                     0.214990
     14 O                    -0.214464
     15 O                    -0.168190
     16 O                    -0.170916
     17 O                    -0.211360
     18 C                    -0.135087
     19 C                     0.024282
     20 C                    -0.145574
     21 C                    -0.141736
     22 C                     0.025901
     23 O                    -0.187743
     24 H                     0.087419
     25 H                     0.085221
     26 H                     0.082385
     27 H                     0.077753
     28 H                     0.074128
     29 H                     0.078677
     30 H                     0.074463
     31 H                     0.090716
     32 O                    -0.206584
     33 C                    -0.128044
     34 C                     0.026738
     35 C                    -0.144622
     36 C                    -0.145457
     37 C                     0.022749
     38 O                    -0.184548
     39 H                     0.082183
     40 H                     0.080698
     41 H                     0.087190
     42 H                     0.081937
     43 H                     0.077225
     44 H                     0.071392
     45 H                     0.086145
     46 H                     0.066310
     47 H                     0.099938
     48 H                     0.089998
     49 H                     0.088727
     50 H                     0.088267
     51 H                     0.085728
     52 H                     0.103053
     53 H                     0.085292
     54 H                     0.107603
     55 H                     0.090314
     56 H                     0.084572
  ----------------------------------------
  Sum of atomic charges =    -0.000000

                    Cartesian Multipole Moments
 -----------------------------------------------------------------
    Charge (ESU x 10^10)
                 0.0000
    Dipole Moment (Debye)
         X       2.9045      Y      -0.0970      Z       2.5930
       Tot       3.8947
    Quadrupole Moments (Debye-Ang)
        XX    -169.3557     XY      -2.3317     YY    -143.6499
        XZ      11.0914     YZ       3.7597     ZZ    -162.1533

 Total job time:  67.12s(wall), 3197.05s(cpu)
        *  Thank you very much for using Q-Chem.  Have a nice day.  *
