 Q-Chem 5.0, Q-Chem, Inc., Pleasanton, CA (2017)
 Q-Chem 5.0.1 for Intel X86 EM64T Linux

User input:
--------------------------------------------------------------
$molecule
0  1
O 5.5350132612 -0.4006921078 -0.9728977968
C 4.3658498296 -0.3980719304 -0.5305155006
C 3.8458666129 -1.1033709158 0.768987551
C 2.6186791879 -0.3825686667 1.4574064409
C 2.4273277715 1.1063089622 1.0024094059
O 1.0265912629 1.4161656051 1.0287714765
C 0.8286402261 2.8752436087 0.8983858126
C -0.6955892003 3.1983861881 0.6219049282
O -1.7448462286 2.3583303878 1.2317781481
C -1.9303986479 1.0638582031 0.6016876863
C -3.4330879131 0.9067321537 0.1437778177
C -3.5346770716 0.166841647 -1.2525652775
C -2.1741673136 0.0535829245 -2.0260654736
O -1.8467069354 -0.830010856 -2.8452302397
O 3.2381728736 0.1070615511 -1.2642439152
O -1.3879406123 1.2298268161 -1.7545845347
O -1.1251562477 0.1109266077 0.6546482586
C 0.0068636559 1.0419580184 -2.2204977892
C -4.1547402806 -0.1630298541 1.0749740611
C -5.6955869715 -0.2070717226 0.7232421753
C -5.6856738449 -1.0442530714 -0.6107275485
C -4.1353434252 -1.2386889158 -0.8270267921
O -3.6290425687 -1.4445525702 0.5501634767
H -3.9303353562 1.8912784475 0.1452237225
H -4.2423152998 0.6993752807 -1.9159500955
H -3.9215837272 -0.061809821 2.1527925959
H -6.2587178782 -0.718217388 1.5200110462
H -6.1150295001 0.8026951724 0.5870105698
H -6.1795318608 -2.0199186819 -0.4766660552
H -6.1637520647 -0.5165038177 -1.4515166101
H -3.837338018 -2.0777076405 -1.4857172071
O 3.3219225048 1.9493603606 0.7724263825
C 3.6936617661 0.7517215373 -2.5146956513
C 3.1465082077 -2.4715646693 0.3390182147
C 2.7970980418 -3.3067499512 1.6357310985
C 1.5019564623 -2.5675819313 2.1394331912
C 1.4216547802 -1.3717010469 1.1148082651
O 1.8326506196 -2.0096330651 -0.1587916744
H 4.6964559564 -1.2569633853 1.4552888201
H 2.772411654 -0.3469234725 2.5528351408
H 4.3958213803 0.1029991554 -3.076019476
H 3.6888033708 -3.0321808499 -0.4474313964
H 2.5927872311 -4.357265672 1.374820936
H 3.6155761705 -3.2804225125 2.3730943684
H 0.611415557 -3.209162145 2.0437751655
H 1.5816990495 -2.225996466 3.1837707405
H 0.4352953295 -0.8686604634 1.0072766591
H 4.1961344352 1.7190655843 -2.3068293245
H 2.7861866285 0.931245101 -3.1193436697
H 0.6530930464 0.7918316723 -1.3517188667
H 0.3432873151 1.9920790935 -2.6764956847
H 0.0470215493 0.2204633519 -2.9628686152
H -0.8924738011 4.2190720213 1.0111249536
H -0.8504808194 3.2143514908 -0.4795521005
H 1.4407195464 3.2886421107 0.0673726644
H 1.1569919526 3.3724500136 1.8374030883
$end

$rem
JOBTYPE                   OPT
METHOD                    B3LYP
DFT_D                     d3_op
BASIS                     STO-3G
GEOM_OPT_MAX_CYCLES       100
GEOM_OPT_TOL_GRADIENT     300
GEOM_OPT_TOL_DISPLACEMENT 1200
GEOM_OPT_TOL_ENERGY       100
SYMMETRY                  False
THRESH                    12
SCF_CONVERGENCE           8
MAX_SUB_FILE_NUM          128
MEM_STATIC                400
MEM_TOTAL                 4000
$end
--------------------------------------------------------------

   16   -1510.2650271386      5.07E-09 Convergence criterion met
 Total energy in the final basis set = -1510.26502714
   15   -1510.2674477181      2.86E-09 Convergence criterion met
 Total energy in the final basis set = -1510.26744772
   14   -1510.2692650639      8.21E-09 Convergence criterion met
 Total energy in the final basis set = -1510.26926506
   14   -1510.2704450028      3.49E-09 Convergence criterion met
 Total energy in the final basis set = -1510.27044500
   14   -1510.2730655440      3.77E-09 Convergence criterion met
 Total energy in the final basis set = -1510.27306554
   14   -1510.2752546378      4.94E-09 Convergence criterion met
 Total energy in the final basis set = -1510.27525464
   13   -1510.2771960344      8.46E-09 Convergence criterion met
 Total energy in the final basis set = -1510.27719603
   13   -1510.2793171517      7.42E-09 Convergence criterion met
   11   -1510.2984090780      7.99E-09 Convergence criterion met
 Total energy in the final basis set = -1510.29840908
   11   -1510.2984249217      3.95E-09 Convergence criterion met
 Total energy in the final basis set = -1510.29842492
   11   -1510.2984336967      8.58E-09 Convergence criterion met
 Total energy in the final basis set = -1510.29843370
   11   -1510.2984306221      4.32E-09 Convergence criterion met
 Total energy in the final basis set = -1510.29843062
   11   -1510.2984220612      6.41E-09 Convergence criterion met
 Total energy in the final basis set = -1510.29842206
   11   -1510.2984266031      1.87E-09 Convergence criterion met
 Total energy in the final basis set = -1510.29842660

             Standard Nuclear Orientation (Angstroms)
    I     Atom           X                Y                Z
 ----------------------------------------------------------------
    1      O      -5.0680097015     1.1827873801     0.2032879624
    2      C      -4.0836771572     0.4713691163     0.4997311902
    3      C      -3.6014448604    -0.8226087073    -0.2601544182
    4      C      -2.4457759918    -0.5683548650    -1.3145295916
    5      C      -1.9868252971     0.9256635847    -1.3800628513
    6      O      -1.0188843477     1.0579189229    -2.4215556646
    7      C      -0.4274467098     2.4178598561    -2.4347156112
    8      C       0.3867379583     2.8076701527    -1.1354414000
    9      O       1.8042650961     2.3894112456    -1.0594736993
   10      C       1.9518157385     0.9688869835    -0.9406709646
   11      C       3.4004158658     0.6594898105    -0.4358149447
   12      C       3.4105245769     0.0285324921     1.0231633536
   13      C       1.9877100697    -0.1890749478     1.6644778654
   14      O       1.5960884302    -1.2122371394     2.2655490119
   15      O      -3.2927000981     0.6418069026     1.6841997222
   16      O       1.2059373920     0.9908797531     1.4802242245
   17      O       1.0817845371     0.1307983514    -1.2560691943
   18      C      -0.1608907255     0.7982624663     2.0372972736
   19      C       4.0707175695    -0.5191262278    -1.2656908670
   20      C       5.6199880574    -0.5224982138    -0.9558476672
   21      C       5.6387720630    -1.1397285156     0.4925203862
   22      C       4.0985008145    -1.3703552431     0.7451538633
   23      O       3.5766404201    -1.7403449630    -0.5918858091
   24      H       3.9937811596     1.5892210739    -0.4753910602
   25      H       4.0103877899     0.6526548397     1.7114597968
   26      H       3.8011190697    -0.5348323762    -2.3395795551
   27      H       6.1549171757    -1.1627274125    -1.6752302290
   28      H       6.0520449618     0.4901591888    -0.9937422953
   29      H       6.1826863785    -2.0973778198     0.5155858173
   30      H       6.0848905419    -0.4623970188     1.2381554664
   31      H       3.8358369284    -2.1458765687     1.4910629731
   32      O      -2.3651492505     1.8651790903    -0.6419342989
   33      C      -3.6963834025     1.8834260893     2.3774287566
   34      C      -2.8980032042    -1.8731201245     0.6979584316
   35      C      -2.8149763584    -3.2620339461    -0.0494120687
   36      C      -1.6460679746    -2.9962369126    -1.0715701343
   37      C      -1.2854947889    -1.4988355226    -0.7435280739
   38      O      -1.4856746451    -1.4254079187     0.7217658873
   39      H      -4.4865117575    -1.2572000365    -0.7577066410
   40      H      -2.7401274798    -0.8880248834    -2.3304333920
   41      H      -4.7798391501     1.8887935134     2.6148891436
   42      H      -3.3103646176    -1.9095594339     1.7243201799
   43      H      -2.5573595206    -4.0646950639     0.6597746682
   44      H      -3.7640780237    -3.5199979279    -0.5460433421
   45      H      -0.7807584157    -3.6486976975    -0.8734621620
   46      H      -1.9567921841    -3.1300528324    -2.1200390657
   47      H      -0.2644320201    -1.1452318532    -1.0086105420
   48      H      -3.4660684537     2.7770120987     1.7614200104
   49      H      -3.1098445878     1.9174485749     3.3139488487
   50      H      -0.7153667325    -0.0332533739     1.5244040912
   51      H      -0.6847795752     1.7573566546     1.8749139018
   52      H      -0.1138645498     0.5893401967     3.1244767361
   53      H       0.4302197624     3.9147489701    -1.0896523032
   54      H      -0.1714698271     2.4430181913    -0.2487270691
   55      H      -1.2286326769     3.1787699348    -2.5631514557
   56      H       0.2336840725     2.4383767261    -3.3246401049
 ----------------------------------------------------------------

    9   -1510.2984270689      3.48E-09 Convergence criterion met
 Total energy in the final basis set = -1510.29842707
 Final energy is   -1510.29842706888
 **  OPTIMIZATION CONVERGED  **

                    Orbital Energies (a.u.)
 --------------------------------------------------------------

 Alpha MOs
 -- Occupied --
-18.942 -18.933 -18.923 -18.919 -18.895 -18.885 -18.882 -18.876
-18.867 -18.856 -10.105 -10.105 -10.091 -10.088 -10.079 -10.073
-10.058 -10.058 -10.054 -10.054 -10.046 -10.035 -10.035 -10.034
-10.031 -10.028 -10.019 -10.018 -10.016 -10.013  -1.020  -1.010
 -0.999  -0.996  -0.971  -0.968  -0.942  -0.939  -0.926  -0.922
 -0.761  -0.759  -0.726  -0.719  -0.711  -0.703  -0.695  -0.651
 -0.643  -0.622  -0.595  -0.580  -0.545  -0.540  -0.535  -0.533
 -0.508  -0.507  -0.478  -0.476  -0.458  -0.456  -0.447  -0.443
 -0.432  -0.428  -0.420  -0.415  -0.406  -0.404  -0.398  -0.394
 -0.386  -0.378  -0.372  -0.368  -0.362  -0.356  -0.347  -0.346
 -0.341  -0.336  -0.332  -0.329  -0.326  -0.324  -0.317  -0.311
 -0.309  -0.302  -0.300  -0.296  -0.286  -0.285  -0.275  -0.273
 -0.270  -0.257  -0.249  -0.243  -0.241  -0.232  -0.225  -0.195
 -0.173  -0.165  -0.162  -0.157  -0.150  -0.145  -0.144  -0.140
 -0.137

          Ground-State Mulliken Net Atomic Charges

     Atom                 Charge (a.u.)
  ----------------------------------------
      1 O                    -0.221866
      2 C                     0.213572
      3 C                    -0.082644
      4 C                    -0.079475
      5 C                     0.215927
      6 O                    -0.160748
      7 C                    -0.048968
      8 C                    -0.052336
      9 O                    -0.171915
     10 C                     0.223292
     11 C                    -0.080168
     12 C                    -0.078641
     13 C                     0.209813
     14 O                    -0.208537
     15 O                    -0.172632
     16 O                    -0.179641
     17 O                    -0.217572
     18 C                    -0.150775
     19 C                     0.025252
     20 C                    -0.143882
     21 C                    -0.144249
     22 C                     0.023695
     23 O                    -0.188351
     24 H                     0.085502
     25 H                     0.083494
     26 H                     0.082414
     27 H                     0.077499
     28 H                     0.072974
     29 H                     0.077894
     30 H                     0.072962
     31 H                     0.091577
     32 O                    -0.215430
     33 C                    -0.127992
     34 C                     0.028885
     35 C                    -0.143831
     36 C                    -0.143271
     37 C                     0.013746
     38 O                    -0.186895
     39 H                     0.083331
     40 H                     0.087068
     41 H                     0.087287
     42 H                     0.088232
     43 H                     0.078836
     44 H                     0.072784
     45 H                     0.081908
     46 H                     0.073357
     47 H                     0.119164
     48 H                     0.089934
     49 H                     0.086093
     50 H                     0.123478
     51 H                     0.077399
     52 H                     0.077880
     53 H                     0.090886
     54 H                     0.099721
     55 H                     0.090426
     56 H                     0.093533
  ----------------------------------------
  Sum of atomic charges =     0.000000

                    Cartesian Multipole Moments
 -----------------------------------------------------------------
    Charge (ESU x 10^10)
                 0.0000
    Dipole Moment (Debye)
         X       1.6280      Y       1.1598      Z      -0.8779
       Tot       2.1832
    Quadrupole Moments (Debye-Ang)
        XX    -154.3709     XY       9.5743     YY    -156.5101
        XZ      -1.2182     YZ       1.2068     ZZ    -154.9323

 Total job time:  132.43s(wall), 6321.14s(cpu)
        *  Thank you very much for using Q-Chem.  Have a nice day.  *
