 Q-Chem 5.0, Q-Chem, Inc., Pleasanton, CA (2017)
 Q-Chem 5.0.1 for Intel X86 EM64T Linux

User input:
--------------------------------------------------------------
$molecule
0  1
O -3.94934 -3.66094 2.70899
C -3.26408 -4.56952 2.26188
C -3.36658 -6.02376 2.66595
C -2.99494 -7.07501 1.60737
C -2.39267 -6.5536 0.32149
O -1.5074 -7.46514 -0.17933
C -1.10806 -7.18198 -1.52455
C 0.08293 -8.05172 -1.91341
O -0.01907 -9.33467 -1.27584
C 0.29289 -9.35648 0.04376
C 1.39042 -10.34029 0.37271
C 2.39314 -9.86098 1.43247
C 1.9659 -8.65896 2.25058
O 2.33123 -8.41143 3.39068
O -2.09427 -4.21023 1.6651
O 1.5812 -7.57976 1.50977
O -0.48631 -9.17719 0.92364
C 1.30518 -6.30617 1.97403
C 0.88689 -11.64604 1.02456
C 1.90207 -12.76254 0.7893
C 3.03448 -12.30567 1.686
C 2.37934 -11.0935 2.36006
O 1.01213 -11.42234 2.40673
H 1.90631 -10.60292 -0.58008
H 3.39749 -9.63491 1.01191
H -0.1193 -11.95555 0.66608
H 1.46184 -13.6919 1.2172
H 2.1813 -12.94633 -0.27045
H 3.24174 -13.11096 2.42526
H 3.9708 -12.01757 1.16063
H 2.86476 -10.8963 3.341
O -2.94124 -5.69734 -0.3653
C -1.73395 -2.91655 1.34985
C -2.41579 -6.43598 3.82239
C -3.16435 -7.40974 4.71194
C -3.33678 -8.54968 3.73188
C -2.38621 -8.09656 2.58865
O -1.44965 -7.29091 3.2426
H -4.42187 -6.13907 3.01179
H -3.95191 -7.50722 1.2377
H -1.6805 -2.29748 2.27071
H -2.01235 -5.58397 4.41192
H -2.45076 -7.70963 5.51357
H -4.1066 -7.04875 5.17779
H -3.00744 -9.48475 4.23854
H -4.36785 -8.6775 3.33523
H -2.14576 -9.05757 2.16018
H -2.46942 -2.4777 0.64229
H -0.73494 -2.92596 0.86777
H 0.27598 -6.02508 1.67326
H 2.01259 -5.58937 1.50919
H 1.38413 -6.22374 3.07868
H 0.13905 -8.1481 -3.01826
H 1.02681 -7.56596 -1.57308
H -0.83886 -6.1147 -1.69875
H -1.96546 -7.45422 -2.17993
$end

$opt
CONSTRAINT
tors           1           2           3           4    +150.422
tors           3           4           5           6    +148.008
tors           4           5           6           7    +167.577
tors           5           6           7           8    +168.150
tors           6           7           8           9     +34.069
tors           7           8           9          10     -75.968
tors           8           9          10          11    -123.544
tors           9          10          11          12    +141.373
tors          11          12          13          14    +152.281
ENDCONSTRAINT
$end

$rem
JOBTYPE                   OPT
METHOD                    B3LYP
DFT_D                     d3_op
BASIS                     STO-3G
GEOM_OPT_MAX_CYCLES       100
GEOM_OPT_TOL_GRADIENT     300
GEOM_OPT_TOL_DISPLACEMENT 1200
GEOM_OPT_TOL_ENERGY       100
SYMMETRY                  False
THRESH                    12
SCF_CONVERGENCE           8
MAX_SUB_FILE_NUM          128
MEM_STATIC                400
MEM_TOTAL                 4000
$end
--------------------------------------------------------------

   15   -1510.0653443930      7.55E-09 Convergence criterion met
 Total energy in the final basis set = -1510.06534439
   15   -1510.1424840994      2.30E-09 Convergence criterion met
 Total energy in the final basis set = -1510.14248410
   15   -1510.1923480387      1.51E-09 Convergence criterion met
 Total energy in the final basis set = -1510.19234804
   14   -1510.2194580783      6.21E-09 Convergence criterion met
 Total energy in the final basis set = -1510.21945808
   14   -1510.2341172160      5.59E-09 Convergence criterion met
 Total energy in the final basis set = -1510.23411722
   14   -1510.2428623208      7.28E-09 Convergence criterion met
 Total energy in the final basis set = -1510.24286232
   13   -1510.2484898804      4.36E-09 Convergence criterion met
 Total energy in the final basis set = -1510.24848988
   13   -1510.2521738438      4.60E-09 Convergence criterion met
    9   -1510.2651989306      6.30E-09 Convergence criterion met
 Total energy in the final basis set = -1510.26519893
    9   -1510.2652000972      8.54E-09 Convergence criterion met
 Total energy in the final basis set = -1510.26520010
    9   -1510.2652018047      9.81E-09 Convergence criterion met
 Total energy in the final basis set = -1510.26520180
    9   -1510.2652042228      6.90E-09 Convergence criterion met
 Total energy in the final basis set = -1510.26520422
    9   -1510.2652056329      5.86E-09 Convergence criterion met
 Total energy in the final basis set = -1510.26520563
    9   -1510.2652068714      5.23E-09 Convergence criterion met
 Total energy in the final basis set = -1510.26520687

             Standard Nuclear Orientation (Angstroms)
    I     Atom           X                Y                Z
 ----------------------------------------------------------------
    1      O       5.5350132612    -0.4006921078    -0.9728977968
    2      C       4.3658498296    -0.3980719304    -0.5305155006
    3      C       3.8458666129    -1.1033709158     0.7689875510
    4      C       2.6186791879    -0.3825686667     1.4574064409
    5      C       2.4273277715     1.1063089622     1.0024094059
    6      O       1.0265912629     1.4161656051     1.0287714765
    7      C       0.8286402261     2.8752436087     0.8983858126
    8      C      -0.6955892003     3.1983861881     0.6219049282
    9      O      -1.7448462286     2.3583303878     1.2317781481
   10      C      -1.9303986479     1.0638582031     0.6016876863
   11      C      -3.4330879131     0.9067321537     0.1437778177
   12      C      -3.5346770716     0.1668416470    -1.2525652775
   13      C      -2.1741673136     0.0535829245    -2.0260654736
   14      O      -1.8467069354    -0.8300108560    -2.8452302397
   15      O       3.2381728736     0.1070615511    -1.2642439152
   16      O      -1.3879406123     1.2298268161    -1.7545845347
   17      O      -1.1251562477     0.1109266077     0.6546482586
   18      C       0.0068636559     1.0419580184    -2.2204977892
   19      C      -4.1547402806    -0.1630298541     1.0749740611
   20      C      -5.6955869715    -0.2070717226     0.7232421753
   21      C      -5.6856738449    -1.0442530714    -0.6107275485
   22      C      -4.1353434252    -1.2386889158    -0.8270267921
   23      O      -3.6290425687    -1.4445525702     0.5501634767
   24      H      -3.9303353562     1.8912784475     0.1452237225
   25      H      -4.2423152998     0.6993752807    -1.9159500955
   26      H      -3.9215837272    -0.0618098210     2.1527925959
   27      H      -6.2587178782    -0.7182173880     1.5200110462
   28      H      -6.1150295001     0.8026951724     0.5870105698
   29      H      -6.1795318608    -2.0199186819    -0.4766660552
   30      H      -6.1637520647    -0.5165038177    -1.4515166101
   31      H      -3.8373380180    -2.0777076405    -1.4857172071
   32      O       3.3219225048     1.9493603606     0.7724263825
   33      C       3.6936617661     0.7517215373    -2.5146956513
   34      C       3.1465082077    -2.4715646693     0.3390182147
   35      C       2.7970980418    -3.3067499512     1.6357310985
   36      C       1.5019564623    -2.5675819313     2.1394331912
   37      C       1.4216547802    -1.3717010469     1.1148082651
   38      O       1.8326506196    -2.0096330651    -0.1587916744
   39      H       4.6964559564    -1.2569633853     1.4552888201
   40      H       2.7724116540    -0.3469234725     2.5528351408
   41      H       4.3958213803     0.1029991554    -3.0760194760
   42      H       3.6888033708    -3.0321808499    -0.4474313964
   43      H       2.5927872311    -4.3572656720     1.3748209360
   44      H       3.6155761705    -3.2804225125     2.3730943684
   45      H       0.6114155570    -3.2091621450     2.0437751655
   46      H       1.5816990495    -2.2259964660     3.1837707405
   47      H       0.4352953295    -0.8686604634     1.0072766591
   48      H       4.1961344352     1.7190655843    -2.3068293245
   49      H       2.7861866285     0.9312451010    -3.1193436697
   50      H       0.6530930464     0.7918316723    -1.3517188667
   51      H       0.3432873151     1.9920790935    -2.6764956847
   52      H       0.0470215493     0.2204633519    -2.9628686152
   53      H      -0.8924738011     4.2190720213     1.0111249536
   54      H      -0.8504808194     3.2143514908    -0.4795521005
   55      H       1.4407195464     3.2886421107     0.0673726644
   56      H       1.1569919526     3.3724500136     1.8374030883
 ----------------------------------------------------------------

    9   -1510.2652065217      4.09E-09 Convergence criterion met
 Total energy in the final basis set = -1510.26520652
 Final energy is   -1510.26520652166
 **  OPTIMIZATION CONVERGED  **

                    Orbital Energies (a.u.)
 --------------------------------------------------------------

 Alpha MOs
 -- Occupied --
-18.938 -18.931 -18.926 -18.911 -18.892 -18.890 -18.887 -18.873
-18.867 -18.865 -10.109 -10.107 -10.096 -10.090 -10.077 -10.071
-10.063 -10.061 -10.058 -10.058 -10.050 -10.042 -10.036 -10.033
-10.029 -10.027 -10.023 -10.022 -10.010 -10.005  -1.018  -1.011
 -1.002  -0.998  -0.972  -0.956  -0.943  -0.938  -0.932  -0.926
 -0.765  -0.753  -0.726  -0.717  -0.710  -0.704  -0.689  -0.661
 -0.653  -0.614  -0.597  -0.576  -0.548  -0.540  -0.533  -0.526
 -0.511  -0.505  -0.485  -0.478  -0.461  -0.460  -0.451  -0.435
 -0.433  -0.429  -0.423  -0.415  -0.409  -0.407  -0.406  -0.397
 -0.393  -0.380  -0.375  -0.370  -0.362  -0.355  -0.352  -0.349
 -0.347  -0.340  -0.334  -0.333  -0.327  -0.315  -0.311  -0.308
 -0.306  -0.302  -0.299  -0.294  -0.288  -0.286  -0.282  -0.273
 -0.267  -0.258  -0.249  -0.242  -0.237  -0.234  -0.219  -0.181
 -0.174  -0.168  -0.165  -0.161  -0.156  -0.148  -0.144  -0.141
 -0.130

          Ground-State Mulliken Net Atomic Charges

     Atom                 Charge (a.u.)
  ----------------------------------------
      1 O                    -0.215712
      2 C                     0.212246
      3 C                    -0.079208
      4 C                    -0.079505
      5 C                     0.214189
      6 O                    -0.167717
      7 C                    -0.051945
      8 C                    -0.045564
      9 O                    -0.190737
     10 C                     0.234340
     11 C                    -0.079735
     12 C                    -0.079521
     13 C                     0.218483
     14 O                    -0.203164
     15 O                    -0.169561
     16 O                    -0.176878
     17 O                    -0.190003
     18 C                    -0.139722
     19 C                     0.025082
     20 C                    -0.144621
     21 C                    -0.142687
     22 C                     0.025075
     23 O                    -0.185709
     24 H                     0.084538
     25 H                     0.085281
     26 H                     0.084038
     27 H                     0.078831
     28 H                     0.073837
     29 H                     0.079104
     30 H                     0.073344
     31 H                     0.091653
     32 O                    -0.221646
     33 C                    -0.128730
     34 C                     0.025069
     35 C                    -0.145098
     36 C                    -0.143481
     37 C                     0.008510
     38 O                    -0.191013
     39 H                     0.084221
     40 H                     0.082045
     41 H                     0.092106
     42 H                     0.079505
     43 H                     0.076045
     44 H                     0.071003
     45 H                     0.077955
     46 H                     0.069764
     47 H                     0.119441
     48 H                     0.087224
     49 H                     0.085900
     50 H                     0.103697
     51 H                     0.081399
     52 H                     0.103336
     53 H                     0.088426
     54 H                     0.084873
     55 H                     0.089992
     56 H                     0.081407
  ----------------------------------------
  Sum of atomic charges =    -0.000000

                    Cartesian Multipole Moments
 -----------------------------------------------------------------
    Charge (ESU x 10^10)
                -0.0000
    Dipole Moment (Debye)
         X      -3.0650      Y       2.2932      Z       0.2129
       Tot       3.8338
    Quadrupole Moments (Debye-Ang)
        XX    -160.0710     XY      -6.1811     YY    -154.8692
        XZ       3.6063     YZ      -6.2117     ZZ    -155.2644

 Total job time:  104.28s(wall), 4974.41s(cpu)
        *  Thank you very much for using Q-Chem.  Have a nice day.  *
