 Q-Chem 5.0, Q-Chem, Inc., Pleasanton, CA (2017)
 Q-Chem 5.0.1 for Intel X86 EM64T Linux

User input:
--------------------------------------------------------------
$molecule
0  1
O 2.2251377609 0.1849942676 3.3902082101
C 2.1847766253 0.0364869903 2.1463613486
C 3.2129970636 0.6799088666 1.1511046329
C 3.7729013303 -0.1297599176 -0.1034302858
C 3.243353561 -1.564854097 -0.4685858066
O 1.8397813252 -1.5339035097 -0.7404537776
C 1.4713823232 -2.6219556425 -1.68741994
C -0.0941168283 -2.5829273815 -1.7426268828
O -0.4609230688 -1.1463593732 -1.7153598958
C -1.4050732533 -0.8810360402 -0.6853439293
C -1.9961414413 0.5443437859 -0.9145144406
C -3.4815399596 0.6933257343 -0.4036807189
C -4.1897481938 -0.6556510026 -0.0260431335
O -4.8515490587 -0.8970400783 1.0052964034
O 1.0982390083 -0.5705993493 1.4576711766
O -4.0915791115 -1.5441905059 -1.1489684517
O -1.7121434546 -1.6930502551 0.2210172141
C -4.7204278295 -2.8423480378 -0.8202373224
C -1.2403996356 1.5416248522 0.0702390926
C -1.6345725967 3.0268975568 -0.2897106532
C -3.0864232798 3.1161280434 0.3156433014
C -3.2797162675 1.6438242593 0.8500014796
O -1.9316517788 1.289301912 1.3557975308
H -1.8722322149 0.8210630501 -1.9751386963
H -4.0992612697 1.1854865384 -1.1777409077
H -0.1539686846 1.3340087167 0.1515088762
H -0.946936968 3.7373959669 0.1958267461
H -1.6145433157 3.2051016301 -1.3767394204
H -3.1317754312 3.836644458 1.1478973085
H -3.8453138385 3.392434962 -0.4338815591
H -4.0413989614 1.5077424514 1.6424451947
O 3.9662601295 -2.5734167287 -0.6372177024
C 0.0925192568 -1.062836813 2.4337066803
C 2.5688749043 1.9489168059 0.431951328
C 3.7337706228 2.9117079689 -0.0247628211
C 4.3084038092 2.122989953 -1.2577511479
C 3.3561982549 0.863866803 -1.2848243987
O 2.0502502119 1.4009567214 -0.8398400863
H 4.0652421805 0.9968162115 1.7786008724
H 4.8708265396 -0.2214046091 -0.0253850006
H -0.2668136341 -0.2431066131 3.0869400963
H 1.7575433058 2.4361514617 1.0067280489
H 3.327869643 3.8910008569 -0.3248381814
H 4.4804104891 3.0662080312 0.7700716997
H 4.207197546 2.7003685612 -2.1906110419
H 5.3657862482 1.8409355554 -1.1306268367
H 3.2531418998 0.3771751697 -2.2739887998
H 0.5097924509 -1.8715092932 3.0664454853
H -0.7434014208 -1.4436111885 1.8102375105
H -4.6725706577 -3.4494935965 -1.7429303295
H -5.7776539065 -2.7192718832 -0.5085881803
H -4.1705572255 -3.3598119458 -0.0072967068
H -0.4761400534 -3.0397617252 -2.6800042507
H -0.5461659647 -3.0806830448 -0.857619925
H 1.8429349552 -3.6126318695 -1.3456095131
H 1.9043662916 -2.4103171426 -2.6894730664
$end

$rem
JOBTYPE                   OPT
METHOD                    B3LYP
DFT_D                     d3_op
BASIS                     STO-3G
GEOM_OPT_MAX_CYCLES       100
GEOM_OPT_TOL_GRADIENT     300
GEOM_OPT_TOL_DISPLACEMENT 1200
GEOM_OPT_TOL_ENERGY       100
SYMMETRY                  False
THRESH                    12
SCF_CONVERGENCE           8
MAX_SUB_FILE_NUM          128
MEM_STATIC                400
MEM_TOTAL                 4000
$end
--------------------------------------------------------------

   16   -1510.2795515806      7.69E-09 Convergence criterion met
 Total energy in the final basis set = -1510.27955158
   14   -1510.2838818776      8.41E-09 Convergence criterion met
 Total energy in the final basis set = -1510.28388188
   14   -1510.2894552566      5.17E-09 Convergence criterion met
 Total energy in the final basis set = -1510.28945526
   15   -1510.2810235157      5.16E-09 Convergence criterion met
 Total energy in the final basis set = -1510.28102352
   14   -1510.2882221977      7.30E-09 Convergence criterion met
 Total energy in the final basis set = -1510.28822220
   15   -1510.2262201580      5.64E-09 Convergence criterion met
 Total energy in the final basis set = -1510.22622016
   15   -1510.2911820334      5.38E-09 Convergence criterion met
 Total energy in the final basis set = -1510.29118203
   14   -1510.2912626942      7.12E-09 Convergence criterion met
   12   -1510.3019890195      3.15E-09 Convergence criterion met
 Total energy in the final basis set = -1510.30198902
   11   -1510.3019964718      7.37E-09 Convergence criterion met
 Total energy in the final basis set = -1510.30199647
   11   -1510.3019966080      5.38E-09 Convergence criterion met
 Total energy in the final basis set = -1510.30199661
   10   -1510.3019981710      8.36E-09 Convergence criterion met
 Total energy in the final basis set = -1510.30199817
   11   -1510.3019994355      5.34E-09 Convergence criterion met
 Total energy in the final basis set = -1510.30199944
   11   -1510.3019995163      2.69E-09 Convergence criterion met
 Total energy in the final basis set = -1510.30199952

             Standard Nuclear Orientation (Angstroms)
    I     Atom           X                Y                Z
 ----------------------------------------------------------------
    1      O       2.2077323240    -0.4292102170     3.3111472694
    2      C       2.0174604289     0.0690557837     2.1790310144
    3      C       3.1327451673     0.5109012771     1.1614860162
    4      C       3.2958972464    -0.4333676888    -0.1021128081
    5      C       2.2927655149    -1.6401818548    -0.1252759276
    6      O       2.1936554088    -2.1035696368    -1.4745810290
    7      C       1.3345102638    -3.3053926377    -1.5864204055
    8      C      -0.1666549057    -3.0562250623    -1.1945774027
    9      O      -0.5953790182    -1.7306436384    -1.7061869347
   10      C      -1.3672646209    -1.0528723927    -0.7081543301
   11      C      -1.8314270629     0.3257368548    -1.2653515935
   12      C      -3.2143119803     0.8052823622    -0.6515820576
   13      C      -3.7738969379    -0.1406130835     0.4733995295
   14      O      -3.8049436104     0.0769486399     1.7028047385
   15      O       0.7484756763     0.4145568274     1.6309619145
   16      O      -4.3424484134    -1.2976647390    -0.1590848696
   17      O      -1.6213256682    -1.5463094392     0.4174117812
   18      C      -4.7983650948    -2.2561232477     0.8718720367
   19      C      -0.8758982598     1.5298814257    -0.8274903570
   20      C      -1.1986939421     2.7497576957    -1.7808460180
   21      C      -2.5875565851     3.2303998198    -1.2173003985
   22      C      -2.8043632937     2.2052328762    -0.0377877554
   23      O      -1.4370246563     1.9580349097     0.4708835758
   24      H      -1.8803191136     0.2432464716    -2.3652529335
   25      H      -3.9794558564     0.8990896426    -1.4430881528
   26      H       0.2141625658     1.2960585581    -0.7288062180
   27      H      -0.4267026791     3.5279450419    -1.6714071497
   28      H      -1.2492434965     2.4514355882    -2.8400870138
   29      H      -2.5343372491     4.2602213661    -0.8297395104
   30      H      -3.3932232222     3.1765848258    -1.9669862705
   31      H      -3.4656712426     2.5451801074     0.7824755655
   32      O       1.7012672622    -2.1537914347     0.8491582306
   33      C      -0.3530315595     0.0347822475     2.5505531873
   34      C       2.7976106098     1.8925151957     0.4517391730
   35      C       4.1279520946     2.4678347882    -0.1760498201
   36      C       4.3157590781     1.5199641515    -1.4194941992
   37      C       3.0505217351     0.5874384066    -1.2901972762
   38      O       2.0177202901     1.4955658494    -0.7446190516
   39      H       4.0822027727     0.5692453713     1.7215949148
   40      H       4.3182337364    -0.8529810074    -0.1513327261
   41      H      -0.9008699445     0.9525460511     2.8376036660
   42      H       2.2145922148     2.6014398668     1.0703432895
   43      H       3.9860232515     3.5154813503    -0.4858362987
   44      H       4.9728436263     2.4183857421     0.5289998171
   45      H       4.2831840282     2.0831829048    -2.3656809601
   46      H       5.2563401720     0.9477920768    -1.3812843542
   47      H       2.6996610641     0.1127823835    -2.2267508491
   48      H       0.0644152938    -0.4678241834     3.4451122154
   49      H      -1.0336815132    -0.6390398248     1.9867887046
   50      H      -5.2560996905    -3.1017188762     0.3261306321
   51      H      -5.5482614003    -1.8033759328     1.5522778346
   52      H      -3.9465727315    -2.6240939232     1.4802181405
   53      H      -0.7978475389    -3.8490685920    -1.6514464074
   54      H      -0.3029302999    -3.0683610951    -0.0925765607
   55      H       1.7291207498    -4.1346668885    -0.9583228719
   56      H       1.4084013590    -3.5964430190    -2.6534618603
 ----------------------------------------------------------------

    9   -1510.3020009392      5.52E-09 Convergence criterion met
 Total energy in the final basis set = -1510.30200094
 Final energy is   -1510.30200093921
 **  OPTIMIZATION CONVERGED  **

                    Orbital Energies (a.u.)
 --------------------------------------------------------------

 Alpha MOs
 -- Occupied --
-18.944 -18.939 -18.918 -18.909 -18.903 -18.887 -18.883 -18.872
-18.861 -18.852 -10.108 -10.104 -10.087 -10.083 -10.083 -10.070
-10.067 -10.064 -10.053 -10.046 -10.043 -10.033 -10.032 -10.031
-10.027 -10.025 -10.023 -10.020 -10.009 -10.005  -1.024  -1.014
 -0.997  -0.990  -0.979  -0.956  -0.948  -0.939  -0.923  -0.914
 -0.767  -0.754  -0.730  -0.719  -0.711  -0.704  -0.689  -0.652
 -0.636  -0.618  -0.594  -0.576  -0.549  -0.541  -0.534  -0.527
 -0.511  -0.502  -0.481  -0.466  -0.464  -0.453  -0.443  -0.441
 -0.436  -0.434  -0.420  -0.413  -0.405  -0.401  -0.399  -0.397
 -0.390  -0.381  -0.369  -0.364  -0.357  -0.348  -0.347  -0.342
 -0.339  -0.335  -0.332  -0.329  -0.325  -0.320  -0.318  -0.315
 -0.308  -0.301  -0.297  -0.293  -0.290  -0.284  -0.274  -0.272
 -0.267  -0.258  -0.249  -0.242  -0.236  -0.226  -0.215  -0.188
 -0.179  -0.165  -0.162  -0.161  -0.154  -0.148  -0.140  -0.136
 -0.130

          Ground-State Mulliken Net Atomic Charges

     Atom                 Charge (a.u.)
  ----------------------------------------
      1 O                    -0.220261
      2 C                     0.211827
      3 C                    -0.081362
      4 C                    -0.077940
      5 C                     0.213414
      6 O                    -0.170260
      7 C                    -0.046710
      8 C                    -0.059497
      9 O                    -0.169707
     10 C                     0.221194
     11 C                    -0.080575
     12 C                    -0.080478
     13 C                     0.213246
     14 O                    -0.213909
     15 O                    -0.175237
     16 O                    -0.177411
     17 O                    -0.212833
     18 C                    -0.129093
     19 C                     0.009366
     20 C                    -0.144197
     21 C                    -0.145389
     22 C                     0.024496
     23 O                    -0.190672
     24 H                     0.085087
     25 H                     0.082259
     26 H                     0.116856
     27 H                     0.075446
     28 H                     0.068808
     29 H                     0.074732
     30 H                     0.069811
     31 H                     0.084614
     32 O                    -0.204819
     33 C                    -0.144352
     34 C                     0.028973
     35 C                    -0.143610
     36 C                    -0.143552
     37 C                     0.025784
     38 O                    -0.187489
     39 H                     0.083820
     40 H                     0.086509
     41 H                     0.088324
     42 H                     0.092079
     43 H                     0.078895
     44 H                     0.075748
     45 H                     0.078917
     46 H                     0.074886
     47 H                     0.093870
     48 H                     0.091676
     49 H                     0.104935
     50 H                     0.085571
     51 H                     0.087118
     52 H                     0.091735
     53 H                     0.084481
     54 H                     0.113091
     55 H                     0.090250
     56 H                     0.091533
  ----------------------------------------
  Sum of atomic charges =    -0.000000

                    Cartesian Multipole Moments
 -----------------------------------------------------------------
    Charge (ESU x 10^10)
                -0.0000
    Dipole Moment (Debye)
         X       1.4271      Y      -0.5075      Z      -4.0570
       Tot       4.3305
    Quadrupole Moments (Debye-Ang)
        XX    -145.6728     XY       3.7978     YY    -147.8535
        XZ      -1.6301     YZ       3.6965     ZZ    -168.3536

 Total job time:  166.73s(wall), 7958.74s(cpu)
        *  Thank you very much for using Q-Chem.  Have a nice day.  *
