 Q-Chem 5.0, Q-Chem, Inc., Pleasanton, CA (2017)
 Q-Chem 5.0.1 for Intel X86 EM64T Linux

User input:
--------------------------------------------------------------
$molecule
0  1
O -3.94934 -3.66094 2.70899
C -3.26408 -4.56952 2.26188
C -3.36658 -6.02376 2.66595
C -3.24808 -7.07344 1.54882
C -2.86304 -6.56002 0.17906
O -1.64085 -5.9532 0.23766
C -0.92493 -6.00808 -1.00077
C 0.34264 -5.16447 -0.91297
O 0.93867 -5.3104 0.38562
C 1.202 -4.15205 1.03986
C 2.09897 -4.34465 2.23945
C 2.99992 -3.14662 2.57305
C 2.63019 -1.83624 1.90754
O 2.55186 -0.75328 2.46933
O -2.31695 -4.10959 1.4108
O 2.69826 -1.83187 0.54765
O 0.49989 -3.16149 0.92024
C 2.51011 -0.71675 -0.24236
C 1.3175 -4.46699 3.56545
C 2.15532 -5.2427 4.57851
C 3.25553 -4.23765 4.85755
C 2.72062 -3.02486 4.08278
O 1.32335 -3.17522 4.1221
H 2.67297 -5.28905 2.09308
H 4.06294 -3.35042 2.31817
H 0.32214 -4.93845 3.44269
H 1.52616 -5.34736 5.49189
H 2.50271 -6.24943 4.26137
H 3.28421 -4.04561 5.9529
H 4.26472 -4.52486 4.49023
H 3.12336 -2.08399 4.51767
O -3.49247 -6.78768 -0.84641
C -2.37336 -2.85336 0.81926
C -2.17839 -6.45471 3.55341
C -2.56751 -7.67172 4.39299
C -2.59831 -8.75034 3.32951
C -2.11558 -7.95188 2.11426
O -1.23681 -7.00129 2.66384
H -4.29374 -6.12671 3.27392
H -4.19374 -7.64654 1.42378
H -2.227 -2.05727 1.58035
H -1.81602 -5.63915 4.2164
H -1.71674 -7.87886 5.08139
H -3.49979 -7.56301 4.98781
H -1.85607 -9.53352 3.60124
H -3.5927 -9.2137 3.15073
H -1.68578 -8.62912 1.34342
H -3.35514 -2.71575 0.31644
H -1.61457 -2.76186 0.02313
H 2.61654 -1.00469 -1.30827
H 3.2711 0.05639 -0.00292
H 1.49085 -0.30432 -0.08307
H 1.05019 -5.48097 -1.70857
H 0.06482 -4.112 -1.14289
H -1.522 -5.66506 -1.87633
H -0.626 -7.06876 -1.15859
$end

$opt
CONSTRAINT
tors           1           2           3           4    +139.519
tors           3           4           5           6     +60.308
tors           4           5           6           7    +152.079
tors           5           6           7           8    +172.863
tors           6           7           8           9     +38.762
tors           7           8           9          10    -127.361
tors           8           9          10          11    -166.973
tors           9          10          11          12    +149.668
tors          11          12          13          14    +133.048
ENDCONSTRAINT
$end

$rem
JOBTYPE                   OPT
METHOD                    B3LYP
DFT_D                     d3_op
BASIS                     STO-3G
GEOM_OPT_MAX_CYCLES       100
GEOM_OPT_TOL_GRADIENT     300
GEOM_OPT_TOL_DISPLACEMENT 1200
GEOM_OPT_TOL_ENERGY       100
SYMMETRY                  False
THRESH                    12
SCF_CONVERGENCE           8
MAX_SUB_FILE_NUM          128
MEM_STATIC                400
MEM_TOTAL                 4000
$end
--------------------------------------------------------------

   15   -1510.1276666709      7.16E-09 Convergence criterion met
 Total energy in the final basis set = -1510.12766667
   14   -1510.2007894536      8.46E-09 Convergence criterion met
 Total energy in the final basis set = -1510.20078945
   15   -1510.2368551460      1.20E-09 Convergence criterion met
 Total energy in the final basis set = -1510.23685515
   15   -1510.2580368425      2.57E-09 Convergence criterion met
 Total energy in the final basis set = -1510.25803684
   14   -1510.2666460156      5.16E-09 Convergence criterion met
 Total energy in the final basis set = -1510.26664602
   14   -1510.2717219975      6.08E-09 Convergence criterion met
 Total energy in the final basis set = -1510.27172200
   13   -1510.2744369881      6.14E-09 Convergence criterion met
 Total energy in the final basis set = -1510.27443699
   13   -1510.2757370220      9.03E-09 Convergence criterion met
   10   -1510.2792840531      9.03E-09 Convergence criterion met
 Total energy in the final basis set = -1510.27928405
   11   -1510.2792946423      2.51E-09 Convergence criterion met
 Total energy in the final basis set = -1510.27929464
   10   -1510.2792958131      5.93E-09 Convergence criterion met
 Total energy in the final basis set = -1510.27929581
    9   -1510.2792969474      4.55E-09 Convergence criterion met
 Total energy in the final basis set = -1510.27929695
    8   -1510.2792981713      9.42E-09 Convergence criterion met
 Total energy in the final basis set = -1510.27929817
    9   -1510.2792993437      2.29E-09 Convergence criterion met
 Total energy in the final basis set = -1510.27929934

             Standard Nuclear Orientation (Angstroms)
    I     Atom           X                Y                Z
 ----------------------------------------------------------------
    1      O       2.2251377609     0.1849942676     3.3902082101
    2      C       2.1847766253     0.0364869903     2.1463613486
    3      C       3.2129970636     0.6799088666     1.1511046329
    4      C       3.7729013303    -0.1297599176    -0.1034302858
    5      C       3.2433535610    -1.5648540970    -0.4685858066
    6      O       1.8397813252    -1.5339035097    -0.7404537776
    7      C       1.4713823232    -2.6219556425    -1.6874199400
    8      C      -0.0941168283    -2.5829273815    -1.7426268828
    9      O      -0.4609230688    -1.1463593732    -1.7153598958
   10      C      -1.4050732533    -0.8810360402    -0.6853439293
   11      C      -1.9961414413     0.5443437859    -0.9145144406
   12      C      -3.4815399596     0.6933257343    -0.4036807189
   13      C      -4.1897481938    -0.6556510026    -0.0260431335
   14      O      -4.8515490587    -0.8970400783     1.0052964034
   15      O       1.0982390083    -0.5705993493     1.4576711766
   16      O      -4.0915791115    -1.5441905059    -1.1489684517
   17      O      -1.7121434546    -1.6930502551     0.2210172141
   18      C      -4.7204278295    -2.8423480378    -0.8202373224
   19      C      -1.2403996356     1.5416248522     0.0702390926
   20      C      -1.6345725967     3.0268975568    -0.2897106532
   21      C      -3.0864232798     3.1161280434     0.3156433014
   22      C      -3.2797162675     1.6438242593     0.8500014796
   23      O      -1.9316517788     1.2893019120     1.3557975308
   24      H      -1.8722322149     0.8210630501    -1.9751386963
   25      H      -4.0992612697     1.1854865384    -1.1777409077
   26      H      -0.1539686846     1.3340087167     0.1515088762
   27      H      -0.9469369680     3.7373959669     0.1958267461
   28      H      -1.6145433157     3.2051016301    -1.3767394204
   29      H      -3.1317754312     3.8366444580     1.1478973085
   30      H      -3.8453138385     3.3924349620    -0.4338815591
   31      H      -4.0413989614     1.5077424514     1.6424451947
   32      O       3.9662601295    -2.5734167287    -0.6372177024
   33      C       0.0925192568    -1.0628368130     2.4337066803
   34      C       2.5688749043     1.9489168059     0.4319513280
   35      C       3.7337706228     2.9117079689    -0.0247628211
   36      C       4.3084038092     2.1229899530    -1.2577511479
   37      C       3.3561982549     0.8638668030    -1.2848243987
   38      O       2.0502502119     1.4009567214    -0.8398400863
   39      H       4.0652421805     0.9968162115     1.7786008724
   40      H       4.8708265396    -0.2214046091    -0.0253850006
   41      H      -0.2668136341    -0.2431066131     3.0869400963
   42      H       1.7575433058     2.4361514617     1.0067280489
   43      H       3.3278696430     3.8910008569    -0.3248381814
   44      H       4.4804104891     3.0662080312     0.7700716997
   45      H       4.2071975460     2.7003685612    -2.1906110419
   46      H       5.3657862482     1.8409355554    -1.1306268367
   47      H       3.2531418998     0.3771751697    -2.2739887998
   48      H       0.5097924509    -1.8715092932     3.0664454853
   49      H      -0.7434014208    -1.4436111885     1.8102375105
   50      H      -4.6725706577    -3.4494935965    -1.7429303295
   51      H      -5.7776539065    -2.7192718832    -0.5085881803
   52      H      -4.1705572255    -3.3598119458    -0.0072967068
   53      H      -0.4761400534    -3.0397617252    -2.6800042507
   54      H      -0.5461659647    -3.0806830448    -0.8576199250
   55      H       1.8429349552    -3.6126318695    -1.3456095131
   56      H       1.9043662916    -2.4103171426    -2.6894730664
 ----------------------------------------------------------------

    9   -1510.2792999364      1.83E-09 Convergence criterion met
 Total energy in the final basis set = -1510.27929994
 Final energy is   -1510.27929993639
 **  OPTIMIZATION CONVERGED  **

                    Orbital Energies (a.u.)
 --------------------------------------------------------------

 Alpha MOs
 -- Occupied --
-18.938 -18.930 -18.927 -18.924 -18.893 -18.882 -18.877 -18.872
-18.871 -18.859 -10.105 -10.098 -10.096 -10.088 -10.074 -10.073
-10.063 -10.062 -10.060 -10.054 -10.053 -10.037 -10.036 -10.035
-10.034 -10.034 -10.023 -10.022 -10.017 -10.016  -1.019  -1.008
 -1.004  -0.999  -0.973  -0.966  -0.943  -0.932  -0.929  -0.921
 -0.762  -0.761  -0.728  -0.721  -0.713  -0.706  -0.695  -0.659
 -0.643  -0.614  -0.598  -0.577  -0.544  -0.542  -0.539  -0.534
 -0.517  -0.507  -0.485  -0.478  -0.465  -0.460  -0.451  -0.435
 -0.432  -0.426  -0.423  -0.410  -0.408  -0.406  -0.406  -0.395
 -0.392  -0.381  -0.368  -0.364  -0.357  -0.356  -0.354  -0.344
 -0.342  -0.337  -0.335  -0.330  -0.328  -0.325  -0.321  -0.310
 -0.309  -0.306  -0.302  -0.297  -0.293  -0.283  -0.282  -0.272
 -0.267  -0.254  -0.250  -0.241  -0.238  -0.230  -0.229  -0.179
 -0.173  -0.168  -0.162  -0.161  -0.152  -0.149  -0.147  -0.141
 -0.138

          Ground-State Mulliken Net Atomic Charges

     Atom                 Charge (a.u.)
  ----------------------------------------
      1 O                    -0.218740
      2 C                     0.201972
      3 C                    -0.079684
      4 C                    -0.079234
      5 C                     0.207208
      6 O                    -0.159073
      7 C                    -0.046282
      8 C                    -0.049868
      9 O                    -0.162952
     10 C                     0.231286
     11 C                    -0.076894
     12 C                    -0.080014
     13 C                     0.215132
     14 O                    -0.212250
     15 O                    -0.165308
     16 O                    -0.176237
     17 O                    -0.220947
     18 C                    -0.128744
     19 C                     0.022103
     20 C                    -0.144008
     21 C                    -0.143523
     22 C                     0.023934
     23 O                    -0.191729
     24 H                     0.089167
     25 H                     0.084099
     26 H                     0.098281
     27 H                     0.075927
     28 H                     0.074264
     29 H                     0.077247
     30 H                     0.072189
     31 H                     0.090067
     32 O                    -0.214339
     33 C                    -0.140610
     34 C                     0.024902
     35 C                    -0.143551
     36 C                    -0.144461
     37 C                     0.027862
     38 O                    -0.186486
     39 H                     0.084777
     40 H                     0.084791
     41 H                     0.090004
     42 H                     0.082660
     43 H                     0.077432
     44 H                     0.075771
     45 H                     0.077642
     46 H                     0.075009
     47 H                     0.080965
     48 H                     0.079571
     49 H                     0.109749
     50 H                     0.087145
     51 H                     0.089153
     52 H                     0.091094
     53 H                     0.086067
     54 H                     0.102833
     55 H                     0.092949
     56 H                     0.081682
  ----------------------------------------
  Sum of atomic charges =    -0.000000

                    Cartesian Multipole Moments
 -----------------------------------------------------------------
    Charge (ESU x 10^10)
                -0.0000
    Dipole Moment (Debye)
         X       0.0352      Y       1.1369      Z      -3.7769
       Tot       3.9444
    Quadrupole Moments (Debye-Ang)
        XX    -157.0068     XY       6.9773     YY    -149.3502
        XZ       2.6693     YZ       3.3677     ZZ    -165.6969

 Total job time:  69.31s(wall), 3303.82s(cpu)
        *  Thank you very much for using Q-Chem.  Have a nice day.  *
