 Q-Chem 5.0, Q-Chem, Inc., Pleasanton, CA (2017)
 Q-Chem 5.0.1 for Intel X86 EM64T Linux

User input:
--------------------------------------------------------------
$molecule
0  1
O -3.94934 -3.66094 2.70899
C -3.26408 -4.56952 2.26188
C -3.36658 -6.02376 2.66595
C -2.88795 -7.0714 1.64751
C -2.19596 -6.54267 0.4107
O -1.28355 -5.5888 0.76149
C 0.06093 -5.94333 0.42099
C 0.99615 -4.76638 0.67849
O 0.23255 -3.6036 1.03589
C 0.90296 -2.42605 0.9805
C 0.04891 -1.24379 1.37231
C 0.6372 -0.35955 2.4815
C 2.10917 -0.56394 2.77859
O 2.93717 0.32663 2.90452
O -3.04891 -4.24363 0.9532
O 2.45769 -1.812 3.19414
O 2.04241 -2.31195 0.54201
C 3.72522 -2.17761 3.59674
C -0.12369 -0.20277 0.2472
C -1.40948 0.58932 0.47366
C -1.035 1.39044 1.70458
C 0.45001 1.0236 1.82859
O 0.85748 0.77285 0.50466
H -0.958 -1.62167 1.65983
H 0.09459 -0.49267 3.44317
H -0.11721 -0.64918 -0.77124
H -1.5046 1.28669 -0.38976
H -2.34526 -0.00039 0.5622
H -1.17304 2.4701 1.47465
H -1.58657 1.12118 2.63152
H 0.99868 1.82798 2.36562
O -2.42527 -6.88825 -0.73894
C -3.10784 -3.00872 0.31977
C -2.42174 -6.3316 3.84481
C -2.90754 -7.57361 4.59158
C -2.55295 -8.65652 3.59436
C -1.85634 -7.82049 2.51556
O -1.23829 -6.78633 3.24075
H -4.41541 -6.19202 2.99909
H -3.69304 -7.76218 1.31216
H -3.32528 -2.17248 1.01586
H -2.31326 -5.47862 4.55066
H -2.26104 -7.69509 5.4902
H -3.97284 -7.54676 4.90671
H -1.82474 -9.34911 4.07233
H -3.41351 -9.2314 3.18901
H -1.18285 -8.46335 1.90702
H -3.89616 -3.0389 -0.45987
H -2.13627 -2.80838 -0.17533
H 3.72215 -3.25144 3.87487
H 4.03506 -1.57968 4.48025
H 4.44758 -2.0252 2.76651
H 1.65682 -5.00666 1.54059
H 1.63686 -4.61325 -0.22064
H 0.09021 -6.13523 -0.67671
H 0.41428 -6.86469 0.93312
$end

$opt
CONSTRAINT
tors           1           2           3           4    +155.213
tors           3           4           5           6     +45.553
tors           4           5           6           7    +117.849
tors           5           6           7           8    +172.863
tors           6           7           8           9      -6.746
tors           7           8           9          10    -164.971
tors           8           9          10          11    -179.765
tors           9          10          11          12    +126.402
tors          11          12          13          14    +133.048
ENDCONSTRAINT
$end

$rem
JOBTYPE                   OPT
METHOD                    B3LYP
DFT_D                     d3_op
BASIS                     STO-3G
GEOM_OPT_MAX_CYCLES       100
GEOM_OPT_TOL_GRADIENT     300
GEOM_OPT_TOL_DISPLACEMENT 1200
GEOM_OPT_TOL_ENERGY       100
SYMMETRY                  False
THRESH                    12
SCF_CONVERGENCE           8
MAX_SUB_FILE_NUM          128
MEM_STATIC                400
MEM_TOTAL                 4000
$end
--------------------------------------------------------------

   15   -1510.0882993114      8.42E-09 Convergence criterion met
 Total energy in the final basis set = -1510.08829931
   14   -1510.1667091343      5.61E-09 Convergence criterion met
 Total energy in the final basis set = -1510.16670913
   14   -1510.2106758991      7.05E-09 Convergence criterion met
 Total energy in the final basis set = -1510.21067590
   14   -1510.2313493867      8.75E-09 Convergence criterion met
 Total energy in the final basis set = -1510.23134939
   14   -1510.2427160976      5.31E-09 Convergence criterion met
 Total energy in the final basis set = -1510.24271610
   14   -1510.2470517011      3.89E-09 Convergence criterion met
 Total energy in the final basis set = -1510.24705170
   14   -1510.2505006482      3.00E-09 Convergence criterion met
 Total energy in the final basis set = -1510.25050065
   13   -1510.2526323281      6.28E-09 Convergence criterion met
   11   -1510.2558924089      3.31E-09 Convergence criterion met
 Total energy in the final basis set = -1510.25589241
   11   -1510.2558993344      3.44E-09 Convergence criterion met
 Total energy in the final basis set = -1510.25589933
   10   -1510.2559022484      5.38E-09 Convergence criterion met
 Total energy in the final basis set = -1510.25590225
    9   -1510.2559046212      8.51E-09 Convergence criterion met
 Total energy in the final basis set = -1510.25590462
    9   -1510.2559071936      6.55E-09 Convergence criterion met
 Total energy in the final basis set = -1510.25590719
    9   -1510.2559082975      5.41E-09 Convergence criterion met
 Total energy in the final basis set = -1510.25590830

             Standard Nuclear Orientation (Angstroms)
    I     Atom           X                Y                Z
 ----------------------------------------------------------------
    1      O       2.1532604338    -2.5395466805     2.0998706849
    2      C       2.4054717424    -1.8378721454     1.0926116158
    3      C       3.4978649429    -0.7148692798     1.0385508028
    4      C       4.1229602463    -0.3269415320    -0.3600204743
    5      C       3.1814154747    -0.4977017837    -1.6168568209
    6      O       1.8564263255     0.0410315411    -1.3664197130
    7      C       1.5616849734     1.1545011775    -2.2929126198
    8      C       0.0462130031     1.5261707946    -2.0525558098
    9      O      -0.4986878473     0.5052514639    -1.1244944253
   10      C      -1.9283738025     0.5414523247    -1.1132960024
   11      C      -2.4100640388    -0.5611330040    -0.1059992389
   12      C      -3.3983014817    -0.0084560449     1.0041832212
   13      C      -3.6034790527     1.5462848469     0.9496392455
   14      O      -4.6791812648     2.1777577092     0.9979851404
   15      O       1.8497540411    -2.0820033680    -0.1987272463
   16      O      -2.3067387826     2.1561179567     0.8864701655
   17      O      -2.6281944542     1.2870980955    -1.8329129328
   18      C      -2.4370368732     3.6219310542     0.7300631056
   19      C      -3.3564839627    -1.6155389737    -0.8273180604
   20      C      -3.5469907306    -2.8566632025     0.1333219624
   21      C      -4.5683763561    -2.2791708183     1.1829884196
   22      C      -4.7286044988    -0.7979418790     0.6629084457
   23      O      -4.6766073562    -0.9467217325    -0.8106216046
   24      H      -1.5175698751    -1.0345314924     0.3381580025
   25      H      -3.0257195869    -0.2674306029     2.0127527487
   26      H      -3.0622658909    -1.8636886902    -1.8656627157
   27      H      -3.9712966108    -3.7107909193    -0.4178937532
   28      H      -2.5972638375    -3.1711230251     0.5952582189
   29      H      -5.5334477373    -2.8087402591     1.1390450884
   30      H      -4.1878425534    -2.3211072112     2.2161635174
   31      H      -5.6541091509    -0.2719653894     0.9681671425
   32      O       3.5465901820    -0.9568478040    -2.7201024137
   33      C       0.8493279439    -3.1714571123    -0.1539230213
   34      C       3.1091840662     0.7230689719     1.6257928554
   35      C       4.4157791865     1.2797444178     2.3133326102
   36      C       5.3248294101     1.5070849387     1.0468561534
   37      C       4.2987379888     1.2399249095    -0.1296776273
   38      O       2.9847336661     1.6077625883     0.4465837556
   39      H       4.3096171956    -1.1157859323     1.6733936323
   40      H       5.0769892304    -0.8489499801    -0.5512663793
   41      H       0.8075336214    -3.5903859056     0.8723160076
   42      H       2.1871561902     0.7524304173     2.2380283954
   43      H       4.1998572602     2.2307355434     2.8267442226
   44      H       4.8516775112     0.5740251233     3.0383216740
   45      H       5.7101124940     2.5377809609     0.9995262408
   46      H       6.1778042205     0.8102514720     1.0110363943
   47      H       4.4934484512     1.8179751166    -1.0539489699
   48      H       1.1478492423    -3.9550992134    -0.8772150139
   49      H      -0.1377122357    -2.7610711721    -0.4448223663
   50      H      -1.4075892975     4.0242866118     0.7547567723
   51      H      -3.0338333063     4.0703634711     1.5500831461
   52      H      -2.9135616148     3.8794352236    -0.2381970039
   53      H      -0.0422138517     2.5339660718    -1.5923464789
   54      H      -0.5270970414     1.5339158839    -3.0044085067
   55      H       1.7274779736     0.8560346495    -3.3524068879
   56      H       2.2042065826     2.0350835430    -2.0713556749
 ----------------------------------------------------------------

    9   -1510.2559087592      7.54E-09 Convergence criterion met
 Total energy in the final basis set = -1510.25590876
 Final energy is   -1510.25590875920
 **  OPTIMIZATION CONVERGED  **

                    Orbital Energies (a.u.)
 --------------------------------------------------------------

 Alpha MOs
 -- Occupied --
-18.941 -18.933 -18.928 -18.901 -18.894 -18.885 -18.883 -18.876
-18.874 -18.862 -10.104 -10.100 -10.098 -10.091 -10.067 -10.066
-10.066 -10.065 -10.062 -10.062 -10.058 -10.055 -10.041 -10.039
-10.035 -10.032 -10.026 -10.024 -10.019 -10.018  -1.015  -1.011
 -1.003  -0.996  -0.976  -0.967  -0.938  -0.936  -0.933  -0.920
 -0.767  -0.761  -0.727  -0.722  -0.709  -0.706  -0.694  -0.663
 -0.660  -0.610  -0.600  -0.574  -0.549  -0.544  -0.541  -0.535
 -0.518  -0.507  -0.489  -0.472  -0.467  -0.453  -0.450  -0.444
 -0.436  -0.428  -0.425  -0.415  -0.413  -0.410  -0.409  -0.402
 -0.392  -0.381  -0.372  -0.364  -0.358  -0.353  -0.351  -0.348
 -0.344  -0.339  -0.336  -0.335  -0.329  -0.326  -0.322  -0.317
 -0.312  -0.308  -0.303  -0.300  -0.294  -0.289  -0.282  -0.275
 -0.270  -0.252  -0.249  -0.242  -0.239  -0.231  -0.228  -0.176
 -0.175  -0.169  -0.163  -0.157  -0.155  -0.149  -0.143  -0.140
 -0.138

          Ground-State Mulliken Net Atomic Charges

     Atom                 Charge (a.u.)
  ----------------------------------------
      1 O                    -0.219281
      2 C                     0.210835
      3 C                    -0.079313
      4 C                    -0.078658
      5 C                     0.223452
      6 O                    -0.173522
      7 C                    -0.044414
      8 C                    -0.045091
      9 O                    -0.160938
     10 C                     0.211385
     11 C                    -0.078792
     12 C                    -0.078889
     13 C                     0.214752
     14 O                    -0.208061
     15 O                    -0.160064
     16 O                    -0.171637
     17 O                    -0.220840
     18 C                    -0.128816
     19 C                     0.024494
     20 C                    -0.144549
     21 C                    -0.143488
     22 C                     0.024125
     23 O                    -0.186562
     24 H                     0.085588
     25 H                     0.084372
     26 H                     0.082372
     27 H                     0.077594
     28 H                     0.071689
     29 H                     0.078188
     30 H                     0.073068
     31 H                     0.090565
     32 O                    -0.199824
     33 C                    -0.132867
     34 C                     0.028532
     35 C                    -0.141104
     36 C                    -0.145250
     37 C                     0.023180
     38 O                    -0.186793
     39 H                     0.084992
     40 H                     0.084023
     41 H                     0.101237
     42 H                     0.087373
     43 H                     0.078114
     44 H                     0.075514
     45 H                     0.078436
     46 H                     0.074836
     47 H                     0.078808
     48 H                     0.088718
     49 H                     0.087566
     50 H                     0.089480
     51 H                     0.089919
     52 H                     0.092994
     53 H                     0.083587
     54 H                     0.089682
     55 H                     0.081294
     56 H                     0.077990
  ----------------------------------------
  Sum of atomic charges =    -0.000000

                    Cartesian Multipole Moments
 -----------------------------------------------------------------
    Charge (ESU x 10^10)
                -0.0000
    Dipole Moment (Debye)
         X       3.1529      Y       0.1997      Z       1.7268
       Tot       3.6004
    Quadrupole Moments (Debye-Ang)
        XX    -165.0709     XY      13.2461     YY    -151.9326
        XZ      -2.3059     YZ      -0.1183     ZZ    -163.2249

 Total job time:  64.46s(wall), 3070.94s(cpu)
        *  Thank you very much for using Q-Chem.  Have a nice day.  *
