 Q-Chem 5.0, Q-Chem, Inc., Pleasanton, CA (2017)
 Q-Chem 5.0.1 for Intel X86 EM64T Linux

User input:
--------------------------------------------------------------
$molecule
0  1
O 2.1532604338 -2.5395466805 2.0998706849
C 2.4054717424 -1.8378721454 1.0926116158
C 3.4978649429 -0.7148692798 1.0385508028
C 4.1229602463 -0.326941532 -0.3600204743
C 3.1814154747 -0.4977017837 -1.6168568209
O 1.8564263255 0.0410315411 -1.366419713
C 1.5616849734 1.1545011775 -2.2929126198
C 0.0462130031 1.5261707946 -2.0525558098
O -0.4986878473 0.5052514639 -1.1244944253
C -1.9283738025 0.5414523247 -1.1132960024
C -2.4100640388 -0.561133004 -0.1059992389
C -3.3983014817 -0.0084560449 1.0041832212
C -3.6034790527 1.5462848469 0.9496392455
O -4.6791812648 2.1777577092 0.9979851404
O 1.8497540411 -2.082003368 -0.1987272463
O -2.3067387826 2.1561179567 0.8864701655
O -2.6281944542 1.2870980955 -1.8329129328
C -2.4370368732 3.6219310542 0.7300631056
C -3.3564839627 -1.6155389737 -0.8273180604
C -3.5469907306 -2.8566632025 0.1333219624
C -4.5683763561 -2.2791708183 1.1829884196
C -4.7286044988 -0.797941879 0.6629084457
O -4.6766073562 -0.9467217325 -0.8106216046
H -1.5175698751 -1.0345314924 0.3381580025
H -3.0257195869 -0.2674306029 2.0127527487
H -3.0622658909 -1.8636886902 -1.8656627157
H -3.9712966108 -3.7107909193 -0.4178937532
H -2.5972638375 -3.1711230251 0.5952582189
H -5.5334477373 -2.8087402591 1.1390450884
H -4.1878425534 -2.3211072112 2.2161635174
H -5.6541091509 -0.2719653894 0.9681671425
O 3.546590182 -0.956847804 -2.7201024137
C 0.8493279439 -3.1714571123 -0.1539230213
C 3.1091840662 0.7230689719 1.6257928554
C 4.4157791865 1.2797444178 2.3133326102
C 5.3248294101 1.5070849387 1.0468561534
C 4.2987379888 1.2399249095 -0.1296776273
O 2.9847336661 1.6077625883 0.4465837556
H 4.3096171956 -1.1157859323 1.6733936323
H 5.0769892304 -0.8489499801 -0.5512663793
H 0.8075336214 -3.5903859056 0.8723160076
H 2.1871561902 0.7524304173 2.2380283954
H 4.1998572602 2.2307355434 2.8267442226
H 4.8516775112 0.5740251233 3.038321674
H 5.710112494 2.5377809609 0.9995262408
H 6.1778042205 0.810251472 1.0110363943
H 4.4934484512 1.8179751166 -1.0539489699
H 1.1478492423 -3.9550992134 -0.8772150139
H -0.1377122357 -2.7610711721 -0.4448223663
H -1.4075892975 4.0242866118 0.7547567723
H -3.0338333063 4.0703634711 1.5500831461
H -2.9135616148 3.8794352236 -0.2381970039
H -0.0422138517 2.5339660718 -1.5923464789
H -0.5270970414 1.5339158839 -3.0044085067
H 1.7274779736 0.8560346495 -3.3524068879
H 2.2042065826 2.035083543 -2.0713556749
$end

$rem
JOBTYPE                   OPT
METHOD                    B3LYP
DFT_D                     d3_op
BASIS                     STO-3G
GEOM_OPT_MAX_CYCLES       100
GEOM_OPT_TOL_GRADIENT     300
GEOM_OPT_TOL_DISPLACEMENT 1200
GEOM_OPT_TOL_ENERGY       100
SYMMETRY                  False
THRESH                    12
SCF_CONVERGENCE           8
MAX_SUB_FILE_NUM          128
MEM_STATIC                400
MEM_TOTAL                 4000
$end
--------------------------------------------------------------

   16   -1510.2558858660      5.38E-09 Convergence criterion met
 Total energy in the final basis set = -1510.25588587
   15   -1510.2594952432      2.06E-09 Convergence criterion met
 Total energy in the final basis set = -1510.25949524
   14   -1510.2630598651      4.57E-09 Convergence criterion met
 Total energy in the final basis set = -1510.26305987
   14   -1510.2669082043      6.42E-09 Convergence criterion met
 Total energy in the final basis set = -1510.26690820
   14   -1510.2584022631      5.07E-09 Convergence criterion met
 Total energy in the final basis set = -1510.25840226
   14   -1510.2696374923      7.19E-09 Convergence criterion met
 Total energy in the final basis set = -1510.26963749
   14   -1510.2722741332      8.42E-09 Convergence criterion met
 Total energy in the final basis set = -1510.27227413
   15   -1510.2736050151      3.89E-09 Convergence criterion met
   13   -1510.3048452235      2.62E-09 Convergence criterion met
 Total energy in the final basis set = -1510.30484522
   11   -1510.3048968972      8.63E-09 Convergence criterion met
 Total energy in the final basis set = -1510.30489690
   12   -1510.3049152168      4.58E-09 Convergence criterion met
 Total energy in the final basis set = -1510.30491522
   12   -1510.3049259079      1.71E-09 Convergence criterion met
 Total energy in the final basis set = -1510.30492591
   10   -1510.3049246903      8.02E-09 Convergence criterion met
 Total energy in the final basis set = -1510.30492469
    9   -1510.3049261383      8.54E-09 Convergence criterion met
 Total energy in the final basis set = -1510.30492614

             Standard Nuclear Orientation (Angstroms)
    I     Atom           X                Y                Z
 ----------------------------------------------------------------
    1      O       0.5661974820    -1.8119608530     1.0868833991
    2      C       1.6273224434    -1.4968977662     0.4974458099
    3      C       2.6636137681    -0.4383414797     1.0079684758
    4      C       3.5723441220     0.2575897970    -0.0904215641
    5      C       3.1640437988    -0.0557309240    -1.5742556044
    6      O       1.8206535683     0.4054208950    -1.7822221490
    7      C       1.3722888664     0.0870023367    -3.1565597665
    8      C      -0.1845593411     0.2481770373    -3.1583587467
    9      O      -0.8022147337    -0.6331225830    -2.1366238289
   10      C      -1.2496776161     0.1495838818    -1.0087820425
   11      C      -1.8916699928    -0.8126009969     0.0386350017
   12      C      -2.5539099535    -0.0519801522     1.2584848102
   13      C      -2.2603650626     1.4897380510     1.3031587369
   14      O      -3.0250154703     2.4282749811     0.9941529973
   15      O       2.0757762710    -2.0983522235    -0.7125222435
   16      O      -0.9586282815     1.6506628090     1.8863980724
   17      O      -1.1385401776     1.3927697091    -0.9483313738
   18      C      -0.5110529143     3.0616077232     1.8005493313
   19      C      -3.1558608507    -1.5457192588    -0.5747525775
   20      C      -3.6106015489    -2.6928798787     0.4126193369
   21      C      -4.3398392666    -1.8630213373     1.5342047040
   22      C      -4.0869540277    -0.3893046506     1.0281596207
   23      O      -4.2149124445    -0.5176634909    -0.4433505070
   24      H      -1.0924668178    -1.5022862660     0.3903817560
   25      H      -2.1862335591    -0.4859180866     2.2054962543
   26      H      -3.0337457091    -1.8500158013    -1.6325015214
   27      H      -4.3001659434    -3.3882001988    -0.0915432224
   28      H      -2.7508238607    -3.2628190674     0.7995167694
   29      H      -5.4196439013    -2.0808578222     1.5568607752
   30      H      -3.9213699373    -2.0413585261     2.5374916236
   31      H      -4.7872746486     0.3794073683     1.4085265265
   32      O       3.8865644461    -0.5432684183    -2.4695875613
   33      C       0.9857871634    -2.8976944251    -1.3302806249
   34      C       1.9289304148     0.8195935485     1.6485581187
   35      C       2.9368944294     1.5046406985     2.6462841497
   36      C       3.9671597428     2.1425760389     1.6392007388
   37      C       3.3056901700     1.7868552496     0.2476769518
   38      O       1.8541184758     1.7951627222     0.5348056640
   39      H       3.2995534504    -0.9343026997     1.7649571844
   40      H       4.6335675599    -0.0218520361     0.0293302876
   41      H       0.5612802093    -3.6245755514    -0.6098864143
   42      H       0.9027310144     0.6276120572     2.0283098760
   43      H       2.4224409367     2.2779863288     3.2387093050
   44      H       3.4033914873     0.7822611450     3.3346478180
   45      H       4.0347857751     3.2348119106     1.7647017727
   46      H       4.9773699931     1.7135741420     1.7377080376
   47      H       3.5433538457     2.4852681011    -0.5779933035
   48      H       1.4498987666    -3.4361719459    -2.1761664520
   49      H       0.1859614586    -2.2091749486    -1.6982539679
   50      H       0.4413848473     3.0612370028     1.2267062697
   51      H      -0.3394046598     3.4491249963     2.8243239287
   52      H      -1.2868418740     3.6693361632     1.2954348073
   53      H      -0.4555301270     1.2989550374    -2.9185388883
   54      H      -0.5941775166    -0.0426816650    -4.1478240194
   55      H       1.6697014024    -0.9448846727    -3.4411380480
   56      H       1.8183470052     0.7886544334    -3.8969030347
 ----------------------------------------------------------------

    9   -1510.3049277052      3.28E-09 Convergence criterion met
 Total energy in the final basis set = -1510.30492771
 Final energy is   -1510.30492770518
 **  OPTIMIZATION CONVERGED  **

                    Orbital Energies (a.u.)
 --------------------------------------------------------------

 Alpha MOs
 -- Occupied --
-18.948 -18.941 -18.928 -18.910 -18.893 -18.890 -18.887 -18.879
-18.869 -18.855 -10.112 -10.104 -10.099 -10.084 -10.075 -10.074
-10.063 -10.058 -10.055 -10.054 -10.050 -10.042 -10.039 -10.032
-10.025 -10.023 -10.022 -10.020 -10.015 -10.013  -1.025  -1.018
 -1.006  -0.990  -0.973  -0.963  -0.947  -0.945  -0.932  -0.917
 -0.766  -0.756  -0.729  -0.721  -0.711  -0.704  -0.693  -0.664
 -0.642  -0.616  -0.598  -0.574  -0.547  -0.540  -0.538  -0.531
 -0.517  -0.506  -0.492  -0.479  -0.470  -0.452  -0.448  -0.442
 -0.434  -0.426  -0.420  -0.416  -0.412  -0.409  -0.406  -0.396
 -0.391  -0.383  -0.373  -0.369  -0.360  -0.354  -0.351  -0.347
 -0.340  -0.340  -0.333  -0.328  -0.326  -0.323  -0.319  -0.314
 -0.309  -0.307  -0.306  -0.297  -0.294  -0.285  -0.280  -0.271
 -0.266  -0.256  -0.250  -0.249  -0.238  -0.229  -0.227  -0.190
 -0.176  -0.173  -0.166  -0.161  -0.156  -0.148  -0.144  -0.139
 -0.138

          Ground-State Mulliken Net Atomic Charges

     Atom                 Charge (a.u.)
  ----------------------------------------
      1 O                    -0.218551
      2 C                     0.220031
      3 C                    -0.079441
      4 C                    -0.078568
      5 C                     0.216285
      6 O                    -0.175075
      7 C                    -0.048096
      8 C                    -0.053501
      9 O                    -0.177710
     10 C                     0.219427
     11 C                    -0.091901
     12 C                    -0.081912
     13 C                     0.217725
     14 O                    -0.218096
     15 O                    -0.165895
     16 O                    -0.181221
     17 O                    -0.196032
     18 C                    -0.144117
     19 C                     0.022672
     20 C                    -0.144330
     21 C                    -0.143025
     22 C                     0.023998
     23 O                    -0.191848
     24 H                     0.110659
     25 H                     0.084927
     26 H                     0.082676
     27 H                     0.075808
     28 H                     0.074670
     29 H                     0.076312
     30 H                     0.073303
     31 H                     0.087232
     32 O                    -0.218118
     33 C                    -0.144205
     34 C                     0.019336
     35 C                    -0.143794
     36 C                    -0.145203
     37 C                     0.026362
     38 O                    -0.185005
     39 H                     0.086241
     40 H                     0.085257
     41 H                     0.087265
     42 H                     0.106663
     43 H                     0.078402
     44 H                     0.073315
     45 H                     0.078021
     46 H                     0.074003
     47 H                     0.083395
     48 H                     0.088142
     49 H                     0.108205
     50 H                     0.103335
     51 H                     0.072619
     52 H                     0.097230
     53 H                     0.107891
     54 H                     0.088011
     55 H                     0.090384
     56 H                     0.085844
  ----------------------------------------
  Sum of atomic charges =    -0.000000

                    Cartesian Multipole Moments
 -----------------------------------------------------------------
    Charge (ESU x 10^10)
                -0.0000
    Dipole Moment (Debye)
         X       2.3179      Y      -1.8299      Z       0.6058
       Tot       3.0147
    Quadrupole Moments (Debye-Ang)
        XX    -166.6555     XY      12.2966     YY    -158.2339
        XZ       5.1362     YZ       0.7819     ZZ    -151.0299

 Total job time:  197.33s(wall), 9405.32s(cpu)
        *  Thank you very much for using Q-Chem.  Have a nice day.  *
