 Q-Chem 5.0, Q-Chem, Inc., Pleasanton, CA (2017)
 Q-Chem 5.0.1 for Intel X86 EM64T Linux

User input:
--------------------------------------------------------------
$molecule
0  1
O -3.94934 -3.66094 2.70899
C -3.26408 -4.56952 2.26188
C -3.36658 -6.02376 2.66595
C -3.0744 -7.07599 1.58369
C -2.5396 -6.55844 0.26679
O -1.35553 -5.90875 0.47001
C -0.7765 -5.40256 -0.73736
C 0.4968 -4.62391 -0.42347
O 0.73757 -4.6298 0.99246
C 0.92811 -3.41137 1.55662
C 1.88344 -3.4472 2.72569
C 2.69327 -2.16007 2.93956
C 2.19005 -0.93318 2.20593
O 2.27103 0.21756 2.61064
O -2.43779 -4.09509 1.3024
O 2.10756 -1.0744 0.85301
O 0.11118 -2.51733 1.40559
C 1.83589 -0.05276 -0.03428
C 1.15663 -3.55057 4.08283
C 2.0964 -4.16552 5.11709
C 3.09406 -3.03851 5.29309
C 2.42708 -1.94798 4.44379
O 1.05168 -2.22557 4.5401
H 2.53322 -4.34574 2.61198
H 3.76908 -2.28217 2.6863
H 0.20714 -4.12762 4.03134
H 1.50791 -4.27153 6.05692
H 2.53664 -5.15067 4.85161
H 3.11785 -2.75763 6.36932
H 4.12225 -3.25275 4.92877
H 2.74545 -0.94285 4.79745
O -3.06951 -6.75039 -0.82097
C -2.59226 -2.863 0.67433
C -2.27032 -6.39868 3.69008
C -2.71215 -7.61678 4.50124
C -2.59423 -8.70906 3.45723
C -1.99385 -7.91288 2.29328
O -1.21514 -6.92639 2.92516
H -4.35108 -6.15539 3.16915
H -3.98284 -7.67378 1.3479
H -2.50401 -2.03414 1.40937
H -2.00611 -5.56119 4.37283
H -1.93417 -7.78715 5.27991
H -3.70561 -7.53266 4.99189
H -1.87271 -9.47153 3.82603
H -3.55074 -9.19686 3.16963
H -1.45655 -8.58615 1.58938
H -3.58496 -2.81439 0.17771
H -1.82233 -2.72878 -0.1086
H 1.82099 -0.46208 -1.06513
H 2.62133 0.73037 0.02777
H 0.84216 0.39097 0.18902
H 1.3487 -5.15735 -0.89734
H 0.47166 -3.60788 -0.88282
H -1.49084 -4.7173 -1.24501
H -0.5468 -6.23208 -1.44459
$end

$opt
CONSTRAINT
tors           1           2           3           4    +146.947
tors           3           4           5           6     +60.308
tors           4           5           6           7    +179.275
tors           5           6           7           8    +176.769
tors           6           7           8           9      +0.010
tors           7           8           9          10    -127.361
tors           8           9          10          11    -147.565
tors           9          10          11          12    +149.668
tors          11          12          13          14    +147.323
ENDCONSTRAINT
$end

$rem
JOBTYPE                   OPT
METHOD                    B3LYP
DFT_D                     d3_op
BASIS                     STO-3G
GEOM_OPT_MAX_CYCLES       100
GEOM_OPT_TOL_GRADIENT     300
GEOM_OPT_TOL_DISPLACEMENT 1200
GEOM_OPT_TOL_ENERGY       100
SYMMETRY                  False
THRESH                    12
SCF_CONVERGENCE           8
MAX_SUB_FILE_NUM          128
MEM_STATIC                400
MEM_TOTAL                 4000
$end
--------------------------------------------------------------

   15   -1510.1054774171      7.77E-09 Convergence criterion met
 Total energy in the final basis set = -1510.10547742
   14   -1510.1803236774      7.72E-09 Convergence criterion met
 Total energy in the final basis set = -1510.18032368
   14   -1510.2182763807      3.83E-09 Convergence criterion met
 Total energy in the final basis set = -1510.21827638
   15   -1510.2431808070      1.98E-09 Convergence criterion met
 Total energy in the final basis set = -1510.24318081
   13   -1510.2526965009      6.98E-09 Convergence criterion met
 Total energy in the final basis set = -1510.25269650
   13   -1510.2577473681      7.00E-09 Convergence criterion met
 Total energy in the final basis set = -1510.25774737
   14   -1510.2607556917      2.97E-09 Convergence criterion met
 Total energy in the final basis set = -1510.26075569
   13   -1510.2626192343      9.72E-09 Convergence criterion met
   10   -1510.2683984496      5.72E-09 Convergence criterion met
 Total energy in the final basis set = -1510.26839845
   10   -1510.2684008649      8.51E-09 Convergence criterion met
 Total energy in the final basis set = -1510.26840086
    9   -1510.2683998267      9.37E-09 Convergence criterion met
 Total energy in the final basis set = -1510.26839983
   10   -1510.2684071746      7.41E-09 Convergence criterion met
 Total energy in the final basis set = -1510.26840717
   10   -1510.2684054020      8.50E-09 Convergence criterion met
 Total energy in the final basis set = -1510.26840540
    9   -1510.2684064440      6.41E-09 Convergence criterion met
 Total energy in the final basis set = -1510.26840644

             Standard Nuclear Orientation (Angstroms)
    I     Atom           X                Y                Z
 ----------------------------------------------------------------
    1      O       2.3097584543     0.2285057171     3.3315994739
    2      C       2.3734407604    -0.0879289334     2.1203326333
    3      C       3.3612860662     0.5860906504     1.0988238092
    4      C       3.9987096149    -0.2269073540    -0.1146546070
    5      C       3.3664802322    -1.6105660404    -0.5026759043
    6      O       2.0046213458    -1.4114448261    -0.8716084576
    7      C       1.3713274923    -2.6922582487    -1.2632688483
    8      C      -0.1395768223    -2.3347336623    -1.5600226514
    9      O      -0.3326158077    -0.8823771723    -1.3354003564
   10      C      -1.4230996718    -0.6333950339    -0.4451541850
   11      C      -2.1141097641     0.7156549583    -0.8452479255
   12      C      -3.6572554844     0.7307209261    -0.5119502131
   13      C      -4.3165851735    -0.6748316542    -0.2852559508
   14      O      -5.2594375568    -0.9490440651     0.4865007844
   15      O       1.4999955846    -1.0158398110     1.4909167310
   16      O      -3.7977471716    -1.5817803865    -1.2707540707
   17      O      -1.7524394149    -1.3912096887     0.4984276508
   18      C      -4.3941777896    -2.9236418241    -1.0900510356
   19      C      -1.6045231260     1.8380901419     0.1623814784
   20      C      -2.1644713945     3.2471180549    -0.2826806525
   21      C      -3.6479913925     3.1703036517     0.2384751189
   22      C      -3.7001350860     1.6821416450     0.7589322722
   23      O      -2.3692682818     1.5103911453     1.3886067747
   24      H      -1.8902101717     0.9444837474    -1.9007659934
   25      H      -4.2083098751     1.1961144122    -1.3516788680
   26      H      -0.5150341192     1.8030598771     0.3582862715
   27      H      -1.6023901043     4.0598782362     0.2038518552
   28      H      -2.1056175631     3.3814672891    -1.3747267471
   29      H      -3.8173332148     3.8717607171     1.0710890849
   30      H      -4.3915669708     3.3701622396    -0.5493174264
   31      H      -4.5098228660     1.4439668465     1.4761175932
   32      O       3.9483235605    -2.7185216196    -0.5235270282
   33      C       0.5034692231    -1.5591444335     2.4465505442
   34      C       2.6937861747     1.8172641447     0.3257875261
   35      C       3.8377146105     2.8586187215     0.0157232756
   36      C       4.6367529794     2.0880912160    -1.1005104487
   37      C       3.7332137874     0.8056674842    -1.2998134431
   38      O       2.3618297855     1.2836151527    -1.0111941819
   39      H       4.1852039621     0.9708420093     1.7267835625
   40      H       5.0762229957    -0.3969888471     0.0574868925
   41      H       0.3743623114    -0.8752824528     3.3077996029
   42      H       1.7923210806     2.2354223055     0.8147363806
   43      H       3.4061707934     3.7950929985    -0.3732319207
   44      H       4.4498408425     3.0913765285     0.9015052927
   45      H       4.6945830196     2.6691844793    -2.0342986726
   46      H       5.6591028468     1.8248742688    -0.7851615860
   47      H       3.7776643737     0.3557908959    -2.3106530144
   48      H       0.8379064841    -2.5490809605     2.8174385990
   49      H      -0.4434116386    -1.6634152402     1.8708707661
   50      H      -4.0205985509    -3.5411785720    -1.9275442989
   51      H      -5.5022841031    -2.8877017602    -1.1176957431
   52      H      -4.0794379576    -3.3765073132    -0.1274663015
   53      H      -0.3917005595    -2.5459147855    -2.6212489515
   54      H      -0.8136631193    -2.9141513602    -0.8950458517
   55      H       1.4516422899    -3.4324365057    -0.4383002097
   56      H       1.8658524957    -3.1226382696    -2.1611541647
 ----------------------------------------------------------------

    9   -1510.2684062431      5.81E-09 Convergence criterion met
 Total energy in the final basis set = -1510.26840624
 Final energy is   -1510.26840624308
 **  OPTIMIZATION CONVERGED  **

                    Orbital Energies (a.u.)
 --------------------------------------------------------------

 Alpha MOs
 -- Occupied --
-18.932 -18.931 -18.931 -18.925 -18.889 -18.887 -18.881 -18.876
-18.865 -18.860 -10.105 -10.101 -10.093 -10.090 -10.075 -10.070
-10.065 -10.060 -10.059 -10.059 -10.058 -10.039 -10.038 -10.037
-10.035 -10.033 -10.021 -10.020 -10.019 -10.019  -1.016  -1.010
 -1.004  -0.999  -0.970  -0.970  -0.941  -0.936  -0.927  -0.923
 -0.764  -0.759  -0.727  -0.721  -0.710  -0.704  -0.696  -0.662
 -0.647  -0.614  -0.598  -0.577  -0.547  -0.541  -0.537  -0.536
 -0.518  -0.506  -0.489  -0.470  -0.463  -0.460  -0.455  -0.441
 -0.432  -0.431  -0.422  -0.413  -0.411  -0.406  -0.404  -0.400
 -0.388  -0.381  -0.369  -0.367  -0.359  -0.353  -0.350  -0.347
 -0.342  -0.334  -0.332  -0.330  -0.329  -0.325  -0.323  -0.311
 -0.308  -0.307  -0.305  -0.296  -0.292  -0.287  -0.281  -0.273
 -0.271  -0.258  -0.252  -0.236  -0.233  -0.233  -0.230  -0.179
 -0.170  -0.166  -0.164  -0.159  -0.153  -0.147  -0.144  -0.142
 -0.139

          Ground-State Mulliken Net Atomic Charges

     Atom                 Charge (a.u.)
  ----------------------------------------
      1 O                    -0.220783
      2 C                     0.203892
      3 C                    -0.079450
      4 C                    -0.078700
      5 C                     0.209675
      6 O                    -0.151437
      7 C                    -0.044482
      8 C                    -0.045574
      9 O                    -0.162771
     10 C                     0.229105
     11 C                    -0.076303
     12 C                    -0.079405
     13 C                     0.215105
     14 O                    -0.211339
     15 O                    -0.167689
     16 O                    -0.175954
     17 O                    -0.214801
     18 C                    -0.129054
     19 C                     0.025860
     20 C                    -0.144689
     21 C                    -0.142571
     22 C                     0.024521
     23 O                    -0.188939
     24 H                     0.090184
     25 H                     0.084695
     26 H                     0.085630
     27 H                     0.078022
     28 H                     0.074631
     29 H                     0.078544
     30 H                     0.073179
     31 H                     0.091049
     32 O                    -0.219418
     33 C                    -0.145563
     34 C                     0.026484
     35 C                    -0.142480
     36 C                    -0.145287
     37 C                     0.026952
     38 O                    -0.183386
     39 H                     0.083946
     40 H                     0.083975
     41 H                     0.094916
     42 H                     0.079752
     43 H                     0.076683
     44 H                     0.075138
     45 H                     0.077219
     46 H                     0.074087
     47 H                     0.081582
     48 H                     0.077108
     49 H                     0.106966
     50 H                     0.087737
     51 H                     0.090727
     52 H                     0.090852
     53 H                     0.084479
     54 H                     0.094449
     55 H                     0.089078
     56 H                     0.083855
  ----------------------------------------
  Sum of atomic charges =     0.000000

                    Cartesian Multipole Moments
 -----------------------------------------------------------------
    Charge (ESU x 10^10)
                -0.0000
    Dipole Moment (Debye)
         X      -0.2959      Y       0.9217      Z      -3.4386
       Tot       3.5723
    Quadrupole Moments (Debye-Ang)
        XX    -158.6416     XY       6.6267     YY    -149.3029
        XZ       4.6166     YZ       1.8475     ZZ    -165.1376

 Total job time:  74.81s(wall), 3563.39s(cpu)
        *  Thank you very much for using Q-Chem.  Have a nice day.  *
