 Q-Chem 5.0, Q-Chem, Inc., Pleasanton, CA (2017)
 Q-Chem 5.0.1 for Intel X86 EM64T Linux

User input:
--------------------------------------------------------------
$molecule
0  1
O 2.3097584543 0.2285057171 3.3315994739
C 2.3734407604 -0.0879289334 2.1203326333
C 3.3612860662 0.5860906504 1.0988238092
C 3.9987096149 -0.226907354 -0.114654607
C 3.3664802322 -1.6105660404 -0.5026759043
O 2.0046213458 -1.4114448261 -0.8716084576
C 1.3713274923 -2.6922582487 -1.2632688483
C -0.1395768223 -2.3347336623 -1.5600226514
O -0.3326158077 -0.8823771723 -1.3354003564
C -1.4230996718 -0.6333950339 -0.445154185
C -2.1141097641 0.7156549583 -0.8452479255
C -3.6572554844 0.7307209261 -0.5119502131
C -4.3165851735 -0.6748316542 -0.2852559508
O -5.2594375568 -0.9490440651 0.4865007844
O 1.4999955846 -1.015839811 1.490916731
O -3.7977471716 -1.5817803865 -1.2707540707
O -1.7524394149 -1.3912096887 0.4984276508
C -4.3941777896 -2.9236418241 -1.0900510356
C -1.604523126 1.8380901419 0.1623814784
C -2.1644713945 3.2471180549 -0.2826806525
C -3.6479913925 3.1703036517 0.2384751189
C -3.700135086 1.682141645 0.7589322722
O -2.3692682818 1.5103911453 1.3886067747
H -1.8902101717 0.9444837474 -1.9007659934
H -4.2083098751 1.1961144122 -1.351678868
H -0.5150341192 1.8030598771 0.3582862715
H -1.6023901043 4.0598782362 0.2038518552
H -2.1056175631 3.3814672891 -1.3747267471
H -3.8173332148 3.8717607171 1.0710890849
H -4.3915669708 3.3701622396 -0.5493174264
H -4.509822866 1.4439668465 1.4761175932
O 3.9483235605 -2.7185216196 -0.5235270282
C 0.5034692231 -1.5591444335 2.4465505442
C 2.6937861747 1.8172641447 0.3257875261
C 3.8377146105 2.8586187215 0.0157232756
C 4.6367529794 2.088091216 -1.1005104487
C 3.7332137874 0.8056674842 -1.2998134431
O 2.3618297855 1.2836151527 -1.0111941819
H 4.1852039621 0.9708420093 1.7267835625
H 5.0762229957 -0.3969888471 0.0574868925
H 0.3743623114 -0.8752824528 3.3077996029
H 1.7923210806 2.2354223055 0.8147363806
H 3.4061707934 3.7950929985 -0.3732319207
H 4.4498408425 3.0913765285 0.9015052927
H 4.6945830196 2.6691844793 -2.0342986726
H 5.6591028468 1.8248742688 -0.785161586
H 3.7776643737 0.3557908959 -2.3106530144
H 0.8379064841 -2.5490809605 2.817438599
H -0.4434116386 -1.6634152402 1.8708707661
H -4.0205985509 -3.541178572 -1.9275442989
H -5.5022841031 -2.8877017602 -1.1176957431
H -4.0794379576 -3.3765073132 -0.1274663015
H -0.3917005595 -2.5459147855 -2.6212489515
H -0.8136631193 -2.9141513602 -0.8950458517
H 1.4516422899 -3.4324365057 -0.4383002097
H 1.8658524957 -3.1226382696 -2.1611541647
$end

$rem
JOBTYPE                   OPT
METHOD                    B3LYP
DFT_D                     d3_op
BASIS                     STO-3G
GEOM_OPT_MAX_CYCLES       100
GEOM_OPT_TOL_GRADIENT     300
GEOM_OPT_TOL_DISPLACEMENT 1200
GEOM_OPT_TOL_ENERGY       100
SYMMETRY                  False
THRESH                    12
SCF_CONVERGENCE           8
MAX_SUB_FILE_NUM          128
MEM_STATIC                400
MEM_TOTAL                 4000
$end
--------------------------------------------------------------

   16   -1510.2685646513      6.30E-09 Convergence criterion met
 Total energy in the final basis set = -1510.26856465
   14   -1510.2731475527      7.01E-09 Convergence criterion met
 Total energy in the final basis set = -1510.27314755
   14   -1510.2744837539      3.10E-09 Convergence criterion met
 Total energy in the final basis set = -1510.27448375
   14   -1510.2771579286      8.09E-09 Convergence criterion met
 Total energy in the final basis set = -1510.27715793
   15   -1510.2775056800      3.58E-09 Convergence criterion met
 Total energy in the final basis set = -1510.27750568
   15   -1510.2825870459      2.06E-09 Convergence criterion met
 Total energy in the final basis set = -1510.28258705
   14   -1510.2832443222      5.02E-09 Convergence criterion met
 Total energy in the final basis set = -1510.28324432
   14   -1510.2878159235      4.35E-09 Convergence criterion met
   12   -1510.3041423357      4.82E-09 Convergence criterion met
 Total energy in the final basis set = -1510.30414234
   12   -1510.3041236012      2.67E-09 Convergence criterion met
 Total energy in the final basis set = -1510.30412360
   11   -1510.3041441991      8.25E-09 Convergence criterion met
 Total energy in the final basis set = -1510.30414420
   11   -1510.3041446946      6.44E-09 Convergence criterion met
 Total energy in the final basis set = -1510.30414469
   11   -1510.3041498040      4.59E-09 Convergence criterion met
 Total energy in the final basis set = -1510.30414980
    9   -1510.3041463901      8.67E-09 Convergence criterion met
 Total energy in the final basis set = -1510.30414639

             Standard Nuclear Orientation (Angstroms)
    I     Atom           X                Y                Z
 ----------------------------------------------------------------
    1      O       1.7073919385     0.6124668941     3.3494054594
    2      C       1.7972878050     0.4283785148     2.1160077642
    3      C       2.9389405347     0.9509377917     1.1769037143
    4      C       3.4639290489    -0.1014505917     0.1064069799
    5      C       2.7068150160    -1.4820681870     0.1697748832
    6      O       1.8870808040    -1.6212609794    -0.9968833423
    7      C       1.0744121366    -2.8553830969    -0.9076267365
    8      C       0.0283406518    -2.7802354064    -2.0754312288
    9      O      -0.5699597628    -1.4289494548    -2.2171196926
   10      C      -1.4237259121    -1.1265556882    -1.1161347669
   11      C      -1.9659481920     0.3262832783    -1.2872460330
   12      C      -3.2186796015     0.6434634110    -0.3709193922
   13      C      -3.6437580237    -0.5407561085     0.5726217991
   14      O      -3.4567564420    -0.6370299439     1.8039967866
   15      O       0.8474403400    -0.2916879979     1.3327671942
   16      O      -4.4080538574    -1.4735542789    -0.2075721994
   17      O      -1.6651512736    -1.9259441707    -0.1789915804
   18      C      -4.7617629300    -2.6463786893     0.6216543771
   19      C      -0.9190504353     1.4084571748    -0.7588855791
   20      C      -1.3525473841     2.8117859254    -1.3402174842
   21      C      -2.6152846083     3.1390029063    -0.4577094028
   22      C      -2.6701937753     1.8659401697     0.4738485677
   23      O      -1.2449629163     1.5233799319     0.6787747267
   24      H      -2.1882922961     0.4854854236    -2.3572869689
   25      H      -4.0913567674     0.9193991908    -0.9895737960
   26      H       0.1614672004     1.1552815267    -0.8990642969
   27      H      -0.5495104465     3.5499658416    -1.1860270381
   28      H      -1.5841110058     2.7645784301    -2.4161215244
   29      H      -2.4646108663     4.0500689052     0.1432080455
   30      H      -3.5334126140     3.2585426339    -1.0549447228
   31      H      -3.1778552244     2.0035058991     1.4481938909
   32      O       2.8274841564    -2.3628073677     1.0485241152
   33      C      -0.2157073267    -0.8624825646     2.1966789432
   34      C       2.4412851854     2.1235378512     0.2225055105
   35      C       3.7089382427     2.8892036107    -0.3216526342
   36      C       4.2660450397     1.8501101845    -1.3664586202
   37      C       3.2060230425     0.6850179901    -1.2425470575
   38      O       1.9436587466     1.4140221944    -0.9763907000
   39      H       3.7608884380     1.3010075738     1.8254210371
   40      H       4.5395948952    -0.3015860560     0.2624814753
   41      H      -0.7592197388    -0.0655450477     2.7401862702
   42      H       1.6427969542     2.7591218477     0.6523122420
   43      H       3.4097839158     3.8308042382    -0.8090015713
   44      H       4.4298974594     3.1179455727     0.4790713035
   45      H       4.2640149110     2.2641265811    -2.3873386628
   46      H       5.2853792527     1.5091881863    -1.1247198086
   47      H       3.0959837459     0.0413169051    -2.1354540149
   48      H       0.2104205157    -1.5813226120     2.9253421394
   49      H      -0.9124710393    -1.3753388591     1.5020759036
   50      H      -5.3883191189    -3.2972207791    -0.0158304506
   51      H      -5.3307279054    -2.3539377443     1.5277557195
   52      H      -3.8538642086    -3.1999497082     0.9384376535
   53      H       0.5248386697    -2.9693332380    -3.0480060698
   54      H      -0.7578803426    -3.5485053941    -1.9086286637
   55      H       0.5558463205    -2.9110998721     0.0721495038
   56      H       1.7021165974    -3.7666699209    -1.0259663154
 ----------------------------------------------------------------

    9   -1510.3041468181      8.43E-09 Convergence criterion met
 Total energy in the final basis set = -1510.30414682
 Final energy is   -1510.30414681811
 **  OPTIMIZATION CONVERGED  **

                    Orbital Energies (a.u.)
 --------------------------------------------------------------

 Alpha MOs
 -- Occupied --
-18.945 -18.929 -18.924 -18.918 -18.902 -18.883 -18.874 -18.866
-18.864 -18.860 -10.107 -10.098 -10.090 -10.088 -10.081 -10.073
-10.065 -10.064 -10.054 -10.049 -10.038 -10.035 -10.035 -10.034
-10.032 -10.028 -10.024 -10.023 -10.012 -10.008  -1.022  -1.008
 -0.998  -0.996  -0.979  -0.959  -0.945  -0.931  -0.924  -0.923
 -0.765  -0.756  -0.729  -0.720  -0.711  -0.705  -0.690  -0.653
 -0.642  -0.617  -0.595  -0.576  -0.549  -0.541  -0.536  -0.528
 -0.515  -0.500  -0.486  -0.467  -0.466  -0.450  -0.446  -0.443
 -0.436  -0.430  -0.422  -0.410  -0.406  -0.405  -0.402  -0.396
 -0.387  -0.376  -0.372  -0.361  -0.359  -0.355  -0.348  -0.343
 -0.339  -0.337  -0.335  -0.329  -0.326  -0.322  -0.319  -0.308
 -0.305  -0.303  -0.296  -0.295  -0.293  -0.287  -0.276  -0.272
 -0.268  -0.258  -0.248  -0.242  -0.239  -0.233  -0.220  -0.184
 -0.175  -0.165  -0.163  -0.159  -0.156  -0.148  -0.140  -0.140
 -0.134

          Ground-State Mulliken Net Atomic Charges

     Atom                 Charge (a.u.)
  ----------------------------------------
      1 O                    -0.211245
      2 C                     0.211156
      3 C                    -0.079865
      4 C                    -0.079076
      5 C                     0.216137
      6 O                    -0.173248
      7 C                    -0.049530
      8 C                    -0.045419
      9 O                    -0.161528
     10 C                     0.223204
     11 C                    -0.079812
     12 C                    -0.081635
     13 C                     0.213882
     14 O                    -0.218003
     15 O                    -0.171310
     16 O                    -0.176768
     17 O                    -0.219298
     18 C                    -0.128774
     19 C                     0.007715
     20 C                    -0.144300
     21 C                    -0.145307
     22 C                     0.024302
     23 O                    -0.195282
     24 H                     0.085943
     25 H                     0.082808
     26 H                     0.117733
     27 H                     0.073399
     28 H                     0.070517
     29 H                     0.074696
     30 H                     0.070702
     31 H                     0.084681
     32 O                    -0.220235
     33 C                    -0.136663
     34 C                     0.027265
     35 C                    -0.143085
     36 C                    -0.144067
     37 C                     0.027842
     38 O                    -0.187145
     39 H                     0.085645
     40 H                     0.084442
     41 H                     0.097571
     42 H                     0.089895
     43 H                     0.078420
     44 H                     0.076259
     45 H                     0.078468
     46 H                     0.074818
     47 H                     0.093423
     48 H                     0.081794
     49 H                     0.105845
     50 H                     0.085649
     51 H                     0.087167
     52 H                     0.090083
     53 H                     0.091964
     54 H                     0.091843
     55 H                     0.100621
     56 H                     0.085704
  ----------------------------------------
  Sum of atomic charges =    -0.000000

                    Cartesian Multipole Moments
 -----------------------------------------------------------------
    Charge (ESU x 10^10)
                 0.0000
    Dipole Moment (Debye)
         X       0.6025      Y       0.3631      Z      -3.8501
       Tot       3.9139
    Quadrupole Moments (Debye-Ang)
        XX    -147.1905     XY       4.9675     YY    -149.0501
        XZ      -3.2237     YZ       3.1995     ZZ    -169.0134

 Total job time:  109.63s(wall), 5232.63s(cpu)
        *  Thank you very much for using Q-Chem.  Have a nice day.  *
