 Q-Chem 5.0, Q-Chem, Inc., Pleasanton, CA (2017)
 Q-Chem 5.0.1 for Intel X86 EM64T Linux

User input:
--------------------------------------------------------------
$molecule
0  1
O -3.94934 -3.66094 2.70899
C -3.26408 -4.56952 2.26188
C -3.36658 -6.02376 2.66595
C -2.55839 -7.04032 1.84297
C -1.59978 -6.47073 0.82085
O -0.48667 -5.98731 1.44751
C 0.73439 -6.48163 0.88725
C 1.82692 -5.42248 0.99083
O 1.7213 -4.73151 2.24554
C 2.27637 -3.4946 2.27857
C 2.48718 -2.98163 3.68324
C 3.68221 -2.03225 3.85314
C 4.25901 -1.46049 2.57365
O 3.71864 -0.62432 1.86416
O -2.42652 -4.18153 1.26442
O 5.53086 -1.83801 2.27899
O 2.27118 -2.76666 1.2944
C 6.23912 -1.39424 1.18194
C 1.34929 -2.05935 4.17765
C 1.3088 -2.07848 5.70517
C 2.58639 -1.32763 6.03103
C 3.00988 -0.8856 4.62406
O 1.79543 -0.74874 3.92578
H 2.52917 -3.86051 4.36788
H 4.50813 -2.53566 4.40365
H 0.35345 -2.32675 3.76046
H 0.43997 -1.44959 6.00602
H 1.21269 -3.07824 6.18064
H 2.32706 -0.45564 6.67123
H 3.38374 -1.93458 6.51239
H 3.65356 0.02076 4.6688
O -1.66816 -6.72356 -0.37546
C -2.24947 -2.88804 0.81397
C -2.82526 -6.30192 4.07895
C -3.47494 -7.56566 4.64127
C -2.79752 -8.6314 3.80192
C -1.82466 -7.77065 2.98804
O -1.49752 -6.71872 3.86696
H -4.45272 -6.2644 2.61612
H -3.23589 -7.72759 1.28756
H -1.87679 -2.24429 1.63927
H -2.96737 -5.44814 4.77709
H -3.13054 -7.67366 5.69478
H -4.58587 -7.57536 4.6158
H -2.23478 -9.30848 4.48247
H -3.47433 -9.22554 3.15057
H -0.97722 -8.38762 2.61771
H -3.20668 -2.48384 0.42105
H -1.49932 -2.88882 -0.00328
H 7.24513 -1.86156 1.185
H 6.3573 -0.29029 1.22294
H 5.71357 -1.68171 0.24617
H 2.84588 -5.83315 0.82196
H 1.58494 -4.72402 0.15814
H 0.67764 -6.88978 -0.14748
H 1.06012 -7.31297 1.54848
$end

$opt
CONSTRAINT
tors           1           2           3           4    +171.373
tors           3           4           5           6     +76.068
tors           4           5           6           7    +128.760
tors           5           6           7           8    +147.168
tors           6           7           8           9     +38.762
tors           7           8           9          10    -157.067
tors           8           9          10          11    -163.723
tors           9          10          11          12    +149.668
tors          11          12          13          14     +71.049
ENDCONSTRAINT
$end

$rem
JOBTYPE                   OPT
METHOD                    B3LYP
DFT_D                     d3_op
BASIS                     STO-3G
GEOM_OPT_MAX_CYCLES       100
GEOM_OPT_TOL_GRADIENT     300
GEOM_OPT_TOL_DISPLACEMENT 1200
GEOM_OPT_TOL_ENERGY       100
SYMMETRY                  False
THRESH                    12
SCF_CONVERGENCE           8
MAX_SUB_FILE_NUM          128
MEM_STATIC                400
MEM_TOTAL                 4000
$end
--------------------------------------------------------------

   15   -1510.1223504657      1.00E-08 Convergence criterion met
 Total energy in the final basis set = -1510.12235047
   14   -1510.1951063261      5.82E-09 Convergence criterion met
 Total energy in the final basis set = -1510.19510633
   13   -1510.2343929215      7.74E-09 Convergence criterion met
 Total energy in the final basis set = -1510.23439292
   13   -1510.2516604219      7.21E-09 Convergence criterion met
 Total energy in the final basis set = -1510.25166042
   14   -1510.2576011604      2.81E-09 Convergence criterion met
 Total energy in the final basis set = -1510.25760116
   13   -1510.2597632219      6.01E-09 Convergence criterion met
 Total energy in the final basis set = -1510.25976322
   14   -1510.2607871053      2.17E-09 Convergence criterion met
 Total energy in the final basis set = -1510.26078711
   12   -1510.2612294805      6.92E-09 Convergence criterion met
   11   -1510.2613851713      4.78E-09 Convergence criterion met
 Total energy in the final basis set = -1510.26138517
   11   -1510.2614143182      5.81E-09 Convergence criterion met
 Total energy in the final basis set = -1510.26141432
   11   -1510.2614382401      4.43E-09 Convergence criterion met
 Total energy in the final basis set = -1510.26143824
    9   -1510.2614448616      7.29E-09 Convergence criterion met
 Total energy in the final basis set = -1510.26144486
   10   -1510.2614498473      7.02E-09 Convergence criterion met
 Total energy in the final basis set = -1510.26144985
    9   -1510.2614508500      7.92E-09 Convergence criterion met
 Total energy in the final basis set = -1510.26145085

             Standard Nuclear Orientation (Angstroms)
    I     Atom           X                Y                Z
 ----------------------------------------------------------------
    1      O       3.0859023372    -1.7185664545    -2.7040950334
    2      C       3.1343190804    -0.7725904624    -1.8871023242
    3      C       4.1078010502    -0.6718450325    -0.6616340454
    4      C       4.1651668331     0.6972555503     0.1406012032
    5      C       3.0997494294     1.7980225260    -0.2400935667
    6      O       1.7975784411     1.4688265396     0.3062090779
    7      C       1.2383191232     2.6146180803     1.0553594475
    8      C      -0.3163564556     2.5563216501     0.8674387017
    9      O      -0.6868663393     1.1209621959     0.9192627873
   10      C      -1.9354018651     0.8933733313     0.2534155428
   11      C      -2.4471546810    -0.5151414926     0.7088758938
   12      C      -4.0212177063    -0.6855917327     0.7494336576
   13      C      -4.8082575545     0.3942450195    -0.0796124914
   14      O      -4.8764454551     0.5103591953    -1.3207986526
   15      O       2.3070318788     0.3847911400    -1.9693268944
   16      O      -5.4536395148     1.2812494660     0.8462087651
   17      O      -2.4997312292     1.7334546492    -0.4808821824
   18      C      -6.1483593837     2.3571177809     0.1031153261
   19      C      -2.0229447016    -1.7254220802    -0.2412888506
   20      C      -2.0021964480    -3.0267666880     0.6496916713
   21      C      -3.5424849252    -3.2300702014     0.9026330440
   22      C      -4.1614503223    -2.0840663164     0.0062501469
   23      O      -3.1990878233    -1.9378779803    -1.1117469492
   24      H      -2.0248638220    -0.6798125000     1.7157885029
   25      H      -4.4030767210    -0.6970706277     1.7850137907
   26      H      -1.1124907696    -1.5455113137    -0.8456501592
   27      H      -1.5740285966    -3.8695113915     0.0834425204
   28      H      -1.4261934240    -2.8933983611     1.5794227624
   29      H      -3.8847344421    -4.2189408221     0.5587096648
   30      H      -3.8168339530    -3.1126295910     1.9634857711
   31      H      -5.1759575739    -2.2907200594    -0.3859439692
   32      O       3.3652240648     2.8934289193    -0.7805722950
   33      C       1.3420464385     0.2752781159    -3.0850608674
   34      C       3.7129721859    -1.6934301171     0.4994816041
   35      C       5.0131209430    -1.9866861757     1.3449250156
   36      C       5.1824906639    -0.6222259554     2.1103434972
   37      C       3.9060693267     0.1698250950     1.6170060407
   38      O       2.8858572580    -0.8849214752     1.4202603538
   39      H       5.1127342446    -0.9254769661    -1.0463402540
   40      H       5.1598683160     1.1648700046     0.0314655564
   41      H       0.6681459146    -0.5952491411    -2.9499851398
   42      H       3.1577869706    -2.5873186701     0.1542992143
   43      H       4.8334415885    -2.8200255103     2.0428878666
   44      H       5.8794034601    -2.2349190145     0.7111346608
   45      H       5.1515722065    -0.7631398903     3.2023087679
   46      H       6.1173182452    -0.1016299020     1.8480489068
   47      H       3.5338580012     0.9392401364     2.3200322810
   48      H       1.8587729336     0.1774290762    -4.0616482794
   49      H       0.7505367899     1.2090277171    -3.0660042941
   50      H      -6.6241366380     3.0000545028     0.8663548630
   51      H      -6.9253992453     1.9507044764    -0.5762129017
   52      H      -5.4356596884     2.9573357393    -0.4988292369
   53      H      -0.8336811782     3.1164233171     1.6776640838
   54      H      -0.6207309955     2.9883052852    -0.1096913188
   55      H       1.6340721833     3.5847655778     0.6827402507
   56      H       1.4967719988     2.5079099586     2.1333729843
 ----------------------------------------------------------------

    9   -1510.2614514119      4.97E-09 Convergence criterion met
 Total energy in the final basis set = -1510.26145141
 Final energy is   -1510.26145141186
 **  OPTIMIZATION CONVERGED  **

                    Orbital Energies (a.u.)
 --------------------------------------------------------------

 Alpha MOs
 -- Occupied --
-18.945 -18.928 -18.922 -18.906 -18.891 -18.885 -18.875 -18.874
-18.874 -18.863 -10.103 -10.099 -10.097 -10.088 -10.070 -10.069
-10.067 -10.062 -10.062 -10.057 -10.056 -10.055 -10.040 -10.037
-10.034 -10.032 -10.023 -10.022 -10.018 -10.016  -1.017  -1.010
 -0.999  -0.996  -0.972  -0.967  -0.939  -0.938  -0.924  -0.922
 -0.764  -0.759  -0.726  -0.720  -0.712  -0.705  -0.694  -0.663
 -0.655  -0.611  -0.598  -0.575  -0.546  -0.542  -0.539  -0.534
 -0.517  -0.509  -0.486  -0.474  -0.465  -0.457  -0.446  -0.436
 -0.435  -0.430  -0.425  -0.413  -0.410  -0.408  -0.404  -0.401
 -0.394  -0.384  -0.369  -0.366  -0.358  -0.350  -0.348  -0.343
 -0.342  -0.339  -0.332  -0.331  -0.328  -0.326  -0.323  -0.315
 -0.309  -0.309  -0.302  -0.300  -0.296  -0.290  -0.277  -0.274
 -0.270  -0.249  -0.247  -0.242  -0.236  -0.230  -0.229  -0.181
 -0.172  -0.168  -0.160  -0.153  -0.151  -0.147  -0.144  -0.142
 -0.137

          Ground-State Mulliken Net Atomic Charges

     Atom                 Charge (a.u.)
  ----------------------------------------
      1 O                    -0.214929
      2 C                     0.210879
      3 C                    -0.079339
      4 C                    -0.079976
      5 C                     0.224080
      6 O                    -0.177853
      7 C                    -0.046630
      8 C                    -0.047859
      9 O                    -0.168377
     10 C                     0.208702
     11 C                    -0.079719
     12 C                    -0.079938
     13 C                     0.211139
     14 O                    -0.205366
     15 O                    -0.162627
     16 O                    -0.174225
     17 O                    -0.210820
     18 C                    -0.129189
     19 C                     0.027318
     20 C                    -0.142023
     21 C                    -0.145424
     22 C                     0.026269
     23 O                    -0.184771
     24 H                     0.087584
     25 H                     0.084662
     26 H                     0.084250
     27 H                     0.077675
     28 H                     0.075772
     29 H                     0.077484
     30 H                     0.073063
     31 H                     0.083268
     32 O                    -0.211240
     33 C                    -0.123631
     34 C                     0.025904
     35 C                    -0.142933
     36 C                    -0.145098
     37 C                     0.027588
     38 O                    -0.184135
     39 H                     0.085543
     40 H                     0.083548
     41 H                     0.092172
     42 H                     0.085348
     43 H                     0.078152
     44 H                     0.074623
     45 H                     0.077618
     46 H                     0.073823
     47 H                     0.080145
     48 H                     0.092126
     49 H                     0.097755
     50 H                     0.086567
     51 H                     0.086873
     52 H                     0.092264
     53 H                     0.081315
     54 H                     0.095612
     55 H                     0.090904
     56 H                     0.076076
  ----------------------------------------
  Sum of atomic charges =    -0.000000

                    Cartesian Multipole Moments
 -----------------------------------------------------------------
    Charge (ESU x 10^10)
                -0.0000
    Dipole Moment (Debye)
         X       1.4001      Y      -0.0600      Z       3.5072
       Tot       3.7768
    Quadrupole Moments (Debye-Ang)
        XX    -148.2358     XY      -2.0957     YY    -156.7008
        XZ      -1.9836     YZ      -0.0592     ZZ    -161.6698

 Total job time:  44.00s(wall), 2092.09s(cpu)
        *  Thank you very much for using Q-Chem.  Have a nice day.  *
