 Q-Chem 5.0, Q-Chem, Inc., Pleasanton, CA (2017)
 Q-Chem 5.0.1 for Intel X86 EM64T Linux

User input:
--------------------------------------------------------------
$molecule
0  1
O 3.0859023372 -1.7185664545 -2.7040950334
C 3.1343190804 -0.7725904624 -1.8871023242
C 4.1078010502 -0.6718450325 -0.6616340454
C 4.1651668331 0.6972555503 0.1406012032
C 3.0997494294 1.798022526 -0.2400935667
O 1.7975784411 1.4688265396 0.3062090779
C 1.2383191232 2.6146180803 1.0553594475
C -0.3163564556 2.5563216501 0.8674387017
O -0.6868663393 1.1209621959 0.9192627873
C -1.9354018651 0.8933733313 0.2534155428
C -2.447154681 -0.5151414926 0.7088758938
C -4.0212177063 -0.6855917327 0.7494336576
C -4.8082575545 0.3942450195 -0.0796124914
O -4.8764454551 0.5103591953 -1.3207986526
O 2.3070318788 0.38479114 -1.9693268944
O -5.4536395148 1.281249466 0.8462087651
O -2.4997312292 1.7334546492 -0.4808821824
C -6.1483593837 2.3571177809 0.1031153261
C -2.0229447016 -1.7254220802 -0.2412888506
C -2.002196448 -3.026766688 0.6496916713
C -3.5424849252 -3.2300702014 0.902633044
C -4.1614503223 -2.0840663164 0.0062501469
O -3.1990878233 -1.9378779803 -1.1117469492
H -2.024863822 -0.6798125 1.7157885029
H -4.403076721 -0.6970706277 1.7850137907
H -1.1124907696 -1.5455113137 -0.8456501592
H -1.5740285966 -3.8695113915 0.0834425204
H -1.426193424 -2.8933983611 1.5794227624
H -3.8847344421 -4.2189408221 0.5587096648
H -3.816833953 -3.112629591 1.9634857711
H -5.1759575739 -2.2907200594 -0.3859439692
O 3.3652240648 2.8934289193 -0.780572295
C 1.3420464385 0.2752781159 -3.0850608674
C 3.7129721859 -1.6934301171 0.4994816041
C 5.013120943 -1.9866861757 1.3449250156
C 5.1824906639 -0.6222259554 2.1103434972
C 3.9060693267 0.169825095 1.6170060407
O 2.885857258 -0.8849214752 1.4202603538
H 5.1127342446 -0.9254769661 -1.046340254
H 5.159868316 1.1648700046 0.0314655564
H 0.6681459146 -0.5952491411 -2.9499851398
H 3.1577869706 -2.5873186701 0.1542992143
H 4.8334415885 -2.8200255103 2.0428878666
H 5.8794034601 -2.2349190145 0.7111346608
H 5.1515722065 -0.7631398903 3.2023087679
H 6.1173182452 -0.101629902 1.8480489068
H 3.5338580012 0.9392401364 2.320032281
H 1.8587729336 0.1774290762 -4.0616482794
H 0.7505367899 1.2090277171 -3.0660042941
H -6.624136638 3.0000545028 0.866354863
H -6.9253992453 1.9507044764 -0.5762129017
H -5.4356596884 2.9573357393 -0.4988292369
H -0.8336811782 3.1164233171 1.6776640838
H -0.6207309955 2.9883052852 -0.1096913188
H 1.6340721833 3.5847655778 0.6827402507
H 1.4967719988 2.5079099586 2.1333729843
$end

$rem
JOBTYPE                   OPT
METHOD                    B3LYP
DFT_D                     d3_op
BASIS                     STO-3G
GEOM_OPT_MAX_CYCLES       100
GEOM_OPT_TOL_GRADIENT     300
GEOM_OPT_TOL_DISPLACEMENT 1200
GEOM_OPT_TOL_ENERGY       100
SYMMETRY                  False
THRESH                    12
SCF_CONVERGENCE           8
MAX_SUB_FILE_NUM          128
MEM_STATIC                400
MEM_TOTAL                 4000
$end
--------------------------------------------------------------

   16   -1510.2614818933      4.96E-09 Convergence criterion met
 Total energy in the final basis set = -1510.26148189
   14   -1510.2669593097      8.51E-09 Convergence criterion met
 Total energy in the final basis set = -1510.26695931
   14   -1510.2718259908      6.99E-09 Convergence criterion met
 Total energy in the final basis set = -1510.27182599
   14   -1510.2768634065      6.39E-09 Convergence criterion met
 Total energy in the final basis set = -1510.27686341
   15   -1510.2294088592      8.46E-09 Convergence criterion met
 Total energy in the final basis set = -1510.22940886
   15   -1510.2775515713      6.23E-09 Convergence criterion met
 Total energy in the final basis set = -1510.27755157
   13   -1510.2815061276      5.66E-09 Convergence criterion met
 Total energy in the final basis set = -1510.28150613
   14   -1510.2853109848      1.89E-09 Convergence criterion met
   12   -1510.3020904674      3.22E-09 Convergence criterion met
 Total energy in the final basis set = -1510.30209047
   11   -1510.3020765395      7.19E-09 Convergence criterion met
 Total energy in the final basis set = -1510.30207654
   11   -1510.3020896557      5.47E-09 Convergence criterion met
 Total energy in the final basis set = -1510.30208966
    9   -1510.3020910048      9.20E-09 Convergence criterion met
 Total energy in the final basis set = -1510.30209100
   10   -1510.3020905561      5.37E-09 Convergence criterion met
 Total energy in the final basis set = -1510.30209056
    9   -1510.3020902787      8.79E-09 Convergence criterion met
 Total energy in the final basis set = -1510.30209028

             Standard Nuclear Orientation (Angstroms)
    I     Atom           X                Y                Z
 ----------------------------------------------------------------
    1      O       0.0978303690    -0.3901563521    -1.7699408758
    2      C       1.2382710290     0.0931400844    -1.6155846309
    3      C       2.4905642807    -0.6339157225    -1.0151460682
    4      C       3.4403809615     0.2708019554    -0.1252397069
    5      C       2.9144215407     1.7229196334     0.1411081396
    6      O       1.6499537659     1.6390710935     0.8225040713
    7      C       1.2206361102     2.9862989812     1.2663376782
    8      C      -0.3261161960     3.1086863618     1.0675900988
    9      O      -0.9833036481     1.9370526355     1.6981281256
   10      C      -1.5496657432     1.0776629081     0.7069130908
   11      C      -2.0268508383    -0.2275107962     1.4167346609
   12      C      -3.0421736571    -1.0942452544     0.5634537424
   13      C      -3.3569576937    -0.5028871997    -0.8600674929
   14      O      -2.9761650765    -0.9376070225    -1.9662992781
   15      O       1.6173021787     1.4162826698    -2.0132428002
   16      O      -4.2806846050     0.5850326545    -0.6893481863
   17      O      -1.6323956843     1.3545892134    -0.5129920239
   18      C      -4.5532252682     1.2132892061    -2.0001555092
   19      C      -0.8207901305    -1.2549428409     1.5881581101
   20      C      -1.2471382353    -2.3299514958     2.6620581146
   21      C      -2.2808626026    -3.1928462253     1.8441699251
   22      C      -2.2505576834    -2.4611997694     0.4450771091
   23      O      -0.8438147910    -2.0185153309     0.3212775186
   24      H      -2.4478523861     0.0516830539     2.3987212680
   25      H      -3.9977284916    -1.2115814641     1.1058328286
   26      H       0.1899740596    -0.8079865479     1.7281637831
   27      H      -0.3733172939    -2.9279067894     2.9662010189
   28      H      -1.6907846747    -1.8712655053     3.5600950301
   29      H      -1.9432045976    -4.2362076078     1.7397967626
   30      H      -3.2868264873    -3.1918665188     2.2935981896
   31      H      -2.5395107522    -3.0757346477    -0.4294008813
   32      O       3.5116822563     2.7956892831    -0.0960364636
   33      C       0.4367754522     2.1357725906    -2.5504638237
   34      C       2.0670441504    -1.7667068831     0.0116970899
   35      C       3.2694842585    -2.7721335021     0.1581526556
   36      C       4.2959292764    -1.8988809087     0.9754778297
   37      C       3.4599358286    -0.5790294655     1.2188888245
   38      O       2.0681518928    -1.0665900220     1.3204367359
   39      H       3.0616767981    -1.0635285107    -1.8594062631
   40      H       4.4455539014     0.3612828008    -0.5729829223
   41      H      -0.4553376153     1.9538075524    -1.9091959555
   42      H       1.0542807132    -2.1909509116    -0.1743253895
   43      H       2.9591481776    -3.6629032247     0.7273273561
   44      H       3.6666463935    -3.0968939186    -0.8166019628
   45      H       4.5580195839    -2.3719853489     1.9350522926
   46      H       5.2233422611    -1.6995620105     0.4149606604
   47      H       3.7394697951    -0.0044316366     2.1233010106
   48      H       0.2121898177     1.8076668809    -3.5858145590
   49      H       0.7071674478     3.2075731353    -2.5570182368
   50      H      -5.2870165572     2.0182009930    -1.8102172950
   51      H      -4.9769740561     0.4875291082    -2.7243525352
   52      H      -3.6302247603     1.6471044533    -2.4368487995
   53      H      -0.6986797501     4.0248434898     1.5716001356
   54      H      -0.5930017296     3.1380965351    -0.0087721492
   55      H       1.7681975362     3.7616642406     0.6863315194
   56      H       1.4703593494     3.1039049070     2.3434094757
 ----------------------------------------------------------------

    9   -1510.3020892139      6.26E-09 Convergence criterion met
 Total energy in the final basis set = -1510.30208921
 Final energy is   -1510.30208921390
 **  OPTIMIZATION CONVERGED  **

                    Orbital Energies (a.u.)
 --------------------------------------------------------------

 Alpha MOs
 -- Occupied --
-18.939 -18.925 -18.922 -18.914 -18.887 -18.886 -18.882 -18.869
-18.867 -18.859 -10.106 -10.096 -10.087 -10.084 -10.074 -10.068
-10.059 -10.052 -10.051 -10.043 -10.043 -10.042 -10.034 -10.034
-10.030 -10.028 -10.018 -10.014 -10.013 -10.011  -1.019  -1.007
 -0.997  -0.993  -0.968  -0.963  -0.944  -0.929  -0.925  -0.919
 -0.759  -0.756  -0.725  -0.716  -0.708  -0.700  -0.690  -0.651
 -0.649  -0.613  -0.593  -0.575  -0.541  -0.537  -0.533  -0.528
 -0.509  -0.501  -0.480  -0.477  -0.462  -0.451  -0.447  -0.433
 -0.429  -0.427  -0.421  -0.412  -0.406  -0.403  -0.398  -0.397
 -0.393  -0.373  -0.366  -0.364  -0.356  -0.350  -0.346  -0.344
 -0.338  -0.337  -0.331  -0.328  -0.323  -0.317  -0.316  -0.307
 -0.306  -0.300  -0.296  -0.293  -0.290  -0.283  -0.272  -0.269
 -0.265  -0.252  -0.243  -0.240  -0.238  -0.235  -0.217  -0.184
 -0.169  -0.164  -0.160  -0.158  -0.152  -0.144  -0.141  -0.136
 -0.134

          Ground-State Mulliken Net Atomic Charges

     Atom                 Charge (a.u.)
  ----------------------------------------
      1 O                    -0.196095
      2 C                     0.209488
      3 C                    -0.079731
      4 C                    -0.078580
      5 C                     0.216059
      6 O                    -0.176369
      7 C                    -0.053860
      8 C                    -0.053807
      9 O                    -0.168212
     10 C                     0.225333
     11 C                    -0.077617
     12 C                    -0.079471
     13 C                     0.216423
     14 O                    -0.208133
     15 O                    -0.175748
     16 O                    -0.178073
     17 O                    -0.210287
     18 C                    -0.128344
     19 C                     0.015213
     20 C                    -0.144060
     21 C                    -0.145196
     22 C                     0.027480
     23 O                    -0.188729
     24 H                     0.086505
     25 H                     0.082477
     26 H                     0.111874
     27 H                     0.077364
     28 H                     0.071685
     29 H                     0.075724
     30 H                     0.071719
     31 H                     0.088583
     32 O                    -0.218015
     33 C                    -0.143571
     34 C                     0.014107
     35 C                    -0.143905
     36 C                    -0.144256
     37 C                     0.027176
     38 O                    -0.194022
     39 H                     0.083813
     40 H                     0.084848
     41 H                     0.111428
     42 H                     0.114437
     43 H                     0.076693
     44 H                     0.073340
     45 H                     0.076452
     46 H                     0.073349
     47 H                     0.080732
     48 H                     0.082026
     49 H                     0.080884
     50 H                     0.084607
     51 H                     0.085966
     52 H                     0.090196
     53 H                     0.087628
     54 H                     0.099359
     55 H                     0.100539
     56 H                     0.082577
  ----------------------------------------
  Sum of atomic charges =     0.000000

                    Cartesian Multipole Moments
 -----------------------------------------------------------------
    Charge (ESU x 10^10)
                 0.0000
    Dipole Moment (Debye)
         X      -0.0435      Y       0.2602      Z       1.8877
       Tot       1.9061
    Quadrupole Moments (Debye-Ang)
        XX    -152.7850     XY      -7.9957     YY    -152.2360
        XZ      -1.1486     YZ      -2.4773     ZZ    -157.9056

 Total job time:  130.78s(wall), 6236.45s(cpu)
        *  Thank you very much for using Q-Chem.  Have a nice day.  *
