 Q-Chem 5.0, Q-Chem, Inc., Pleasanton, CA (2017)
 Q-Chem 5.0.1 for Intel X86 EM64T Linux

User input:
--------------------------------------------------------------
$molecule
0  1
O 3.3996405316 -2.9484809934 0.5904840525
C 3.1287506044 -1.7844135578 0.2156195455
C 3.6495078586 -0.488482955 0.9264771125
C 4.1210660254 0.7427016412 0.0443237252
C 3.4605458137 0.8584335648 -1.3778397186
O 2.0520537465 0.9933936052 -1.2051679198
C 1.3505277418 1.1301775546 -2.5007259259
C -0.0557226744 0.4713127428 -2.2978286966
O -0.8959029436 1.3963484572 -1.5039460458
C -1.5898285404 0.6704525292 -0.4546966288
C -3.1513417071 0.8498851553 -0.6044998508
C -3.9906698278 -0.3824665554 -0.0890256597
C -3.3372025218 -1.8062321334 -0.1518578564
O -3.8232723195 -2.8548369808 0.3254270877
O 2.3464567871 -1.5120882116 -0.9519993524
O -2.2355093218 -1.7981095691 -1.0705969141
O -1.0052144027 0.0544723551 0.4590392452
C -1.7037728703 -3.1686646793 -1.236740518
C -3.5897003792 1.9266561546 0.4867361326
C -5.1397578481 2.2272485569 0.376467047
C -5.7538081733 0.9853286041 1.1261349571
C -4.4569048721 0.1174500951 1.3502871583
O -3.4557988891 1.1379495278 1.7355361963
H -3.3973888645 1.1410475209 -1.6395780519
H -4.8902107337 -0.4732668617 -0.7288100959
H -2.9405910066 2.8230594826 0.5235931532
H -5.3890742898 3.1741276713 0.8807168847
H -5.4682125621 2.2904625125 -0.6736586152
H -6.1885687802 1.2781213961 2.0954555163
H -6.5213736555 0.4597741745 0.5360037056
H -4.5307725012 -0.6775216367 2.1176537916
O 4.045216584 0.848546708 -2.4842299792
C 2.0030376533 -2.7870941763 -1.6238524357
C 2.653661825 0.2254260957 1.9596309456
C 3.5616135021 0.7945553924 3.1181046833
C 4.3188701384 1.9423138209 2.3475189942
C 3.5714475489 1.930490748 0.9515696386
O 2.206867382 1.4587796924 1.2811895715
H 4.5226676841 -0.8509450289 1.4991200139
H 5.2180170657 0.7570783562 -0.0792011099
H 1.3841044634 -3.4392123302 -0.9751611242
H 1.7831541077 -0.381779848 2.2752560639
H 2.9342472551 1.2022908493 3.9271306697
H 4.2411951824 0.0378733485 3.5416555105
H 4.1949215826 2.9172597818 2.8446419679
H 5.3961855329 1.7382964947 2.2374802512
H 3.5261965125 2.9097229908 0.4368329368
H 2.9110010891 -3.3497582356 -1.9221825396
H 1.4294623599 -2.5075458845 -2.5264258147
H -1.0341820251 -3.1353750463 -2.1151815285
H -2.5170026638 -3.9021198708 -1.4094058074
H -1.1265340599 -3.4862542247 -0.3442115837
H -0.5407394245 0.2999937891 -3.2865675308
H 0.0835409356 -0.5038863352 -1.7853916375
H 1.925515601 0.6251301909 -3.3077964501
H 1.2351561581 2.2044030933 -2.7647051191
$end

$rem
JOBTYPE                   OPT
METHOD                    B3LYP
DFT_D                     d3_op
BASIS                     STO-3G
GEOM_OPT_MAX_CYCLES       100
GEOM_OPT_TOL_GRADIENT     300
GEOM_OPT_TOL_DISPLACEMENT 1200
GEOM_OPT_TOL_ENERGY       100
SYMMETRY                  False
THRESH                    12
SCF_CONVERGENCE           8
MAX_SUB_FILE_NUM          128
MEM_STATIC                400
MEM_TOTAL                 4000
$end
--------------------------------------------------------------

   16   -1510.2527164512      4.51E-09 Convergence criterion met
 Total energy in the final basis set = -1510.25271645
   14   -1510.2573431033      6.31E-09 Convergence criterion met
 Total energy in the final basis set = -1510.25734310
   14   -1510.2626892346      6.52E-09 Convergence criterion met
 Total energy in the final basis set = -1510.26268923
   14   -1510.2678186154      7.03E-09 Convergence criterion met
 Total energy in the final basis set = -1510.26781862
   14   -1510.2723811564      2.00E-09 Convergence criterion met
 Total energy in the final basis set = -1510.27238116
   14   -1510.2765979948      7.28E-09 Convergence criterion met
 Total energy in the final basis set = -1510.27659799
   14   -1510.2816039276      5.08E-09 Convergence criterion met
 Total energy in the final basis set = -1510.28160393
   15   -1510.1105875801      9.58E-09 Convergence criterion met
   12   -1510.3022666995      2.58E-09 Convergence criterion met
 Total energy in the final basis set = -1510.30226670
   11   -1510.3022745399      4.76E-09 Convergence criterion met
 Total energy in the final basis set = -1510.30227454
   11   -1510.3022808713      4.96E-09 Convergence criterion met
 Total energy in the final basis set = -1510.30228087
   10   -1510.3022835298      9.14E-09 Convergence criterion met
 Total energy in the final basis set = -1510.30228353
   10   -1510.3022851633      9.52E-09 Convergence criterion met
 Total energy in the final basis set = -1510.30228516
    9   -1510.3022881970      8.99E-09 Convergence criterion met
 Total energy in the final basis set = -1510.30228820

             Standard Nuclear Orientation (Angstroms)
    I     Atom           X                Y                Z
 ----------------------------------------------------------------
    1      O       0.4492956400    -1.0720648559     1.5698013591
    2      C       1.5758543983    -0.7591647578     1.1331472497
    3      C       2.2973540647     0.6240530077     1.2823459571
    4      C       3.1742311350     1.0596330228     0.0361007866
    5      C       3.0750812279     0.1160238146    -1.2123951998
    6      O       1.7102536428     0.0964244336    -1.6704620287
    7      C       1.6207946169    -0.6013010610    -2.9750002333
    8      C       0.3059518584    -1.4486338656    -3.0004468206
    9      O      -0.8286307183    -0.5929707712    -2.5722894921
   10      C      -1.3066428805    -0.9922023209    -1.2865263877
   11      C      -2.3633226605     0.0539123948    -0.8163802277
   12      C      -3.2966066648    -0.4591495530     0.3562926104
   13      C      -2.9799420891    -1.9222088190     0.8403638838
   14      O      -2.4660009816    -2.2705624008     1.9230053732
   15      O       2.4482742417    -1.6550520409     0.4325759463
   16      O      -3.4972661737    -2.8333391428    -0.1441196194
   17      O      -0.9257474236    -2.0170345861    -0.6727619947
   18      C      -3.1406278996    -4.2196352281     0.2275076073
   19      C      -1.6531860321     1.2978326305    -0.1182088751
   20      C      -2.7003511709     2.4767957556    -0.0340095996
   21      C      -3.6473389759     1.9705890505     1.1185292358
   22      C      -2.9674436200     0.5953324200     1.4904113948
   23      O      -1.5252820930     0.8622215480     1.2898414339
   24      H      -2.9456834618     0.3736666919    -1.6984920355
   25      H      -4.3571749548    -0.4204987131     0.0488758595
   26      H      -0.6471132740     1.5710739188    -0.5119220858
   27      H      -2.1925643347     3.4142690739     0.2432937115
   28      H      -3.2330690150     2.6327698801    -0.9855997434
   29      H      -3.6325022104     2.6535535153     1.9827766461
   30      H      -4.6903808286     1.8433920083     0.7875043021
   31      H      -3.1514489025     0.2238885390     2.5170326574
   32      O       4.0198634123    -0.4484176273    -1.8061825974
   33      C       1.7692236961    -2.9553069130     0.2153519898
   34      C       1.2581872528     1.8193123928     1.3803772971
   35      C       1.9906649667     3.0540565421     2.0293674737
   36      C       2.9441498830     3.4930876071     0.8542083189
   37      C       2.5288012505     2.4762532422    -0.2825578971
   38      O       1.0897348820     2.2481966702    -0.0304202898
   39      H       2.9268507399     0.5753739208     2.1905377751
   40      H       4.2424988141     1.1411524717     0.3020668027
   41      H       0.7243392477    -2.7935392697    -0.1345021792
   42      H       0.2680220908     1.5243867899     1.7957680842
   43      H       1.2659142154     3.8466234668     2.2750315294
   44      H       2.5398526386     2.7822767313     2.9448232139
   45      H       2.7456725508     4.5289460304     0.5363424261
   46      H       4.0104455509     3.4022935425     1.1159255693
   47      H       2.6913685755     2.8341780996    -1.3177729102
   48      H       1.7520487057    -3.5538660331     1.1487189363
   49      H       2.3645728819    -3.4870600704    -0.5494085527
   50      H      -3.5876792705    -4.8715313667    -0.5455816234
   51      H      -3.5418191376    -4.4962620530     1.2240766516
   52      H      -2.0400705920    -4.3593229593     0.2401988496
   53      H       0.1014448449    -1.7942575708    -4.0352244611
   54      H       0.3763012219    -2.3215090429    -2.3195438728
   55      H       2.5191765379    -1.2412831625    -3.1193116922
   56      H       1.5918554997     0.1597556190    -3.7853513373
 ----------------------------------------------------------------

    9   -1510.3022883687      8.26E-09 Convergence criterion met
 Total energy in the final basis set = -1510.30228837
 Final energy is   -1510.30228836870
 **  OPTIMIZATION CONVERGED  **

                    Orbital Energies (a.u.)
 --------------------------------------------------------------

 Alpha MOs
 -- Occupied --
-18.940 -18.924 -18.922 -18.914 -18.887 -18.887 -18.882 -18.868
-18.867 -18.859 -10.107 -10.095 -10.087 -10.085 -10.074 -10.068
-10.060 -10.051 -10.051 -10.044 -10.043 -10.041 -10.034 -10.034
-10.030 -10.028 -10.018 -10.015 -10.013 -10.012  -1.019  -1.006
 -0.997  -0.993  -0.969  -0.963  -0.944  -0.929  -0.925  -0.919
 -0.759  -0.757  -0.726  -0.717  -0.708  -0.701  -0.690  -0.651
 -0.648  -0.613  -0.593  -0.575  -0.541  -0.537  -0.534  -0.529
 -0.509  -0.501  -0.480  -0.477  -0.462  -0.451  -0.447  -0.433
 -0.429  -0.427  -0.421  -0.412  -0.406  -0.403  -0.399  -0.397
 -0.393  -0.372  -0.366  -0.364  -0.356  -0.350  -0.346  -0.344
 -0.338  -0.337  -0.332  -0.328  -0.323  -0.317  -0.316  -0.308
 -0.306  -0.300  -0.296  -0.293  -0.290  -0.283  -0.272  -0.269
 -0.265  -0.252  -0.243  -0.240  -0.237  -0.235  -0.217  -0.184
 -0.169  -0.165  -0.161  -0.158  -0.151  -0.144  -0.142  -0.137
 -0.134

          Ground-State Mulliken Net Atomic Charges

     Atom                 Charge (a.u.)
  ----------------------------------------
      1 O                    -0.195250
      2 C                     0.209722
      3 C                    -0.079596
      4 C                    -0.078543
      5 C                     0.216511
      6 O                    -0.177036
      7 C                    -0.053891
      8 C                    -0.053850
      9 O                    -0.167529
     10 C                     0.226120
     11 C                    -0.077629
     12 C                    -0.079483
     13 C                     0.216447
     14 O                    -0.208297
     15 O                    -0.175469
     16 O                    -0.178356
     17 O                    -0.210895
     18 C                    -0.128438
     19 C                     0.014425
     20 C                    -0.144209
     21 C                    -0.145147
     22 C                     0.027292
     23 O                    -0.188785
     24 H                     0.086716
     25 H                     0.082531
     26 H                     0.112146
     27 H                     0.077163
     28 H                     0.071711
     29 H                     0.075675
     30 H                     0.071687
     31 H                     0.089027
     32 O                    -0.218880
     33 C                    -0.143971
     34 C                     0.014356
     35 C                    -0.143815
     36 C                    -0.144311
     37 C                     0.027384
     38 O                    -0.193938
     39 H                     0.084058
     40 H                     0.084923
     41 H                     0.111609
     42 H                     0.113662
     43 H                     0.076623
     44 H                     0.073378
     45 H                     0.076486
     46 H                     0.073488
     47 H                     0.080971
     48 H                     0.082126
     49 H                     0.080837
     50 H                     0.084576
     51 H                     0.086169
     52 H                     0.090135
     53 H                     0.087778
     54 H                     0.099152
     55 H                     0.100340
     56 H                     0.082093
  ----------------------------------------
  Sum of atomic charges =     0.000000

                    Cartesian Multipole Moments
 -----------------------------------------------------------------
    Charge (ESU x 10^10)
                 0.0000
    Dipole Moment (Debye)
         X      -0.5100      Y       1.1699      Z      -1.5199
       Tot       1.9846
    Quadrupole Moments (Debye-Ang)
        XX    -156.6952     XY       2.8394     YY    -149.9131
        XZ       4.7941     YZ       6.4392     ZZ    -156.9630

 Total job time:  162.58s(wall), 7756.78s(cpu)
        *  Thank you very much for using Q-Chem.  Have a nice day.  *
