 Q-Chem 5.0, Q-Chem, Inc., Pleasanton, CA (2017)
 Q-Chem 5.0.1 for Intel X86 EM64T Linux

User input:
--------------------------------------------------------------
$molecule
0  1
O -3.94934 -3.66094 2.70899
C -3.26408 -4.56952 2.26188
C -3.36658 -6.02376 2.66595
C -3.24808 -7.07344 1.54882
C -2.86304 -6.56002 0.17906
O -1.64085 -5.9532 0.23766
C -1.19713 -5.45706 -1.0297
C -0.33995 -4.21062 -0.83535
O 0.96202 -4.58191 -0.35588
C 1.4373 -3.83979 0.67491
C 2.75127 -3.16614 0.35814
C 2.98292 -1.82891 1.07678
C 2.06533 -1.5405 2.24791
O 2.16884 -0.59239 3.01273
O -2.86302 -4.17786 1.02432
O 0.76773 -1.94568 2.16543
O 1.21172 -4.25546 1.80532
C -0.24111 -1.65242 3.06513
C 3.97987 -3.96549 0.83272
C 5.20527 -3.55429 0.0184
C 5.4436 -2.1568 0.5541
C 4.38254 -2.10161 1.65981
O 4.27612 -3.43426 2.10002
H 2.80663 -3.0403 -0.74799
H 2.94891 -0.94943 0.39708
H 3.83217 -5.06661 0.78323
H 6.04511 -4.20854 0.34565
H 5.09491 -3.62667 -1.08499
H 6.46835 -2.1175 0.98578
H 5.30614 -1.33496 -0.18168
H 4.67166 -1.35691 2.43422
O -3.52288 -6.75385 -0.83522
C -3.25228 -3.00528 0.37179
C -2.19221 -6.45199 3.56802
C -2.5942 -7.66953 4.4005
C -2.60947 -8.74837 3.33557
C -2.11783 -7.94906 2.12401
O -1.24399 -6.99777 2.68409
H -4.31732 -6.12831 3.23638
H -4.1945 -7.64583 1.42447
H -2.87544 -2.11347 0.91584
H -1.831 -5.63424 4.22993
H -1.75608 -7.8791 5.10327
H -3.53683 -7.55778 4.97825
H -1.86422 -9.52662 3.61327
H -3.59902 -9.21909 3.14936
H -1.68054 -8.62596 1.35722
H -4.36037 -2.96016 0.30064
H -2.87604 -2.98835 -0.66868
H -1.17549 -2.1497 2.73667
H -0.41605 -0.55641 3.10836
H 0.02723 -2.03324 4.07366
H -0.18439 -3.77289 -1.84515
H -0.80201 -3.42561 -0.21191
H -2.0547 -5.10452 -1.64913
H -0.64944 -6.24076 -1.59667
$end

$opt
CONSTRAINT
tors           1           2           3           4    +139.519
tors           3           4           5           6     +60.308
tors           4           5           6           7    +179.114
tors           5           6           7           8    +148.506
tors           6           7           8           9     +75.458
tors           7           8           9          10    -134.461
tors           8           9          10          11    -121.613
tors           9          10          11          12    +149.668
tors          11          12          13          14    +173.179
ENDCONSTRAINT
$end

$rem
JOBTYPE                   OPT
METHOD                    B3LYP
DFT_D                     d3_op
BASIS                     STO-3G
GEOM_OPT_MAX_CYCLES       100
GEOM_OPT_TOL_GRADIENT     300
GEOM_OPT_TOL_DISPLACEMENT 1200
GEOM_OPT_TOL_ENERGY       100
SYMMETRY                  False
THRESH                    12
SCF_CONVERGENCE           8
MAX_SUB_FILE_NUM          128
MEM_STATIC                400
MEM_TOTAL                 4000
$end
--------------------------------------------------------------

   15   -1510.0571699361      7.62E-09 Convergence criterion met
 Total energy in the final basis set = -1510.05716994
   14   -1510.1397385054      6.93E-09 Convergence criterion met
 Total energy in the final basis set = -1510.13973851
   14   -1510.1832935464      5.40E-09 Convergence criterion met
 Total energy in the final basis set = -1510.18329355
   15   -1510.2130390861      1.67E-09 Convergence criterion met
 Total energy in the final basis set = -1510.21303909
   13   -1510.2271006328      7.35E-09 Convergence criterion met
 Total energy in the final basis set = -1510.22710063
   13   -1510.2351220584      4.12E-09 Convergence criterion met
 Total energy in the final basis set = -1510.23512206
   13   -1510.2406753641      4.94E-09 Convergence criterion met
 Total energy in the final basis set = -1510.24067536
   13   -1510.2442124805      3.46E-09 Convergence criterion met
   10   -1510.2528088308      9.93E-09 Convergence criterion met
 Total energy in the final basis set = -1510.25280883
   11   -1510.2528304428      5.08E-09 Convergence criterion met
 Total energy in the final basis set = -1510.25283044
   11   -1510.2528473450      3.12E-09 Convergence criterion met
 Total energy in the final basis set = -1510.25284735
   10   -1510.2528576374      7.84E-09 Convergence criterion met
 Total energy in the final basis set = -1510.25285764
    9   -1510.2528624693      8.13E-09 Convergence criterion met
 Total energy in the final basis set = -1510.25286247
    9   -1510.2528640040      6.79E-09 Convergence criterion met
 Total energy in the final basis set = -1510.25286400

             Standard Nuclear Orientation (Angstroms)
    I     Atom           X                Y                Z
 ----------------------------------------------------------------
    1      O       3.3996405316    -2.9484809934     0.5904840525
    2      C       3.1287506044    -1.7844135578     0.2156195455
    3      C       3.6495078586    -0.4884829550     0.9264771125
    4      C       4.1210660254     0.7427016412     0.0443237252
    5      C       3.4605458137     0.8584335648    -1.3778397186
    6      O       2.0520537465     0.9933936052    -1.2051679198
    7      C       1.3505277418     1.1301775546    -2.5007259259
    8      C      -0.0557226744     0.4713127428    -2.2978286966
    9      O      -0.8959029436     1.3963484572    -1.5039460458
   10      C      -1.5898285404     0.6704525292    -0.4546966288
   11      C      -3.1513417071     0.8498851553    -0.6044998508
   12      C      -3.9906698278    -0.3824665554    -0.0890256597
   13      C      -3.3372025218    -1.8062321334    -0.1518578564
   14      O      -3.8232723195    -2.8548369808     0.3254270877
   15      O       2.3464567871    -1.5120882116    -0.9519993524
   16      O      -2.2355093218    -1.7981095691    -1.0705969141
   17      O      -1.0052144027     0.0544723551     0.4590392452
   18      C      -1.7037728703    -3.1686646793    -1.2367405180
   19      C      -3.5897003792     1.9266561546     0.4867361326
   20      C      -5.1397578481     2.2272485569     0.3764670470
   21      C      -5.7538081733     0.9853286041     1.1261349571
   22      C      -4.4569048721     0.1174500951     1.3502871583
   23      O      -3.4557988891     1.1379495278     1.7355361963
   24      H      -3.3973888645     1.1410475209    -1.6395780519
   25      H      -4.8902107337    -0.4732668617    -0.7288100959
   26      H      -2.9405910066     2.8230594826     0.5235931532
   27      H      -5.3890742898     3.1741276713     0.8807168847
   28      H      -5.4682125621     2.2904625125    -0.6736586152
   29      H      -6.1885687802     1.2781213961     2.0954555163
   30      H      -6.5213736555     0.4597741745     0.5360037056
   31      H      -4.5307725012    -0.6775216367     2.1176537916
   32      O       4.0452165840     0.8485467080    -2.4842299792
   33      C       2.0030376533    -2.7870941763    -1.6238524357
   34      C       2.6536618250     0.2254260957     1.9596309456
   35      C       3.5616135021     0.7945553924     3.1181046833
   36      C       4.3188701384     1.9423138209     2.3475189942
   37      C       3.5714475489     1.9304907480     0.9515696386
   38      O       2.2068673820     1.4587796924     1.2811895715
   39      H       4.5226676841    -0.8509450289     1.4991200139
   40      H       5.2180170657     0.7570783562    -0.0792011099
   41      H       1.3841044634    -3.4392123302    -0.9751611242
   42      H       1.7831541077    -0.3817798480     2.2752560639
   43      H       2.9342472551     1.2022908493     3.9271306697
   44      H       4.2411951824     0.0378733485     3.5416555105
   45      H       4.1949215826     2.9172597818     2.8446419679
   46      H       5.3961855329     1.7382964947     2.2374802512
   47      H       3.5261965125     2.9097229908     0.4368329368
   48      H       2.9110010891    -3.3497582356    -1.9221825396
   49      H       1.4294623599    -2.5075458845    -2.5264258147
   50      H      -1.0341820251    -3.1353750463    -2.1151815285
   51      H      -2.5170026638    -3.9021198708    -1.4094058074
   52      H      -1.1265340599    -3.4862542247    -0.3442115837
   53      H      -0.5407394245     0.2999937891    -3.2865675308
   54      H       0.0835409356    -0.5038863352    -1.7853916375
   55      H       1.9255156010     0.6251301909    -3.3077964501
   56      H       1.2351561581     2.2044030933    -2.7647051191
 ----------------------------------------------------------------

    9   -1510.2528645268      3.55E-09 Convergence criterion met
 Total energy in the final basis set = -1510.25286453
 Final energy is   -1510.25286452683
 **  OPTIMIZATION CONVERGED  **

                    Orbital Energies (a.u.)
 --------------------------------------------------------------

 Alpha MOs
 -- Occupied --
-18.938 -18.938 -18.923 -18.896 -18.887 -18.884 -18.884 -18.876
-18.870 -18.862 -10.103 -10.098 -10.096 -10.091 -10.069 -10.067
-10.067 -10.063 -10.059 -10.059 -10.056 -10.055 -10.039 -10.034
-10.034 -10.033 -10.021 -10.019 -10.017 -10.015  -1.015  -1.013
 -1.001  -0.994  -0.969  -0.965  -0.939  -0.934  -0.930  -0.921
 -0.763  -0.758  -0.724  -0.720  -0.707  -0.701  -0.692  -0.667
 -0.662  -0.608  -0.597  -0.574  -0.546  -0.540  -0.537  -0.533
 -0.512  -0.511  -0.484  -0.481  -0.467  -0.460  -0.449  -0.433
 -0.430  -0.428  -0.421  -0.413  -0.413  -0.408  -0.405  -0.405
 -0.387  -0.381  -0.368  -0.367  -0.364  -0.355  -0.350  -0.345
 -0.340  -0.335  -0.334  -0.330  -0.329  -0.323  -0.317  -0.312
 -0.309  -0.306  -0.303  -0.297  -0.293  -0.289  -0.285  -0.274
 -0.270  -0.259  -0.246  -0.237  -0.234  -0.229  -0.226  -0.179
 -0.178  -0.166  -0.158  -0.151  -0.149  -0.148  -0.143  -0.140
 -0.135

          Ground-State Mulliken Net Atomic Charges

     Atom                 Charge (a.u.)
  ----------------------------------------
      1 O                    -0.216347
      2 C                     0.206256
      3 C                    -0.080460
      4 C                    -0.078420
      5 C                     0.211345
      6 O                    -0.158704
      7 C                    -0.045968
      8 C                    -0.043213
      9 O                    -0.194904
     10 C                     0.227310
     11 C                    -0.078961
     12 C                    -0.079915
     13 C                     0.211765
     14 O                    -0.214343
     15 O                    -0.165168
     16 O                    -0.172475
     17 O                    -0.185381
     18 C                    -0.128898
     19 C                     0.024762
     20 C                    -0.145549
     21 C                    -0.141527
     22 C                     0.025997
     23 O                    -0.186661
     24 H                     0.084340
     25 H                     0.084149
     26 H                     0.085105
     27 H                     0.078522
     28 H                     0.073136
     29 H                     0.078411
     30 H                     0.073414
     31 H                     0.088924
     32 O                    -0.222978
     33 C                    -0.127908
     34 C                     0.028162
     35 C                    -0.141512
     36 C                    -0.145713
     37 C                     0.026427
     38 O                    -0.177487
     39 H                     0.084585
     40 H                     0.083698
     41 H                     0.088842
     42 H                     0.090114
     43 H                     0.078472
     44 H                     0.073503
     45 H                     0.077608
     46 H                     0.072606
     47 H                     0.081714
     48 H                     0.090748
     49 H                     0.085168
     50 H                     0.086461
     51 H                     0.093780
     52 H                     0.089456
     53 H                     0.075318
     54 H                     0.095729
     55 H                     0.091378
     56 H                     0.085292
  ----------------------------------------
  Sum of atomic charges =     0.000000

                    Cartesian Multipole Moments
 -----------------------------------------------------------------
    Charge (ESU x 10^10)
                -0.0000
    Dipole Moment (Debye)
         X      -1.2101      Y       0.3224      Z      -1.7800
       Tot       2.1764
    Quadrupole Moments (Debye-Ang)
        XX    -150.8728     XY      -1.4100     YY    -159.9907
        XZ      11.8770     YZ       7.1994     ZZ    -157.2672

 Total job time:  80.25s(wall), 3826.59s(cpu)
        *  Thank you very much for using Q-Chem.  Have a nice day.  *
