 Q-Chem 5.0, Q-Chem, Inc., Pleasanton, CA (2017)
 Q-Chem 5.0.1 for Intel X86 EM64T Linux

User input:
--------------------------------------------------------------
$molecule
0  1
O -3.94934 -3.66094 2.70899
C -3.26408 -4.56952 2.26188
C -3.36658 -6.02376 2.66595
C -2.72007 -7.05979 1.73186
C -1.8902 -6.51414 0.59096
O -0.9118 -5.69557 1.07893
C 0.02926 -5.28591 0.08102
C 1.07591 -4.36109 0.69369
O 1.4239 -4.81956 2.00959
C 1.09902 -3.98051 3.02428
C 1.67622 -4.41129 4.35166
C 1.99487 -3.26431 5.3218
C 1.37564 -1.92273 4.98503
O 0.83756 -1.16987 5.78392
O -2.68335 -4.18665 1.09452
O 1.73579 -1.39681 3.78181
O 0.09994 -3.27176 2.96758
C 1.3705 -0.14471 3.33237
C 0.80834 -5.26931 5.28666
C 1.68938 -6.07497 6.2438
C 2.17793 -4.98187 7.16436
C 1.37496 -3.79651 6.62303
O 0.17786 -4.36416 6.15689
H 2.58848 -5.00849 4.11959
H 3.09055 -3.08382 5.38981
H 0.17931 -5.96267 4.75792
H 1.01135 -6.7446 6.82125
H 2.48507 -6.68903 5.76967
H 1.86921 -5.23094 8.20399
H 3.2709 -4.78228 7.1267
H 1.27556 -3.01601 7.40874
O -2.06844 -6.78528 -0.59053
C -2.63162 -2.90265 0.58016
C -2.63669 -6.36141 3.97033
C -3.25012 -7.60648 4.61004
C -2.76134 -8.685 3.66037
C -1.87694 -7.85422 2.7221
O -1.38683 -6.84121 3.54376
H -4.45542 -6.22376 2.78685
H -3.48778 -7.71493 1.26171
H -2.09701 -2.23111 1.28528
H -2.62075 -5.51643 4.69316
H -2.74692 -7.7493 5.59328
H -4.34998 -7.56885 4.76383
H -2.14221 -9.40691 4.23794
H -3.55862 -9.22732 3.10747
H -1.11928 -8.49082 2.21469
H -3.65768 -2.51899 0.39593
H -2.08266 -2.91745 -0.38308
H 1.7974 0.01699 2.32143
H 1.76238 0.63849 4.01585
H 0.26372 -0.07059 3.26927
H 1.97379 -4.29925 0.04308
H 0.63584 -3.33759 0.70579
H -0.44522 -4.79389 -0.79772
H 0.56357 -6.20012 -0.26416
$end

$opt
CONSTRAINT
tors           1           2           3           4    +163.106
tors           3           4           5           6     +55.967
tors           4           5           6           7    +171.882
tors           5           6           7           8    +179.175
tors           6           7           8           9     +38.762
tors           7           8           9          10    -115.454
tors           8           9          10          11    -171.070
tors           9          10          11          12    +149.668
tors          11          12          13          14    +136.136
ENDCONSTRAINT
$end

$rem
JOBTYPE                   OPT
METHOD                    B3LYP
DFT_D                     d3_op
BASIS                     STO-3G
GEOM_OPT_MAX_CYCLES       100
GEOM_OPT_TOL_GRADIENT     300
GEOM_OPT_TOL_DISPLACEMENT 1200
GEOM_OPT_TOL_ENERGY       100
SYMMETRY                  False
THRESH                    12
SCF_CONVERGENCE           8
MAX_SUB_FILE_NUM          128
MEM_STATIC                400
MEM_TOTAL                 4000
$end
--------------------------------------------------------------

   15   -1510.1202237665      7.11E-09 Convergence criterion met
 Total energy in the final basis set = -1510.12022377
   14   -1510.1971271759      9.03E-09 Convergence criterion met
 Total energy in the final basis set = -1510.19712718
   15   -1510.2349565463      4.62E-09 Convergence criterion met
 Total energy in the final basis set = -1510.23495655
   14   -1510.2602659664      6.65E-09 Convergence criterion met
 Total energy in the final basis set = -1510.26026597
   14   -1510.2717486085      9.56E-09 Convergence criterion met
 Total energy in the final basis set = -1510.27174861
   14   -1510.2759501144      3.62E-09 Convergence criterion met
 Total energy in the final basis set = -1510.27595011
   13   -1510.2784084667      7.16E-09 Convergence criterion met
 Total energy in the final basis set = -1510.27840847
   13   -1510.2801432049      5.05E-09 Convergence criterion met
   12   -1510.2834980996      3.23E-09 Convergence criterion met
 Total energy in the final basis set = -1510.28349810
   12   -1510.2835661103      3.51E-09 Convergence criterion met
 Total energy in the final basis set = -1510.28356611
   11   -1510.2836174237      8.67E-09 Convergence criterion met
 Total energy in the final basis set = -1510.28361742
   11   -1510.2836442483      4.03E-09 Convergence criterion met
 Total energy in the final basis set = -1510.28364425
   11   -1510.2836528421      1.95E-09 Convergence criterion met
 Total energy in the final basis set = -1510.28365284
    9   -1510.2836502696      7.35E-09 Convergence criterion met
 Total energy in the final basis set = -1510.28365027

             Standard Nuclear Orientation (Angstroms)
    I     Atom           X                Y                Z
 ----------------------------------------------------------------
    1      O       2.2322742929    -0.5671879182     3.2892236864
    2      C       2.4754159233    -0.5725232849     2.0615355679
    3      C       2.9134437396     0.6978848629     1.2449945920
    4      C       3.5800592566     0.5415609842    -0.1889114800
    5      C       3.3188980945    -0.8102006387    -0.9491363141
    6      O       1.9106013594    -1.0242829649    -1.0735104068
    7      C       1.6484449489    -2.1884546456    -1.9539492868
    8      C       0.0879378144    -2.3426631871    -2.0011186553
    9      O      -0.5559139580    -1.0096171534    -2.0474163863
   10      C      -1.3338718968    -0.7747824123    -0.8707265510
   11      C      -2.1613580395     0.5374651956    -1.0866329274
   12      C      -3.5341484225     0.5069987725    -0.3026080141
   13      C      -3.9519279993    -0.8971214054     0.2581454684
   14      O      -4.4186114979    -1.1531047559     1.3880078180
   15      O       2.4798254610    -1.7575511252     1.2669334867
   16      O      -3.8831951374    -1.8473132873    -0.8174270416
   17      O      -1.3265866047    -1.5159332617     0.1378503328
   18      C      -4.2500132062    -3.1929846073    -0.3247830709
   19      C      -1.4457328654     1.7617262768    -0.3798033985
   20      C      -2.2175483252     3.0925095518    -0.7447805333
   21      C      -3.4705676622     3.0057507225     0.2054952650
   22      C      -3.2565738858     1.5773896749     0.8374356525
   23      O      -1.7886475262     1.5272812850     1.0435677930
   24      H      -2.2957303343     0.6959719274    -2.1707641232
   25      H      -4.3518934480     0.8461987144    -0.9656325196
   26      H      -0.3415993152     1.7822669816    -0.5390907223
   27      H      -1.5961515796     3.9741078274    -0.5205445228
   28      H      -2.4984230911     3.1237467281    -1.8098294810
   29      H      -3.4365358196     3.7804303885     0.9885170942
   30      H      -4.4266311587     3.0902359308    -0.3353017018
   31      H      -3.7933089425     1.3741312636     1.7849445233
   32      O       4.1892766866    -1.5599521177    -1.4439666698
   33      C       2.0231047571    -2.9152403904     2.0688269613
   34      C       1.7317847445     1.7200980862     0.9488062381
   35      C       2.3529685564     3.1687264328     0.9335429309
   36      C       3.2028586204     3.1112216826    -0.3910438314
   37      C       2.7993038731     1.6944033815    -0.9649078937
   38      O       1.4137751741     1.4955378503    -0.4768033484
   39      H       3.6412366384     1.2022835853     1.9078650046
   40      H       4.6703317188     0.7088129899    -0.1513175428
   41      H       0.9546570398    -2.8111423430     2.3485757601
   42      H       0.8256506549     1.5904373817     1.5732879551
   43      H       1.5534720815     3.9241929494     0.8661723820
   44      H       2.9624168111     3.3741751161     1.8277932116
   45      H       2.9155081178     3.9088896217    -1.0942913573
   46      H       4.2863788083     3.1812613558    -0.2033276117
   47      H       2.8336794369     1.6061109975    -2.0682173899
   48      H       2.6235888530    -3.0377374481     2.9931641649
   49      H       2.1504705945    -3.8008799934     1.4195055560
   50      H      -4.2640691055    -3.8525502043    -1.2119926967
   51      H      -5.2482402777    -3.1958235113     0.1585086996
   52      H      -3.5039425856    -3.5702770634     0.4047687376
   53      H      -0.2134836216    -2.9074121837    -2.9081230015
   54      H      -0.2702456087    -2.8645668673    -1.0869950514
   55      H       2.1199847682    -3.1141001691    -1.5568341375
   56      H       2.0588956912    -2.0014090526    -2.9703178326
 ----------------------------------------------------------------

    9   -1510.2836506117      5.24E-09 Convergence criterion met
 Total energy in the final basis set = -1510.28365061
 Final energy is   -1510.28365061171
 **  OPTIMIZATION CONVERGED  **

                    Orbital Energies (a.u.)
 --------------------------------------------------------------

 Alpha MOs
 -- Occupied --
-18.937 -18.927 -18.927 -18.922 -18.904 -18.873 -18.869 -18.867
-18.866 -18.866 -10.099 -10.096 -10.093 -10.091 -10.070 -10.069
-10.067 -10.064 -10.062 -10.057 -10.048 -10.041 -10.039 -10.034
-10.028 -10.026 -10.026 -10.023 -10.011 -10.009  -1.014  -1.008
 -1.002  -0.997  -0.981  -0.957  -0.935  -0.933  -0.927  -0.924
 -0.766  -0.754  -0.728  -0.717  -0.711  -0.704  -0.688  -0.661
 -0.654  -0.613  -0.596  -0.572  -0.548  -0.543  -0.536  -0.527
 -0.516  -0.498  -0.487  -0.475  -0.470  -0.454  -0.443  -0.438
 -0.433  -0.422  -0.420  -0.412  -0.410  -0.407  -0.403  -0.402
 -0.390  -0.373  -0.372  -0.367  -0.356  -0.351  -0.348  -0.346
 -0.343  -0.337  -0.336  -0.331  -0.326  -0.324  -0.317  -0.315
 -0.311  -0.303  -0.296  -0.294  -0.291  -0.287  -0.279  -0.276
 -0.262  -0.247  -0.246  -0.242  -0.238  -0.236  -0.219  -0.181
 -0.172  -0.165  -0.162  -0.154  -0.151  -0.150  -0.144  -0.143
 -0.133

          Ground-State Mulliken Net Atomic Charges

     Atom                 Charge (a.u.)
  ----------------------------------------
      1 O                    -0.214414
      2 C                     0.210564
      3 C                    -0.078982
      4 C                    -0.078042
      5 C                     0.215556
      6 O                    -0.162332
      7 C                    -0.044611
      8 C                    -0.051627
      9 O                    -0.170050
     10 C                     0.223677
     11 C                    -0.077061
     12 C                    -0.080392
     13 C                     0.214895
     14 O                    -0.213798
     15 O                    -0.165723
     16 O                    -0.176370
     17 O                    -0.217920
     18 C                    -0.128821
     19 C                     0.004765
     20 C                    -0.145924
     21 C                    -0.143364
     22 C                     0.023828
     23 O                    -0.197165
     24 H                     0.084676
     25 H                     0.082174
     26 H                     0.110676
     27 H                     0.072681
     28 H                     0.070506
     29 H                     0.075009
     30 H                     0.070729
     31 H                     0.088005
     32 O                    -0.219727
     33 C                    -0.126657
     34 C                     0.026349
     35 C                    -0.141962
     36 C                    -0.145570
     37 C                     0.029149
     38 O                    -0.185579
     39 H                     0.085383
     40 H                     0.086272
     41 H                     0.095436
     42 H                     0.100243
     43 H                     0.079304
     44 H                     0.077039
     45 H                     0.078774
     46 H                     0.075895
     47 H                     0.085021
     48 H                     0.091470
     49 H                     0.088910
     50 H                     0.086406
     51 H                     0.088708
     52 H                     0.089692
     53 H                     0.084126
     54 H                     0.098747
     55 H                     0.088215
     56 H                     0.083211
  ----------------------------------------
  Sum of atomic charges =     0.000000

                    Cartesian Multipole Moments
 -----------------------------------------------------------------
    Charge (ESU x 10^10)
                 0.0000
    Dipole Moment (Debye)
         X       0.5419      Y       0.7462      Z      -2.4622
       Tot       2.6292
    Quadrupole Moments (Debye-Ang)
        XX    -158.6041     XY       5.7414     YY    -143.1096
        XZ       7.8756     YZ       0.6683     ZZ    -166.1045

 Total job time:  61.71s(wall), 2939.80s(cpu)
        *  Thank you very much for using Q-Chem.  Have a nice day.  *
