 Q-Chem 5.0, Q-Chem, Inc., Pleasanton, CA (2017)
 Q-Chem 5.0.1 for Intel X86 EM64T Linux

User input:
--------------------------------------------------------------
$molecule
0  1
O 2.2322742929 -0.5671879182 3.2892236864
C 2.4754159233 -0.5725232849 2.0615355679
C 2.9134437396 0.6978848629 1.244994592
C 3.5800592566 0.5415609842 -0.18891148
C 3.3188980945 -0.8102006387 -0.9491363141
O 1.9106013594 -1.0242829649 -1.0735104068
C 1.6484449489 -2.1884546456 -1.9539492868
C 0.0879378144 -2.3426631871 -2.0011186553
O -0.555913958 -1.0096171534 -2.0474163863
C -1.3338718968 -0.7747824123 -0.870726551
C -2.1613580395 0.5374651956 -1.0866329274
C -3.5341484225 0.5069987725 -0.3026080141
C -3.9519279993 -0.8971214054 0.2581454684
O -4.4186114979 -1.1531047559 1.388007818
O 2.479825461 -1.7575511252 1.2669334867
O -3.8831951374 -1.8473132873 -0.8174270416
O -1.3265866047 -1.5159332617 0.1378503328
C -4.2500132062 -3.1929846073 -0.3247830709
C -1.4457328654 1.7617262768 -0.3798033985
C -2.2175483252 3.0925095518 -0.7447805333
C -3.4705676622 3.0057507225 0.205495265
C -3.2565738858 1.5773896749 0.8374356525
O -1.7886475262 1.527281285 1.043567793
H -2.2957303343 0.6959719274 -2.1707641232
H -4.351893448 0.8461987144 -0.9656325196
H -0.3415993152 1.7822669816 -0.5390907223
H -1.5961515796 3.9741078274 -0.5205445228
H -2.4984230911 3.1237467281 -1.809829481
H -3.4365358196 3.7804303885 0.9885170942
H -4.4266311587 3.0902359308 -0.3353017018
H -3.7933089425 1.3741312636 1.7849445233
O 4.1892766866 -1.5599521177 -1.4439666698
C 2.0231047571 -2.9152403904 2.0688269613
C 1.7317847445 1.7200980862 0.9488062381
C 2.3529685564 3.1687264328 0.9335429309
C 3.2028586204 3.1112216826 -0.3910438314
C 2.7993038731 1.6944033815 -0.9649078937
O 1.4137751741 1.4955378503 -0.4768033484
H 3.6412366384 1.2022835853 1.9078650046
H 4.6703317188 0.7088129899 -0.1513175428
H 0.9546570398 -2.811142343 2.3485757601
H 0.8256506549 1.5904373817 1.5732879551
H 1.5534720815 3.9241929494 0.866172382
H 2.9624168111 3.3741751161 1.8277932116
H 2.9155081178 3.9088896217 -1.0942913573
H 4.2863788083 3.1812613558 -0.2033276117
H 2.8336794369 1.6061109975 -2.0682173899
H 2.623588853 -3.0377374481 2.9931641649
H 2.1504705945 -3.8008799934 1.419505556
H -4.2640691055 -3.8525502043 -1.2119926967
H -5.2482402777 -3.1958235113 0.1585086996
H -3.5039425856 -3.5702770634 0.4047687376
H -0.2134836216 -2.9074121837 -2.9081230015
H -0.2702456087 -2.8645668673 -1.0869950514
H 2.1199847682 -3.1141001691 -1.5568341375
H 2.0588956912 -2.0014090526 -2.9703178326
$end

$rem
JOBTYPE                   OPT
METHOD                    B3LYP
DFT_D                     d3_op
BASIS                     STO-3G
GEOM_OPT_MAX_CYCLES       100
GEOM_OPT_TOL_GRADIENT     300
GEOM_OPT_TOL_DISPLACEMENT 1200
GEOM_OPT_TOL_ENERGY       100
SYMMETRY                  False
THRESH                    12
SCF_CONVERGENCE           8
MAX_SUB_FILE_NUM          128
MEM_STATIC                400
MEM_TOTAL                 4000
$end
--------------------------------------------------------------

   16   -1510.2836163538      5.25E-09 Convergence criterion met
 Total energy in the final basis set = -1510.28361635
   14   -1510.2830808121      9.74E-09 Convergence criterion met
 Total energy in the final basis set = -1510.28308081
   14   -1510.2832383199      5.85E-09 Convergence criterion met
 Total energy in the final basis set = -1510.28323832
   15   -1510.2883683856      2.23E-09 Convergence criterion met
 Total energy in the final basis set = -1510.28836839
   14   -1510.2802001700      7.02E-09 Convergence criterion met
 Total energy in the final basis set = -1510.28020017
   14   -1510.2918336556      4.28E-09 Convergence criterion met
 Total energy in the final basis set = -1510.29183366
   14   -1510.2865837958      9.79E-09 Convergence criterion met
 Total energy in the final basis set = -1510.28658380
   14   -1510.2898151343      3.25E-09 Convergence criterion met
   12   -1510.3022692568      4.94E-09 Convergence criterion met
 Total energy in the final basis set = -1510.30226926
   12   -1510.3022157178      5.16E-09 Convergence criterion met
 Total energy in the final basis set = -1510.30221572
   12   -1510.3022755610      3.26E-09 Convergence criterion met
 Total energy in the final basis set = -1510.30227556
   10   -1510.3022774778      8.36E-09 Convergence criterion met
 Total energy in the final basis set = -1510.30227748
    9   -1510.3022763981      8.11E-09 Convergence criterion met
 Total energy in the final basis set = -1510.30227640
    9   -1510.3022764177      1.64E-09 Convergence criterion met
 Total energy in the final basis set = -1510.30227642

             Standard Nuclear Orientation (Angstroms)
    I     Atom           X                Y                Z
 ----------------------------------------------------------------
    1      O       0.2049452223    -0.2855218030     1.9153381544
    2      C       1.3747598212    -0.4334043335     1.5062560912
    3      C       2.4035277525     0.6973326791     1.1587367323
    4      C       3.3787052592     0.3780123766    -0.0485691431
    5      C       3.0773190541    -0.9557831378    -0.8156394227
    6      O       1.7586418901    -0.8733192913    -1.3879267661
    7      C       1.5270860584    -2.0171486751    -2.3012541746
    8      C       0.0483682648    -2.4993184327    -2.1325339275
    9      O      -0.8566779404    -1.3273392888    -2.2359764501
   10      C      -1.4350547514    -1.0209480744    -0.9665812162
   11      C      -2.2184321250     0.3219952491    -1.0943047744
   12      C      -3.2718854879     0.5526013225     0.0657536231
   13      C      -3.3510666002    -0.6222898126     1.1083684554
   14      O      -2.9895967534    -0.6074808134     2.3028137907
   15      O       2.0100724569    -1.7039538769     1.3165888592
   16      O      -4.0391555798    -1.7169710636     0.4794736814
   17      O      -1.3190659756    -1.7328365450     0.0591809065
   18      C      -4.0674309448    -2.8788459789     1.3936689925
   19      C      -1.2439383579     1.5615215817    -0.8685175843
   20      C      -1.9843135940     2.8622930050    -1.3699370877
   21      C      -3.0305195580     3.0919755205    -0.2154971157
   22      C      -2.7078982107     1.8726604571     0.7348790697
   23      O      -1.2418524599     1.7172255077     0.6028425403
   24      H      -2.6852551810     0.3595067493    -2.0944204853
   25      H      -4.2815246576     0.7036983293    -0.3572731948
   26      H      -0.1960681703     1.4328823851    -1.2250020342
   27      H      -1.2716765896     3.6993764949    -1.4424188108
   28      H      -2.4596776892     2.7183605378    -2.3532887032
   29      H      -2.8536835307     4.0458981488     0.3066069454
   30      H      -4.0718630746     3.0742254599    -0.5749785091
   31      H      -2.9892270119     1.9946152155     1.7986751251
   32      O       3.8659897485    -1.9056811123    -1.0141531887
   33      C       1.0388812797    -2.7968279464     1.5652605170
   34      C       1.6760332376     2.0110793240     0.6481459999
   35      C       2.6681524412     3.2204880260     0.8315471464
   36      C       3.7224769656     2.9206989745    -0.3004244880
   37      C       3.0974607150     1.6359721965    -0.9795830541
   38      O       1.6415109581     1.8400196712    -0.8253393721
   39      H       2.9899685689     0.9069489401     2.0727952865
   40      H       4.4307542747     0.3357693225     0.2834503928
   41      H       0.0687078315    -2.5736423023     1.0660772184
   42      H       0.6353524199     2.1295593909     1.0268525992
   43      H       2.1490137219     4.1758953905     0.6539537186
   44      H       3.1176842357     3.2432765098     1.8369763838
   45      H       3.7865889601     3.7472737431    -1.0259311008
   46      H       4.7300636429     2.7238949837     0.0994218638
   47      H       3.3613385571     1.4898190800    -2.0450458574
   48      H       0.8664099676    -2.9346803658     2.6520535988
   49      H       1.4961104304    -3.7125884257     1.1477788692
   50      H      -4.6393216997    -3.6684111014     0.8720427873
   51      H      -4.5632320034    -2.6348920894     2.3555262050
   52      H      -3.0420183752    -3.2437244442     1.6090854852
   53      H      -0.2129215263    -3.2050234532    -2.9484534912
   54      H      -0.1034438617    -2.9886847263    -1.1486224153
   55      H       2.2486621869    -2.8318040465    -2.0703699433
   56      H       1.6935541604    -1.6789082686    -3.3472956126
 ----------------------------------------------------------------

    7   -1510.3022765937      9.05E-09 Convergence criterion met
 Total energy in the final basis set = -1510.30227659
 Final energy is   -1510.30227659370
 **  OPTIMIZATION CONVERGED  **

                    Orbital Energies (a.u.)
 --------------------------------------------------------------

 Alpha MOs
 -- Occupied --
-18.940 -18.923 -18.923 -18.914 -18.887 -18.886 -18.882 -18.868
-18.867 -18.859 -10.107 -10.095 -10.087 -10.085 -10.074 -10.068
-10.060 -10.051 -10.051 -10.044 -10.043 -10.042 -10.034 -10.034
-10.030 -10.028 -10.018 -10.015 -10.014 -10.012  -1.019  -1.006
 -0.997  -0.993  -0.969  -0.963  -0.944  -0.928  -0.925  -0.920
 -0.759  -0.757  -0.725  -0.717  -0.708  -0.701  -0.690  -0.651
 -0.648  -0.613  -0.593  -0.575  -0.541  -0.538  -0.534  -0.529
 -0.509  -0.501  -0.480  -0.478  -0.462  -0.451  -0.447  -0.433
 -0.429  -0.427  -0.421  -0.412  -0.406  -0.403  -0.399  -0.397
 -0.392  -0.372  -0.366  -0.364  -0.356  -0.350  -0.346  -0.344
 -0.338  -0.337  -0.332  -0.328  -0.323  -0.318  -0.316  -0.308
 -0.306  -0.300  -0.296  -0.293  -0.290  -0.283  -0.273  -0.269
 -0.265  -0.252  -0.243  -0.240  -0.237  -0.235  -0.217  -0.184
 -0.169  -0.165  -0.161  -0.159  -0.151  -0.144  -0.142  -0.137
 -0.135

          Ground-State Mulliken Net Atomic Charges

     Atom                 Charge (a.u.)
  ----------------------------------------
      1 O                    -0.195401
      2 C                     0.209858
      3 C                    -0.079656
      4 C                    -0.078535
      5 C                     0.216568
      6 O                    -0.177019
      7 C                    -0.053997
      8 C                    -0.053703
      9 O                    -0.167400
     10 C                     0.226173
     11 C                    -0.077458
     12 C                    -0.079546
     13 C                     0.216624
     14 O                    -0.208707
     15 O                    -0.175299
     16 O                    -0.178812
     17 O                    -0.211020
     18 C                    -0.128536
     19 C                     0.014359
     20 C                    -0.144415
     21 C                    -0.144883
     22 C                     0.027130
     23 O                    -0.188930
     24 H                     0.086721
     25 H                     0.082504
     26 H                     0.112304
     27 H                     0.077114
     28 H                     0.071750
     29 H                     0.075657
     30 H                     0.071678
     31 H                     0.089559
     32 O                    -0.218873
     33 C                    -0.143643
     34 C                     0.014286
     35 C                    -0.143876
     36 C                    -0.144311
     37 C                     0.027381
     38 O                    -0.194096
     39 H                     0.083925
     40 H                     0.084835
     41 H                     0.111581
     42 H                     0.113989
     43 H                     0.076552
     44 H                     0.073319
     45 H                     0.076357
     46 H                     0.073368
     47 H                     0.080992
     48 H                     0.082325
     49 H                     0.080895
     50 H                     0.084654
     51 H                     0.086371
     52 H                     0.089711
     53 H                     0.087834
     54 H                     0.099182
     55 H                     0.100422
     56 H                     0.082139
  ----------------------------------------
  Sum of atomic charges =     0.000000

                    Cartesian Multipole Moments
 -----------------------------------------------------------------
    Charge (ESU x 10^10)
                 0.0000
    Dipole Moment (Debye)
         X      -0.1833      Y       0.5144      Z      -1.9388
       Tot       2.0143
    Quadrupole Moments (Debye-Ang)
        XX    -155.1666     XY       6.2834     YY    -148.3409
        XZ       4.0544     YZ       1.2903     ZZ    -159.8354

 Total job time:  109.01s(wall), 5197.27s(cpu)
        *  Thank you very much for using Q-Chem.  Have a nice day.  *
