 Q-Chem 5.0, Q-Chem, Inc., Pleasanton, CA (2017)
 Q-Chem 5.0.1 for Intel X86 EM64T Linux

User input:
--------------------------------------------------------------
$molecule
0  1
O 2.4716727849 -0.959399993 3.1315579149
C 2.5095594342 -0.8350351095 1.8855913543
C 2.8382042845 0.5272539196 1.1708294329
C 3.5588689714 0.596743679 -0.2449147505
C 3.3426777752 -0.6051061399 -1.2386706113
O 1.9671571882 -0.9539653421 -1.2162452501
C 1.646460865 -2.0749206808 -2.1311738386
C 0.1424344334 -2.3481113641 -1.798815378
O -0.5913645222 -1.0725312788 -1.9650370138
C -1.1304568847 -0.6173859366 -0.7193964103
C -2.0738313551 0.5987241976 -1.0284739746
C -3.4593372774 0.4914706383 -0.2746799177
C -3.786453387 -0.9126587388 0.3391038697
O -4.4423576493 -1.1530978328 1.3744494719
O 2.2943620797 -1.923429586 0.9889553799
O -3.3275265518 -1.9224310785 -0.5726413692
O -0.8401430241 -1.1046728435 0.3952009988
C -3.5886519263 -3.2697200228 -0.0198792682
C -1.486644657 1.9190628738 -0.3810133926
C -2.359476612 3.1583493284 -0.8279712096
C -3.6237680835 3.0080467394 0.0993285674
C -3.3003100975 1.6399912594 0.8132431345
O -1.8387931719 1.7302302101 1.0479813424
H -2.1970947528 0.6753953316 -2.1224821851
H -4.2856609543 0.7344950853 -0.9691282674
H -0.3848214712 2.0148597004 -0.5245589422
H -1.8226261222 4.1004277271 -0.6333298466
H -2.6143950089 3.1158910001 -1.8991022511
H -3.6789764384 3.8226407117 0.8393474216
H -4.569396537 2.9768200896 -0.4649013138
H -3.8409461114 1.4446091695 1.7602387127
O 4.2070220684 -1.151737574 -1.9593896261
C 1.9295518261 -3.1386375082 1.7540471085
C 1.5779353443 1.477604826 0.9521780499
C 2.067606927 2.9531727954 1.2079803905
C 3.0335469001 3.1507476497 -0.0214600888
C 2.7575343393 1.8360589404 -0.8580789495
O 1.3606396829 1.4776990017 -0.5111801232
H 3.5053483739 1.0295126706 1.8956374167
H 4.6418659417 0.7867569379 -0.1481316851
H 0.9509212662 -3.0153681649 2.2610932809
H 0.650773824 1.1745503444 1.4785248087
H 1.2136266347 3.6485586547 1.1642296283
H 2.5746424894 3.0712979563 2.1785566243
H 2.773433792 4.0459281569 -0.6081328133
H 4.0905973172 3.223880502 0.2807815203
H 2.8641224733 1.9481722285 -1.954821232
H 2.6950051646 -3.3937485673 2.5149145088
H 1.8596927321 -3.9522969721 1.0087957998
H -3.2746297104 -3.9870302332 -0.800372393
H -4.6632648019 -3.4164522447 0.2117521542
H -3.000379839 -3.4471581205 0.9038722527
H -0.292547029 -3.0998246808 -2.4909841466
H 0.04703332 -2.682346186 -0.7430773608
H 2.2808345537 -2.9656730531 -1.9289611631
H 1.7782074965 -1.7751129207 -3.1938883133
$end

$rem
JOBTYPE                   OPT
METHOD                    B3LYP
DFT_D                     d3_op
BASIS                     STO-3G
GEOM_OPT_MAX_CYCLES       100
GEOM_OPT_TOL_GRADIENT     300
GEOM_OPT_TOL_DISPLACEMENT 1200
GEOM_OPT_TOL_ENERGY       100
SYMMETRY                  False
THRESH                    12
SCF_CONVERGENCE           8
MAX_SUB_FILE_NUM          128
MEM_STATIC                400
MEM_TOTAL                 4000
$end
--------------------------------------------------------------

   16   -1510.2815665015      5.73E-09 Convergence criterion met
 Total energy in the final basis set = -1510.28156650
   14   -1510.2796589606      9.75E-09 Convergence criterion met
 Total energy in the final basis set = -1510.27965896
   14   -1510.2784889308      7.46E-09 Convergence criterion met
 Total energy in the final basis set = -1510.27848893
   14   -1510.2846225196      9.66E-09 Convergence criterion met
 Total energy in the final basis set = -1510.28462252
   15   -1510.2706782548      4.02E-09 Convergence criterion met
 Total energy in the final basis set = -1510.27067825
   15   -1510.2866292012      4.02E-09 Convergence criterion met
 Total energy in the final basis set = -1510.28662920
   14   -1510.2876379003      7.73E-09 Convergence criterion met
 Total energy in the final basis set = -1510.28763790
   13   -1510.2899789395      5.62E-09 Convergence criterion met
   12   -1510.3023327521      3.77E-09 Convergence criterion met
 Total energy in the final basis set = -1510.30233275
   12   -1510.3023899139      4.54E-09 Convergence criterion met
 Total energy in the final basis set = -1510.30238991
   11   -1510.3023926814      6.84E-09 Convergence criterion met
 Total energy in the final basis set = -1510.30239268
   11   -1510.3023995854      5.35E-09 Convergence criterion met
 Total energy in the final basis set = -1510.30239959
   11   -1510.3023995177      5.11E-09 Convergence criterion met
 Total energy in the final basis set = -1510.30239952
    9   -1510.3024020666      6.57E-09 Convergence criterion met
 Total energy in the final basis set = -1510.30240207

             Standard Nuclear Orientation (Angstroms)
    I     Atom           X                Y                Z
 ----------------------------------------------------------------
    1      O       0.1712153035    -0.4259183786     1.8747022597
    2      C       1.3653874613    -0.4045014495     1.5123515567
    3      C       2.2580684566     0.8639007185     1.2902888996
    4      C       3.3030372275     0.7550542080     0.1028799535
    5      C       3.1826278803    -0.5415541933    -0.7705479388
    6      O       1.8702224309    -0.5822143043    -1.3615136804
    7      C       1.7971003172    -1.6730199654    -2.3624432371
    8      C       0.3839754912    -2.3384701906    -2.2743044932
    9      O      -0.6514373679    -1.2761699583    -2.3224133959
   10      C      -1.3008936689    -1.1429228001    -1.0571905154
   11      C      -2.2310896326     0.1082089498    -1.1183777328
   12      C      -3.3294563302     0.1450148549     0.0227081592
   13      C      -3.2796203320    -1.0798279129     1.0083862466
   14      O      -2.9213071264    -1.0809860001     2.2039201724
   15      O       2.1581294375    -1.5738239976     1.2704514778
   16      O      -3.8430453193    -2.2136206557     0.3273382642
   17      O      -1.1345297436    -1.9181677708    -0.0858186400
   18      C      -3.7420467471    -3.4110963786     1.1891914361
   19      C      -1.4120226556     1.4361402618    -0.7937407313
   20      C      -2.2804838934     2.6720978336    -1.2520025625
   21      C      -3.3845572014     2.7100764741    -0.1282843286
   22      C      -2.9474280440     1.4872188584     0.7696933855
   23      O      -1.4704481365     1.5099001216     0.6822791912
   24      H      -2.6797533455     0.1562032423    -2.1263891808
   25      H      -4.3412554998     0.1901629392    -0.4191175198
   26      H      -0.3469309933     1.4464900851    -1.1207709596
   27      H      -1.6682225016     3.5878888875    -1.2476036295
   28      H      -2.7027164060     2.5353232375    -2.2603460779
   29      H      -3.3405626943     3.6473613789     0.4489144099
   30      H      -4.4041163702     2.5894959039    -0.5280639186
   31      H      -3.2705279902     1.5214619688     1.8281059724
   32      O       4.0881286165    -1.3658467909    -1.0242162324
   33      C       1.3188410827    -2.7891061787     1.4061350244
   34      C       1.3924628587     2.1158790651     0.8433538233
   35      C       2.2223014665     3.4187536648     1.1527904919
   36      C       3.3406856430     3.3350909096     0.0446495604
   37      C       2.9016014675     2.0384518395    -0.7451513847
   38      O       1.4274848665     2.0534606316    -0.6386413560
   39      H       2.7854170002     1.0723671520     2.2398845212
   40      H       4.3419754810     0.8084109591     0.4723097690
   41      H       0.3379847910    -2.6420211205     0.8996369815
   42      H       0.3330453939     2.0796145042     1.1855379586
   43      H       1.5956917356     4.3155344375     1.0221198273
   44      H       2.6342709009     3.4205816824     2.1744234576
   45      H       3.3212304782     4.2142520952    -0.6187289891
   46      H       4.3529936999     3.2365051067     0.4684851901
   47      H       3.2154688816     2.0043517768    -1.8066374596
   48      H       1.1439628895    -3.0318359239     2.4739929303
   49      H       1.8888261380    -3.6096099671     0.9328136565
   50      H      -4.2197171645    -4.2360610432     0.6289793405
   51      H      -4.2648879841    -3.2676776494     2.1570636140
   52      H      -2.6825244338    -3.6669692146     1.3961430573
   53      H       0.2287007744    -3.0067049092    -3.1469492635
   54      H       0.2682337437    -2.9155408237    -1.3340098214
   55      H       2.6072744766    -2.4106858841    -2.1710405384
   56      H       1.9427938281    -1.2390813883    -3.3758112627
 ----------------------------------------------------------------

    8   -1510.3024021053      8.64E-09 Convergence criterion met
 Total energy in the final basis set = -1510.30240211
 Final energy is   -1510.30240210526
 **  OPTIMIZATION CONVERGED  **

                    Orbital Energies (a.u.)
 --------------------------------------------------------------

 Alpha MOs
 -- Occupied --
-18.940 -18.924 -18.923 -18.914 -18.886 -18.886 -18.883 -18.868
-18.867 -18.859 -10.107 -10.095 -10.087 -10.085 -10.074 -10.068
-10.059 -10.052 -10.051 -10.044 -10.043 -10.042 -10.034 -10.033
-10.030 -10.028 -10.018 -10.014 -10.014 -10.012  -1.019  -1.006
 -0.997  -0.993  -0.969  -0.963  -0.944  -0.928  -0.925  -0.919
 -0.759  -0.757  -0.725  -0.717  -0.708  -0.701  -0.690  -0.651
 -0.648  -0.613  -0.593  -0.575  -0.541  -0.537  -0.534  -0.529
 -0.509  -0.501  -0.480  -0.478  -0.462  -0.451  -0.447  -0.433
 -0.429  -0.427  -0.421  -0.412  -0.406  -0.403  -0.399  -0.397
 -0.393  -0.373  -0.366  -0.364  -0.356  -0.350  -0.346  -0.344
 -0.338  -0.338  -0.332  -0.328  -0.323  -0.318  -0.316  -0.308
 -0.306  -0.300  -0.296  -0.292  -0.290  -0.283  -0.272  -0.269
 -0.265  -0.252  -0.243  -0.240  -0.237  -0.235  -0.217  -0.184
 -0.169  -0.165  -0.161  -0.158  -0.151  -0.144  -0.142  -0.137
 -0.135

          Ground-State Mulliken Net Atomic Charges

     Atom                 Charge (a.u.)
  ----------------------------------------
      1 O                    -0.195756
      2 C                     0.209845
      3 C                    -0.079794
      4 C                    -0.078445
      5 C                     0.216332
      6 O                    -0.176762
      7 C                    -0.053906
      8 C                    -0.053718
      9 O                    -0.167635
     10 C                     0.225899
     11 C                    -0.077445
     12 C                    -0.079612
     13 C                     0.216561
     14 O                    -0.208366
     15 O                    -0.175425
     16 O                    -0.178397
     17 O                    -0.210594
     18 C                    -0.128425
     19 C                     0.015005
     20 C                    -0.144270
     21 C                    -0.145048
     22 C                     0.027467
     23 O                    -0.188869
     24 H                     0.086674
     25 H                     0.082590
     26 H                     0.111918
     27 H                     0.077309
     28 H                     0.071838
     29 H                     0.075776
     30 H                     0.071793
     31 H                     0.089193
     32 O                    -0.218797
     33 C                    -0.143628
     34 C                     0.013741
     35 C                    -0.143820
     36 C                    -0.144355
     37 C                     0.027363
     38 O                    -0.194354
     39 H                     0.083901
     40 H                     0.084870
     41 H                     0.111463
     42 H                     0.114322
     43 H                     0.076461
     44 H                     0.073229
     45 H                     0.076413
     46 H                     0.073393
     47 H                     0.080679
     48 H                     0.082145
     49 H                     0.080823
     50 H                     0.084598
     51 H                     0.086214
     52 H                     0.090031
     53 H                     0.087763
     54 H                     0.099223
     55 H                     0.100351
     56 H                     0.082238
  ----------------------------------------
  Sum of atomic charges =     0.000000

                    Cartesian Multipole Moments
 -----------------------------------------------------------------
    Charge (ESU x 10^10)
                 0.0000
    Dipole Moment (Debye)
         X      -0.2422      Y       0.5998      Z      -1.8665
       Tot       1.9754
    Quadrupole Moments (Debye-Ang)
        XX    -156.7868     XY       4.8506     YY    -147.4087
        XZ       4.2999     YZ       2.6125     ZZ    -159.2138

 Total job time:  118.05s(wall), 5625.67s(cpu)
        *  Thank you very much for using Q-Chem.  Have a nice day.  *
