 Q-Chem 5.0, Q-Chem, Inc., Pleasanton, CA (2017)
 Q-Chem 5.0.1 for Intel X86 EM64T Linux

User input:
--------------------------------------------------------------
$molecule
0  1
O -3.94934 -3.66094 2.70899
C -3.26408 -4.56952 2.26188
C -3.36658 -6.02376 2.66595
C -3.01031 -7.07531 1.60239
C -2.42104 -6.55475 0.31016
O -1.48692 -5.59542 0.57944
C -0.87354 -5.0604 -0.59817
C 0.04646 -3.90067 -0.23105
O 0.99894 -4.32529 0.75655
C 0.89828 -3.71565 1.96376
C 2.04927 -4.04186 2.88542
C 2.66573 -2.83285 3.60414
C 1.84183 -1.56106 3.58332
O 1.8169 -0.7181 4.4684
O -3.14454 -4.21267 0.94692
O 1.46149 -1.1334 2.34748
O -0.13412 -3.18969 2.36704
C 0.78764 0.04374 2.09284
C 1.6392 -4.90525 4.0959
C 2.85604 -5.66525 4.61895
C 3.66159 -4.52853 5.21382
C 2.66643 -3.3726 5.0482
O 1.40393 -3.9863 5.13321
H 2.81237 -4.6067 2.30087
H 3.67672 -2.57604 3.21887
H 0.81508 -5.61141 3.87357
H 2.49261 -6.31589 5.4469
H 3.39601 -6.29086 3.87609
H 3.8451 -4.75426 6.28767
H 4.62117 -4.3056 4.69873
H 2.87403 -2.58139 5.80155
O -2.82085 -6.8644 -0.80571
C -3.36751 -2.97112 0.35428
C -2.30483 -6.3571 3.73495
C -2.72999 -7.593 4.52732
C -2.50658 -8.67806 3.49496
C -1.91092 -7.85079 2.35124
O -1.20184 -6.8321 3.00688
H -4.37347 -6.17186 3.11701
H -3.86116 -7.74351 1.34243
H -2.70624 -2.2045 0.8111
H -2.10258 -5.51042 4.42798
H -1.99029 -7.72944 5.34867
H -3.75316 -7.54889 4.95857
H -1.74803 -9.38933 3.8913
H -3.41791 -9.23085 3.17986
H -1.31515 -8.49934 1.67105
H -4.42927 -2.6684 0.47664
H -3.15574 -3.03264 -0.73127
H 0.60171 0.12657 1.00242
H 1.39334 0.91535 2.42087
H -0.18977 0.04336 2.62199
H 0.59037 -3.55868 -1.13675
H -0.57721 -3.04156 0.09407
H -1.62538 -4.69079 -1.32992
H -0.26709 -5.85795 -1.08319
$end

$opt
CONSTRAINT
tors           1           2           3           4    +149.745
tors           3           4           5           6     +43.589
tors           4           5           6           7    +179.494
tors           5           6           7           8    +174.138
tors           6           7           8           9     +54.745
tors           7           8           9          10    -115.454
tors           8           9          10          11    -171.070
tors           9          10          11          12    +133.653
tors          11          12          13          14    +147.835
ENDCONSTRAINT
$end

$rem
JOBTYPE                   OPT
METHOD                    B3LYP
DFT_D                     d3_op
BASIS                     STO-3G
GEOM_OPT_MAX_CYCLES       100
GEOM_OPT_TOL_GRADIENT     300
GEOM_OPT_TOL_DISPLACEMENT 1200
GEOM_OPT_TOL_ENERGY       100
SYMMETRY                  False
THRESH                    12
SCF_CONVERGENCE           8
MAX_SUB_FILE_NUM          128
MEM_STATIC                400
MEM_TOTAL                 4000
$end
--------------------------------------------------------------

   15   -1510.0869632988      9.46E-09 Convergence criterion met
 Total energy in the final basis set = -1510.08696330
   15   -1510.1698119065      1.97E-09 Convergence criterion met
 Total energy in the final basis set = -1510.16981191
   15   -1510.2145279328      3.32E-09 Convergence criterion met
 Total energy in the final basis set = -1510.21452793
   15   -1510.2437645550      1.72E-09 Convergence criterion met
 Total energy in the final basis set = -1510.24376455
   15   -1510.2522001106      4.60E-09 Convergence criterion met
 Total energy in the final basis set = -1510.25220011
   13   -1510.2624421865      9.15E-09 Convergence criterion met
 Total energy in the final basis set = -1510.26244219
   13   -1510.2702076643      6.77E-09 Convergence criterion met
 Total energy in the final basis set = -1510.27020766
   13   -1510.2724748887      6.37E-09 Convergence criterion met
   12   -1510.2814223693      3.05E-09 Convergence criterion met
 Total energy in the final basis set = -1510.28142237
   11   -1510.2815060300      9.54E-09 Convergence criterion met
 Total energy in the final basis set = -1510.28150603
   11   -1510.2815379891      3.05E-09 Convergence criterion met
 Total energy in the final basis set = -1510.28153799
   11   -1510.2815487859      2.25E-09 Convergence criterion met
 Total energy in the final basis set = -1510.28154879
    9   -1510.2815511111      7.63E-09 Convergence criterion met
 Total energy in the final basis set = -1510.28155111
    9   -1510.2815526806      7.60E-09 Convergence criterion met
 Total energy in the final basis set = -1510.28155268

             Standard Nuclear Orientation (Angstroms)
    I     Atom           X                Y                Z
 ----------------------------------------------------------------
    1      O       2.4716727849    -0.9593999930     3.1315579149
    2      C       2.5095594342    -0.8350351095     1.8855913543
    3      C       2.8382042845     0.5272539196     1.1708294329
    4      C       3.5588689714     0.5967436790    -0.2449147505
    5      C       3.3426777752    -0.6051061399    -1.2386706113
    6      O       1.9671571882    -0.9539653421    -1.2162452501
    7      C       1.6464608650    -2.0749206808    -2.1311738386
    8      C       0.1424344334    -2.3481113641    -1.7988153780
    9      O      -0.5913645222    -1.0725312788    -1.9650370138
   10      C      -1.1304568847    -0.6173859366    -0.7193964103
   11      C      -2.0738313551     0.5987241976    -1.0284739746
   12      C      -3.4593372774     0.4914706383    -0.2746799177
   13      C      -3.7864533870    -0.9126587388     0.3391038697
   14      O      -4.4423576493    -1.1530978328     1.3744494719
   15      O       2.2943620797    -1.9234295860     0.9889553799
   16      O      -3.3275265518    -1.9224310785    -0.5726413692
   17      O      -0.8401430241    -1.1046728435     0.3952009988
   18      C      -3.5886519263    -3.2697200228    -0.0198792682
   19      C      -1.4866446570     1.9190628738    -0.3810133926
   20      C      -2.3594766120     3.1583493284    -0.8279712096
   21      C      -3.6237680835     3.0080467394     0.0993285674
   22      C      -3.3003100975     1.6399912594     0.8132431345
   23      O      -1.8387931719     1.7302302101     1.0479813424
   24      H      -2.1970947528     0.6753953316    -2.1224821851
   25      H      -4.2856609543     0.7344950853    -0.9691282674
   26      H      -0.3848214712     2.0148597004    -0.5245589422
   27      H      -1.8226261222     4.1004277271    -0.6333298466
   28      H      -2.6143950089     3.1158910001    -1.8991022511
   29      H      -3.6789764384     3.8226407117     0.8393474216
   30      H      -4.5693965370     2.9768200896    -0.4649013138
   31      H      -3.8409461114     1.4446091695     1.7602387127
   32      O       4.2070220684    -1.1517375740    -1.9593896261
   33      C       1.9295518261    -3.1386375082     1.7540471085
   34      C       1.5779353443     1.4776048260     0.9521780499
   35      C       2.0676069270     2.9531727954     1.2079803905
   36      C       3.0335469001     3.1507476497    -0.0214600888
   37      C       2.7575343393     1.8360589404    -0.8580789495
   38      O       1.3606396829     1.4776990017    -0.5111801232
   39      H       3.5053483739     1.0295126706     1.8956374167
   40      H       4.6418659417     0.7867569379    -0.1481316851
   41      H       0.9509212662    -3.0153681649     2.2610932809
   42      H       0.6507738240     1.1745503444     1.4785248087
   43      H       1.2136266347     3.6485586547     1.1642296283
   44      H       2.5746424894     3.0712979563     2.1785566243
   45      H       2.7734337920     4.0459281569    -0.6081328133
   46      H       4.0905973172     3.2238805020     0.2807815203
   47      H       2.8641224733     1.9481722285    -1.9548212320
   48      H       2.6950051646    -3.3937485673     2.5149145088
   49      H       1.8596927321    -3.9522969721     1.0087957998
   50      H      -3.2746297104    -3.9870302332    -0.8003723930
   51      H      -4.6632648019    -3.4164522447     0.2117521542
   52      H      -3.0003798390    -3.4471581205     0.9038722527
   53      H      -0.2925470290    -3.0998246808    -2.4909841466
   54      H       0.0470333200    -2.6823461860    -0.7430773608
   55      H       2.2808345537    -2.9656730531    -1.9289611631
   56      H       1.7782074965    -1.7751129207    -3.1938883133
 ----------------------------------------------------------------

    9   -1510.2815536275      4.14E-09 Convergence criterion met
 Total energy in the final basis set = -1510.28155363
 Final energy is   -1510.28155362751
 **  OPTIMIZATION CONVERGED  **

                    Orbital Energies (a.u.)
 --------------------------------------------------------------

 Alpha MOs
 -- Occupied --
-18.933 -18.932 -18.929 -18.920 -18.901 -18.875 -18.874 -18.865
-18.864 -18.858 -10.097 -10.095 -10.095 -10.090 -10.070 -10.066
-10.065 -10.064 -10.060 -10.060 -10.050 -10.039 -10.036 -10.036
-10.031 -10.026 -10.024 -10.020 -10.013 -10.011  -1.012  -1.009
 -1.004  -0.995  -0.978  -0.959  -0.935  -0.933  -0.928  -0.921
 -0.764  -0.755  -0.727  -0.717  -0.708  -0.704  -0.689  -0.660
 -0.659  -0.612  -0.596  -0.574  -0.544  -0.540  -0.538  -0.528
 -0.515  -0.502  -0.487  -0.477  -0.466  -0.457  -0.444  -0.436
 -0.430  -0.424  -0.417  -0.410  -0.408  -0.407  -0.406  -0.404
 -0.390  -0.375  -0.368  -0.366  -0.355  -0.352  -0.347  -0.343
 -0.343  -0.338  -0.333  -0.330  -0.327  -0.323  -0.316  -0.313
 -0.310  -0.304  -0.298  -0.295  -0.288  -0.286  -0.281  -0.274
 -0.264  -0.250  -0.248  -0.238  -0.238  -0.235  -0.222  -0.177
 -0.175  -0.166  -0.160  -0.154  -0.150  -0.147  -0.143  -0.142
 -0.134

          Ground-State Mulliken Net Atomic Charges

     Atom                 Charge (a.u.)
  ----------------------------------------
      1 O                    -0.217254
      2 C                     0.209485
      3 C                    -0.079112
      4 C                    -0.077260
      5 C                     0.211603
      6 O                    -0.159266
      7 C                    -0.041974
      8 C                    -0.048814
      9 O                    -0.173280
     10 C                     0.225018
     11 C                    -0.077449
     12 C                    -0.080216
     13 C                     0.213637
     14 O                    -0.211613
     15 O                    -0.162705
     16 O                    -0.172212
     17 O                    -0.223340
     18 C                    -0.128304
     19 C                     0.006983
     20 C                    -0.146109
     21 C                    -0.143087
     22 C                     0.024231
     23 O                    -0.195863
     24 H                     0.084581
     25 H                     0.083206
     26 H                     0.106813
     27 H                     0.073506
     28 H                     0.071156
     29 H                     0.075552
     30 H                     0.071066
     31 H                     0.087282
     32 O                    -0.220319
     33 C                    -0.127343
     34 C                     0.025760
     35 C                    -0.141645
     36 C                    -0.146037
     37 C                     0.027036
     38 O                    -0.186365
     39 H                     0.084867
     40 H                     0.085685
     41 H                     0.093731
     42 H                     0.102756
     43 H                     0.079631
     44 H                     0.077327
     45 H                     0.078094
     46 H                     0.075444
     47 H                     0.083503
     48 H                     0.089954
     49 H                     0.085530
     50 H                     0.088270
     51 H                     0.090291
     52 H                     0.090649
     53 H                     0.081684
     54 H                     0.100952
     55 H                     0.088132
     56 H                     0.086154
  ----------------------------------------
  Sum of atomic charges =    -0.000000

                    Cartesian Multipole Moments
 -----------------------------------------------------------------
    Charge (ESU x 10^10)
                -0.0000
    Dipole Moment (Debye)
         X      -0.1890      Y       0.2155      Z      -2.0982
       Tot       2.1177
    Quadrupole Moments (Debye-Ang)
        XX    -160.8434     XY       5.1582     YY    -141.2787
        XZ       8.2926     YZ       0.5875     ZZ    -168.2359

 Total job time:  68.70s(wall), 3272.58s(cpu)
        *  Thank you very much for using Q-Chem.  Have a nice day.  *
