 Q-Chem 5.0, Q-Chem, Inc., Pleasanton, CA (2017)
 Q-Chem 5.0.1 for Intel X86 EM64T Linux

User input:
--------------------------------------------------------------
$molecule
0  1
O 2.2294093885 -1.1764768405 2.8447795618
C 2.3012503487 -0.601217393 1.7352173223
C 1.9742060614 0.9148417176 1.5006587376
C 2.6424731525 1.6959690296 0.2906472176
C 3.0796779095 0.8129656739 -0.9329703618
O 1.9333521678 0.0881471217 -1.3852924553
C 2.2068021807 -0.6200898374 -2.6500403013
C 0.8811249134 -1.3861736074 -3.0184334611
O -0.3649515003 -0.6351000524 -2.7293803913
C -0.8070348987 -0.8084880378 -1.3837686304
C -2.2760447229 -0.2665827414 -1.2731421456
C -2.9755472909 -0.7341274457 0.0671012477
C -2.038467685 -1.577339698 1.0120781672
O -1.6410422821 -1.2493774336 2.1531856937
O 2.7732665023 -1.2523966337 0.5529368044
O -2.0033328461 -2.9251763289 0.5081258776
O -0.15203264 -1.3737044567 -0.4782160221
C -1.1493960026 -3.7560651673 1.3830472981
C -2.4002274281 1.3148925398 -1.1301650391
C -3.9025131149 1.7052366778 -1.4323979121
C -4.616030485 1.2233861229 -0.1128941735
C -3.390367306 0.6511214296 0.7035384261
O -2.2788538682 1.5507177842 0.3244305274
H -2.8271308831 -0.6155932441 -2.1645506671
H -3.8578146759 -1.3598849955 -0.1591332896
H -1.629286269 1.8879249002 -1.6790647922
H -3.99542716 2.7948769853 -1.5660455628
H -4.2898113904 1.2044532207 -2.333919661
H -5.0805806227 2.0649241909 0.4252841176
H -5.3841527708 0.4563123753 -0.3005333966
H -3.5090023721 0.6273388019 1.8041027628
O 4.2004111662 0.7782971677 -1.4860084497
C 3.0471096536 -2.6785496009 0.8332233677
C 0.4241028372 1.2435114779 1.2836894737
C 0.1588871685 2.6518909409 1.9373549688
C 0.9787421735 3.582096916 0.9664396759
C 1.3887432238 2.5609946036 -0.1712882154
O 0.3077701894 1.5526605491 -0.1582685804
H 2.2932715536 1.4028309046 2.44014641
H 3.5051146452 2.3025266967 0.6162396311
H 2.1151812687 -3.2269065286 1.0811718913
H -0.2790122652 0.4358177113 1.5780541981
H -0.9194205676 2.8724273315 1.8840770511
H 0.4952701762 2.7129985001 2.9846256309
H 0.3567462338 4.3923704446 0.5547304134
H 1.8620402507 4.0283814695 1.4515415148
H 1.4914239973 3.0033093337 -1.1813999358
H 3.7639166084 -2.8052682146 1.6701339383
H 3.4806992727 -3.0920303769 -0.0958778699
H -1.1806451899 -4.77904564 0.964595893
H -1.5209953362 -3.7692976142 2.4282866973
H -0.1025627788 -3.3882643119 1.3875362072
H 0.8612280954 -1.5866088405 -4.1090900644
H 0.8625659826 -2.3515460455 -2.4687752266
H 3.0418259053 -1.3473042666 -2.5447123021
H 2.4783084573 0.103113025 -3.4504862245
$end

$rem
JOBTYPE                   OPT
METHOD                    B3LYP
DFT_D                     d3_op
BASIS                     STO-3G
GEOM_OPT_MAX_CYCLES       100
GEOM_OPT_TOL_GRADIENT     300
GEOM_OPT_TOL_DISPLACEMENT 1200
GEOM_OPT_TOL_ENERGY       100
SYMMETRY                  False
THRESH                    12
SCF_CONVERGENCE           8
MAX_SUB_FILE_NUM          128
MEM_STATIC                400
MEM_TOTAL                 4000
$end
--------------------------------------------------------------

   16   -1510.2844751747      6.27E-09 Convergence criterion met
 Total energy in the final basis set = -1510.28447517
   14   -1510.2760520525      4.16E-09 Convergence criterion met
 Total energy in the final basis set = -1510.27605205
   14   -1510.2795185959      4.65E-09 Convergence criterion met
 Total energy in the final basis set = -1510.27951860
   14   -1510.2882641066      4.77E-09 Convergence criterion met
 Total energy in the final basis set = -1510.28826411
   15   -1510.2685437169      3.96E-09 Convergence criterion met
 Total energy in the final basis set = -1510.26854372
   14   -1510.2912539794      8.81E-09 Convergence criterion met
 Total energy in the final basis set = -1510.29125398
   13   -1510.2936488381      8.08E-09 Convergence criterion met
 Total energy in the final basis set = -1510.29364884
   13   -1510.2957849906      6.15E-09 Convergence criterion met
   12   -1510.3040070183      5.25E-09 Convergence criterion met
 Total energy in the final basis set = -1510.30400702
   12   -1510.3041079415      5.52E-09 Convergence criterion met
 Total energy in the final basis set = -1510.30410794
   10   -1510.3041020163      6.70E-09 Convergence criterion met
 Total energy in the final basis set = -1510.30410202
    9   -1510.3041071819      8.01E-09 Convergence criterion met
 Total energy in the final basis set = -1510.30410718
    8   -1510.3041074425      4.25E-09 Convergence criterion met
 Total energy in the final basis set = -1510.30410744
    9   -1510.3041080766      2.67E-09 Convergence criterion met
 Total energy in the final basis set = -1510.30410808

             Standard Nuclear Orientation (Angstroms)
    I     Atom           X                Y                Z
 ----------------------------------------------------------------
    1      O       1.3894912541    -1.7847527154     2.0406141236
    2      C       1.9205478068    -0.9107891469     1.3174514136
    3      C       1.8673122772     0.6310457214     1.5861879323
    4      C       2.5516221888     1.6171656912     0.5483686177
    5      C       2.9460329477     0.9888662173    -0.8354462287
    6      O       1.7357104369     0.7922778031    -1.5812716082
    7      C       2.0019748954     0.1559509070    -2.8867648319
    8      C       1.0365457589    -1.0727080493    -3.0117012403
    9      O      -0.3730050268    -0.6508967928    -2.8117503345
   10      C      -0.7615500644    -0.8058037825    -1.4433131196
   11      C      -2.2531202378    -0.3622001604    -1.3045405587
   12      C      -2.9629017619    -0.9335413011    -0.0093927326
   13      C      -1.9733982648    -1.6118811665     1.0105015208
   14      O      -1.4536835248    -1.0798901299     2.0202732034
   15      O       2.7270321415    -1.2197725262     0.1807171393
   16      O      -1.8490618630    -2.9930429265     0.6775940982
   17      O      -0.0333996367    -1.2866142860    -0.5462142655
   18      C      -0.8813346472    -3.6487770837     1.5924432629
   19      C      -2.4404229046     1.2083340202    -1.0817020725
   20      C      -3.9232466344     1.5621827618    -1.4942966078
   21      C      -4.7249903061     0.9284631890    -0.2961773019
   22      C      -3.5488118866     0.3965261957     0.6164934258
   23      O      -2.4550515672     1.3677899837     0.3876314061
   24      H      -2.7809727343    -0.6789709237    -2.2215046367
   25      H      -3.7464107239    -1.6647703553    -0.2765366435
   26      H      -1.6447551289     1.8348841204    -1.5282673225
   27      H      -4.0582008559     2.6548484014    -1.5364300133
   28      H      -4.2002839036     1.1323581415    -2.4699427593
   29      H      -5.3177981700     1.6862457221     0.2401098752
   30      H      -5.3979594189     0.1172177879    -0.6172931699
   31      H      -3.7787565197     0.3250748082     1.6968918752
   32      O       4.0926291498     0.7862448123    -1.2910086863
   33      C       2.7533016456    -2.6812093340    -0.0486738496
   34      C       0.3657599376     1.1843770345     1.6102296662
   35      C       0.3474036150     2.4494974413     2.5486371372
   36      C       1.1553133718     3.4821508501     1.6773367746
   37      C       1.3691526932     2.6596213629     0.3432390745
   38      O       0.1843735124     1.7790803219     0.2681173735
   39      H       2.3235710302     0.7748392967     2.5835873402
   40      H       3.4588526236     2.0764472870     0.9794313128
   41      H       1.7391119815    -3.0639572765    -0.2833711599
   42      H      -0.4119119846     0.4056698899     1.8100835812
   43      H      -0.6910877985     2.7830666457     2.7040074705
   44      H       0.8104356636     2.2596183203     3.5300759367
   45      H       0.5723525975     4.3956950133     1.4799844415
   46      H       2.1135625784     3.7690335748     2.1393368928
   47      H       1.4602119547     3.2719666093    -0.5746007879
   48      H       3.1436521224    -3.2240885725     0.8360356184
   49      H       3.4258189864    -2.8417134250    -0.9113517796
   50      H      -0.6225400081    -4.6134295028     1.1186537593
   51      H      -1.3457016869    -3.8421791099     2.5809721881
   52      H       0.0303807417    -3.0208557545     1.7370828737
   53      H       1.0954016684    -1.5050130838    -4.0315890375
   54      H       1.3080107282    -1.8365414747    -2.2555591288
   55      H       3.0680343883    -0.1574265021    -2.9438933636
   56      H       1.7921846608     0.8882464028    -3.6958996207
 ----------------------------------------------------------------

    8   -1510.3041079140      3.88E-09 Convergence criterion met
 Total energy in the final basis set = -1510.30410791
 Final energy is   -1510.30410791401
 **  OPTIMIZATION CONVERGED  **

                    Orbital Energies (a.u.)
 --------------------------------------------------------------

 Alpha MOs
 -- Occupied --
-18.937 -18.936 -18.920 -18.920 -18.882 -18.880 -18.870 -18.869
-18.861 -18.861 -10.104 -10.099 -10.092 -10.091 -10.073 -10.066
-10.064 -10.054 -10.053 -10.047 -10.035 -10.035 -10.031 -10.028
-10.027 -10.025 -10.016 -10.015 -10.006 -10.001  -1.017  -1.009
 -0.999  -0.996  -0.965  -0.952  -0.940  -0.932  -0.925  -0.922
 -0.759  -0.749  -0.722  -0.714  -0.705  -0.696  -0.685  -0.660
 -0.646  -0.612  -0.590  -0.574  -0.540  -0.533  -0.530  -0.522
 -0.506  -0.502  -0.478  -0.477  -0.462  -0.451  -0.447  -0.430
 -0.428  -0.422  -0.420  -0.411  -0.409  -0.406  -0.397  -0.392
 -0.388  -0.375  -0.372  -0.365  -0.357  -0.347  -0.345  -0.342
 -0.339  -0.332  -0.328  -0.326  -0.322  -0.316  -0.307  -0.307
 -0.301  -0.300  -0.299  -0.289  -0.286  -0.281  -0.268  -0.267
 -0.264  -0.249  -0.243  -0.237  -0.233  -0.226  -0.215  -0.184
 -0.177  -0.161  -0.159  -0.154  -0.150  -0.142  -0.140  -0.138
 -0.125

          Ground-State Mulliken Net Atomic Charges

     Atom                 Charge (a.u.)
  ----------------------------------------
      1 O                    -0.216361
      2 C                     0.226933
      3 C                    -0.080069
      4 C                    -0.079535
      5 C                     0.219975
      6 O                    -0.173584
      7 C                    -0.053064
      8 C                    -0.050828
      9 O                    -0.170444
     10 C                     0.225342
     11 C                    -0.078621
     12 C                    -0.080766
     13 C                     0.221622
     14 O                    -0.218323
     15 O                    -0.166232
     16 O                    -0.174859
     17 O                    -0.213665
     18 C                    -0.143828
     19 C                     0.029746
     20 C                    -0.143317
     21 C                    -0.145128
     22 C                     0.024378
     23 O                    -0.182309
     24 H                     0.085219
     25 H                     0.083586
     26 H                     0.094710
     27 H                     0.077218
     28 H                     0.072348
     29 H                     0.076934
     30 H                     0.072128
     31 H                     0.084896
     32 O                    -0.222824
     33 C                    -0.127279
     34 C                     0.015189
     35 C                    -0.142842
     36 C                    -0.145766
     37 C                     0.026485
     38 O                    -0.189062
     39 H                     0.083594
     40 H                     0.081458
     41 H                     0.094362
     42 H                     0.116326
     43 H                     0.079058
     44 H                     0.069582
     45 H                     0.074374
     46 H                     0.069308
     47 H                     0.077331
     48 H                     0.090364
     49 H                     0.089257
     50 H                     0.077572
     51 H                     0.078240
     52 H                     0.117291
     53 H                     0.087339
     54 H                     0.095189
     55 H                     0.099209
     56 H                     0.082142
  ----------------------------------------
  Sum of atomic charges =    -0.000000

                    Cartesian Multipole Moments
 -----------------------------------------------------------------
    Charge (ESU x 10^10)
                 0.0000
    Dipole Moment (Debye)
         X      -0.8970      Y      -0.5742      Z      -1.9157
       Tot       2.1919
    Quadrupole Moments (Debye-Ang)
        XX    -155.8369     XY      -2.4599     YY    -152.3780
        XZ       3.2762     YZ       4.1698     ZZ    -155.6279

 Total job time:  122.56s(wall), 5844.50s(cpu)
        *  Thank you very much for using Q-Chem.  Have a nice day.  *
