 Q-Chem 5.0, Q-Chem, Inc., Pleasanton, CA (2017)
 Q-Chem 5.0.1 for Intel X86 EM64T Linux

User input:
--------------------------------------------------------------
$molecule
0  1
O -3.94934 -3.66094 2.70899
C -3.26408 -4.56952 2.26188
C -3.36658 -6.02376 2.66595
C -2.91183 -7.07245 1.63769
C -2.23974 -6.54557 0.38918
O -1.16544 -5.77445 0.73074
C -0.36787 -5.38995 -0.39412
C 0.79704 -4.51716 0.06125
O 1.31836 -5.00747 1.30652
C 0.69405 -4.55054 2.42034
C 1.46419 -4.8394 3.68688
C 0.99016 -4.06288 4.92405
C -0.37005 -3.40449 4.80985
O -1.35551 -3.69389 5.47293
O -2.76279 -4.17628 1.06208
O -0.38182 -2.21663 4.14153
O -0.32163 -3.88242 2.33783
C -1.45366 -1.34926 4.10326
C 1.4228 -6.2861 4.20032
C 2.66006 -6.56101 5.05335
C 2.349 -5.72528 6.28073
C 0.93878 -5.23188 5.9314
O 0.40056 -6.28086 5.16763
H 2.51774 -4.55472 3.46112
H 1.70482 -3.2768 5.25534
H 1.33643 -7.0378 3.38599
H 2.62623 -7.63713 5.33828
H 3.63444 -6.34289 4.56556
H 2.3204 -6.40031 7.16483
H 3.04511 -4.8796 6.46964
H 0.38467 -4.96785 6.85868
O -2.59712 -6.8034 -0.75394
C -2.77682 -2.89928 0.52275
C -2.48371 -6.41429 3.85252
C -3.0246 -7.67295 4.53366
C -2.64467 -8.73107 3.51933
C -1.91401 -7.87377 2.48373
O -1.30013 -6.87601 3.25484
H -4.43436 -6.17934 2.94074
H -3.75498 -7.71475 1.29727
H -2.22383 -2.19804 1.18185
H -2.39182 -5.60782 4.59574
H -2.42656 -7.84135 5.45793
H -4.1036 -7.62965 4.7959
H -1.92516 -9.43377 3.99603
H -3.4943 -9.29845 3.08181
H -1.23751 -8.50078 1.86189
H -3.82195 -2.5479 0.38886
H -2.28248 -2.91576 -0.46925
H -1.1891 -0.47144 3.47902
H -1.6985 -0.9993 5.12867
H -2.33784 -1.84934 3.66058
H 1.5869 -4.51223 -0.71934
H 0.46819 -3.45693 0.15916
H -0.94547 -4.86676 -1.18844
H 0.06881 -6.32136 -0.82125
$end

$opt
CONSTRAINT
tors           1           2           3           4    +154.131
tors           3           4           5           6     +55.967
tors           4           5           6           7    +171.882
tors           5           6           7           8    +179.175
tors           6           7           8           9     +38.762
tors           7           8           9          10     -85.940
tors           8           9          10          11    -166.945
tors           9          10          11          12    +165.875
tors          11          12          13          14    +115.294
ENDCONSTRAINT
$end

$rem
JOBTYPE                   OPT
METHOD                    B3LYP
DFT_D                     d3_op
BASIS                     STO-3G
GEOM_OPT_MAX_CYCLES       100
GEOM_OPT_TOL_GRADIENT     300
GEOM_OPT_TOL_DISPLACEMENT 1200
GEOM_OPT_TOL_ENERGY       100
SYMMETRY                  False
THRESH                    12
SCF_CONVERGENCE           8
MAX_SUB_FILE_NUM          128
MEM_STATIC                400
MEM_TOTAL                 4000
$end
--------------------------------------------------------------

   15   -1510.1303637575      7.00E-09 Convergence criterion met
 Total energy in the final basis set = -1510.13036376
   14   -1510.2057134115      2.66E-09 Convergence criterion met
 Total energy in the final basis set = -1510.20571341
   14   -1510.2391840661      4.53E-09 Convergence criterion met
 Total energy in the final basis set = -1510.23918407
   14   -1510.2620623616      4.96E-09 Convergence criterion met
 Total energy in the final basis set = -1510.26206236
   14   -1510.2731109424      5.92E-09 Convergence criterion met
 Total energy in the final basis set = -1510.27311094
   15   -1510.2628288783      3.77E-09 Convergence criterion met
 Total energy in the final basis set = -1510.26282888
   14   -1510.2770661312      6.43E-09 Convergence criterion met
 Total energy in the final basis set = -1510.27706613
   14   -1510.2777730137      6.30E-09 Convergence criterion met
   11   -1510.2843811872      8.96E-09 Convergence criterion met
 Total energy in the final basis set = -1510.28438119
   11   -1510.2844504566      4.73E-09 Convergence criterion met
 Total energy in the final basis set = -1510.28445046
   11   -1510.2845191396      5.74E-09 Convergence criterion met
 Total energy in the final basis set = -1510.28451914
   10   -1510.2845450788      7.84E-09 Convergence criterion met
 Total energy in the final basis set = -1510.28454508
   11   -1510.2845578423      3.34E-09 Convergence criterion met
 Total energy in the final basis set = -1510.28455784
   10   -1510.2845610040      7.09E-09 Convergence criterion met
 Total energy in the final basis set = -1510.28456100

             Standard Nuclear Orientation (Angstroms)
    I     Atom           X                Y                Z
 ----------------------------------------------------------------
    1      O       2.2294093885    -1.1764768405     2.8447795618
    2      C       2.3012503487    -0.6012173930     1.7352173223
    3      C       1.9742060614     0.9148417176     1.5006587376
    4      C       2.6424731525     1.6959690296     0.2906472176
    5      C       3.0796779095     0.8129656739    -0.9329703618
    6      O       1.9333521678     0.0881471217    -1.3852924553
    7      C       2.2068021807    -0.6200898374    -2.6500403013
    8      C       0.8811249134    -1.3861736074    -3.0184334611
    9      O      -0.3649515003    -0.6351000524    -2.7293803913
   10      C      -0.8070348987    -0.8084880378    -1.3837686304
   11      C      -2.2760447229    -0.2665827414    -1.2731421456
   12      C      -2.9755472909    -0.7341274457     0.0671012477
   13      C      -2.0384676850    -1.5773396980     1.0120781672
   14      O      -1.6410422821    -1.2493774336     2.1531856937
   15      O       2.7732665023    -1.2523966337     0.5529368044
   16      O      -2.0033328461    -2.9251763289     0.5081258776
   17      O      -0.1520326400    -1.3737044567    -0.4782160221
   18      C      -1.1493960026    -3.7560651673     1.3830472981
   19      C      -2.4002274281     1.3148925398    -1.1301650391
   20      C      -3.9025131149     1.7052366778    -1.4323979121
   21      C      -4.6160304850     1.2233861229    -0.1128941735
   22      C      -3.3903673060     0.6511214296     0.7035384261
   23      O      -2.2788538682     1.5507177842     0.3244305274
   24      H      -2.8271308831    -0.6155932441    -2.1645506671
   25      H      -3.8578146759    -1.3598849955    -0.1591332896
   26      H      -1.6292862690     1.8879249002    -1.6790647922
   27      H      -3.9954271600     2.7948769853    -1.5660455628
   28      H      -4.2898113904     1.2044532207    -2.3339196610
   29      H      -5.0805806227     2.0649241909     0.4252841176
   30      H      -5.3841527708     0.4563123753    -0.3005333966
   31      H      -3.5090023721     0.6273388019     1.8041027628
   32      O       4.2004111662     0.7782971677    -1.4860084497
   33      C       3.0471096536    -2.6785496009     0.8332233677
   34      C       0.4241028372     1.2435114779     1.2836894737
   35      C       0.1588871685     2.6518909409     1.9373549688
   36      C       0.9787421735     3.5820969160     0.9664396759
   37      C       1.3887432238     2.5609946036    -0.1712882154
   38      O       0.3077701894     1.5526605491    -0.1582685804
   39      H       2.2932715536     1.4028309046     2.4401464100
   40      H       3.5051146452     2.3025266967     0.6162396311
   41      H       2.1151812687    -3.2269065286     1.0811718913
   42      H      -0.2790122652     0.4358177113     1.5780541981
   43      H      -0.9194205676     2.8724273315     1.8840770511
   44      H       0.4952701762     2.7129985001     2.9846256309
   45      H       0.3567462338     4.3923704446     0.5547304134
   46      H       1.8620402507     4.0283814695     1.4515415148
   47      H       1.4914239973     3.0033093337    -1.1813999358
   48      H       3.7639166084    -2.8052682146     1.6701339383
   49      H       3.4806992727    -3.0920303769    -0.0958778699
   50      H      -1.1806451899    -4.7790456400     0.9645958930
   51      H      -1.5209953362    -3.7692976142     2.4282866973
   52      H      -0.1025627788    -3.3882643119     1.3875362072
   53      H       0.8612280954    -1.5866088405    -4.1090900644
   54      H       0.8625659826    -2.3515460455    -2.4687752266
   55      H       3.0418259053    -1.3473042666    -2.5447123021
   56      H       2.4783084573     0.1031130250    -3.4504862245
 ----------------------------------------------------------------

    9   -1510.2845626117      5.13E-09 Convergence criterion met
 Total energy in the final basis set = -1510.28456261
 Final energy is   -1510.28456261173
 **  OPTIMIZATION CONVERGED  **

                    Orbital Energies (a.u.)
 --------------------------------------------------------------

 Alpha MOs
 -- Occupied --
-18.936 -18.928 -18.923 -18.916 -18.883 -18.882 -18.877 -18.861
-18.860 -18.857 -10.104 -10.090 -10.089 -10.089 -10.077 -10.070
-10.059 -10.056 -10.054 -10.053 -10.052 -10.041 -10.034 -10.030
-10.029 -10.025 -10.017 -10.016 -10.010 -10.003  -1.015  -1.004
 -0.997  -0.994  -0.968  -0.958  -0.939  -0.926  -0.923  -0.921
 -0.760  -0.751  -0.723  -0.716  -0.706  -0.697  -0.690  -0.655
 -0.652  -0.613  -0.592  -0.574  -0.542  -0.535  -0.532  -0.525
 -0.508  -0.502  -0.481  -0.478  -0.461  -0.454  -0.448  -0.430
 -0.426  -0.423  -0.419  -0.410  -0.404  -0.403  -0.397  -0.396
 -0.387  -0.380  -0.368  -0.363  -0.355  -0.348  -0.341  -0.339
 -0.339  -0.330  -0.330  -0.328  -0.323  -0.320  -0.316  -0.309
 -0.303  -0.300  -0.298  -0.292  -0.286  -0.283  -0.272  -0.269
 -0.265  -0.248  -0.242  -0.240  -0.234  -0.228  -0.220  -0.179
 -0.173  -0.162  -0.159  -0.153  -0.143  -0.142  -0.139  -0.137
 -0.127

          Ground-State Mulliken Net Atomic Charges

     Atom                 Charge (a.u.)
  ----------------------------------------
      1 O                    -0.217294
      2 C                     0.210564
      3 C                    -0.080445
      4 C                    -0.078967
      5 C                     0.215668
      6 O                    -0.161810
      7 C                    -0.044152
      8 C                    -0.045368
      9 O                    -0.170033
     10 C                     0.231136
     11 C                    -0.077370
     12 C                    -0.081806
     13 C                     0.217375
     14 O                    -0.223788
     15 O                    -0.165072
     16 O                    -0.177344
     17 O                    -0.201074
     18 C                    -0.127711
     19 C                     0.030512
     20 C                    -0.144205
     21 C                    -0.144239
     22 C                     0.023178
     23 O                    -0.187704
     24 H                     0.084573
     25 H                     0.083361
     26 H                     0.093228
     27 H                     0.076642
     28 H                     0.072477
     29 H                     0.076745
     30 H                     0.072418
     31 H                     0.087481
     32 O                    -0.221385
     33 C                    -0.124742
     34 C                     0.027966
     35 C                    -0.141927
     36 C                    -0.145532
     37 C                     0.025672
     38 O                    -0.187681
     39 H                     0.083283
     40 H                     0.083077
     41 H                     0.086221
     42 H                     0.101505
     43 H                     0.086295
     44 H                     0.071251
     45 H                     0.075067
     46 H                     0.070748
     47 H                     0.076481
     48 H                     0.089902
     49 H                     0.086566
     50 H                     0.084428
     51 H                     0.087702
     52 H                     0.087718
     53 H                     0.089173
     54 H                     0.090381
     55 H                     0.088488
     56 H                     0.082372
  ----------------------------------------
  Sum of atomic charges =     0.000000

                    Cartesian Multipole Moments
 -----------------------------------------------------------------
    Charge (ESU x 10^10)
                -0.0000
    Dipole Moment (Debye)
         X      -1.5772      Y      -0.4944      Z      -2.4080
       Tot       2.9207
    Quadrupole Moments (Debye-Ang)
        XX    -157.3095     XY      -2.9154     YY    -147.9140
        XZ       2.0840     YZ       4.8148     ZZ    -160.7358

 Total job time:  65.22s(wall), 3105.98s(cpu)
        *  Thank you very much for using Q-Chem.  Have a nice day.  *
