 Q-Chem 5.0, Q-Chem, Inc., Pleasanton, CA (2017)
 Q-Chem 5.0.1 for Intel X86 EM64T Linux

User input:
--------------------------------------------------------------
$molecule
0  1
O -3.2002510771 0.7845985295 2.9233594555
C -3.0806022503 0.4730858768 1.7176234111
C -3.0007499406 -0.9955617876 1.1724978829
C -3.1773304814 -1.2631649459 -0.3822071337
C -3.1758733259 0.0039590064 -1.3131333573
O -1.8190543064 0.4294387428 -1.4873915379
C -1.7639275479 1.611801795 -2.373780664
C -0.2458585605 2.0095120008 -2.4854341123
O 0.6305860128 0.8201860917 -2.3312901082
C 1.3757290945 0.9375367781 -1.1082677188
C 2.5252063124 -0.1193541373 -1.0974332399
C 3.6123225715 0.1529540284 0.023992524
C 3.3405330308 1.4370739205 0.8932431561
O 2.9746356615 1.4820878413 2.0863206113
O -2.9993361052 1.4319888029 0.6634133114
O 3.7317749656 2.5833188788 0.11847073
O 1.1356315701 1.7927411969 -0.2252616975
C 3.4197276963 3.8185386682 0.8692481475
C 1.9770141458 -1.5447240929 -0.6282194385
C 3.0556300286 -2.6359357152 -0.9966547219
C 4.1547578049 -2.3573309424 0.095826019
C 3.4964522606 -1.1631377262 0.8946924836
O 2.0495395736 -1.4698649774 0.8469914184
H 2.9685512578 -0.1703446391 -2.10741829
H 4.6129409304 0.2588155478 -0.4328153249
H 0.928821924 -1.7532224793 -0.9189548902
H 2.6298303484 -3.6466553444 -0.8922833001
H 3.4357747396 -2.518256268 -2.0240098719
H 4.2995282721 -3.2283874593 0.7545481791
H 5.1272838722 -2.0794048329 -0.3408329802
H 3.8324768018 -1.0406742566 1.942449248
O -4.1586302791 0.5201643925 -1.8876541651
C -3.0523401751 2.8058956633 1.2108330507
C -1.557841811 -1.6514333315 1.421896717
C -1.7520441094 -3.2136582423 1.5250243805
C -2.0850433385 -3.5699688735 0.0287630662
C -1.9083792593 -2.1632998013 -0.6718331045
O -0.8612423177 -1.4917851758 0.1286117723
H -3.7594586291 -1.5672738508 1.737097635
H -4.12307201 -1.8023937237 -0.5709091033
H -2.177752591 3.0152649601 1.8601188652
H -0.9711334142 -1.1883021309 2.2389313785
H -0.8128901244 -3.6885106145 1.8514414762
H -2.5551693113 -3.495967124 2.2241848781
H -1.372620982 -4.3017945592 -0.3838108165
H -3.1068290462 -3.9623783706 -0.0966064243
H -1.6135987475 -2.2037400571 -1.7379847259
H -3.9789908342 2.9770040898 1.7958325178
H -3.0346093399 3.4811846068 0.3358237897
H 3.7913164188 4.6576342587 0.2526103414
H 3.9178765399 3.835530828 1.8601656277
H 2.3261599968 3.9262471744 1.0229418542
H -0.0395771098 2.4548903194 -3.4806694967
H 0.0121902111 2.7285598563 -1.6793390571
H -2.3555006559 2.4551581174 -1.9558401987
H -2.1839828748 1.3631602595 -3.3731468092
$end

$rem
JOBTYPE                   OPT
METHOD                    B3LYP
DFT_D                     d3_op
BASIS                     STO-3G
GEOM_OPT_MAX_CYCLES       100
GEOM_OPT_TOL_GRADIENT     300
GEOM_OPT_TOL_DISPLACEMENT 1200
GEOM_OPT_TOL_ENERGY       100
SYMMETRY                  False
THRESH                    12
SCF_CONVERGENCE           8
MAX_SUB_FILE_NUM          128
MEM_STATIC                400
MEM_TOTAL                 4000
$end
--------------------------------------------------------------

   16   -1510.2828938263      3.45E-09 Convergence criterion met
 Total energy in the final basis set = -1510.28289383
   15   -1510.2826344549      2.68E-09 Convergence criterion met
 Total energy in the final basis set = -1510.28263445
   14   -1510.2849955285      7.84E-09 Convergence criterion met
 Total energy in the final basis set = -1510.28499553
   15   -1510.2854545545      3.10E-09 Convergence criterion met
 Total energy in the final basis set = -1510.28545455
   14   -1510.2887239554      9.33E-09 Convergence criterion met
 Total energy in the final basis set = -1510.28872396
   15   -1510.2890479827      2.62E-09 Convergence criterion met
 Total energy in the final basis set = -1510.28904798
   15   -1510.2586118541      5.80E-09 Convergence criterion met
 Total energy in the final basis set = -1510.25861185
   14   -1510.2842950141      5.49E-09 Convergence criterion met
   12   -1510.3021321763      1.98E-09 Convergence criterion met
 Total energy in the final basis set = -1510.30213218
    9   -1510.3021322991      9.05E-09 Convergence criterion met
 Total energy in the final basis set = -1510.30213230
    9   -1510.3021326427      5.76E-09 Convergence criterion met
 Total energy in the final basis set = -1510.30213264
    9   -1510.3021325851      3.09E-09 Convergence criterion met
 Total energy in the final basis set = -1510.30213259
    9   -1510.3021323239      2.37E-09 Convergence criterion met
 Total energy in the final basis set = -1510.30213232
    9   -1510.3021317541      4.79E-09 Convergence criterion met
 Total energy in the final basis set = -1510.30213175

             Standard Nuclear Orientation (Angstroms)
    I     Atom           X                Y                Z
 ----------------------------------------------------------------
    1      O      -0.3421213891     0.5038391714     1.7874904890
    2      C      -1.4972978719     0.4266804912     1.3214758406
    3      C      -2.3278678481    -0.8795765884     1.0722162232
    4      C      -3.2532683184    -0.8523847470    -0.2140892244
    5      C      -3.0750921777     0.4069625331    -1.1311144255
    6      O      -1.7111796363     0.4553490983    -1.5889274538
    7      C      -1.5620399432     1.4936158222    -2.6358938650
    8      C      -0.1970361258     2.2272315588    -2.4237209098
    9      O       0.8819580899     1.2135643317    -2.3222376750
   10      C       1.3866301074     1.1425732590    -0.9873398871
   11      C       2.3532973104    -0.0770218353    -0.9002593776
   12      C       3.3280807952    -0.0353738600     0.3483365136
   13      C       3.1260080149     1.2121994581     1.2862457239
   14      O       2.6410123180     1.2275133855     2.4361981533
   15      O      -2.3035461043     1.5556671808     0.9617739392
   16      O       3.7142246192     2.3518189540     0.6374110250
   17      O       1.0838705748     1.9408623950    -0.0693418447
   18      C       3.4672933030     3.5632784654     1.4488530732
   19      C       1.5489052194    -1.4247027617    -0.6132719188
   20      C       2.5034725930    -2.6380476273    -0.9469536103
   21      C       3.4951863830    -2.5989794658     0.2758845510
   22      C       2.9257133634    -1.3737494064     1.0921602421
   23      O       1.4661146141    -1.4584069727     0.8631699374
   24      H       2.9065157218    -0.1460751737    -1.8536076721
   25      H       4.3810243571    -0.0490103358     0.0135409200
   26      H       0.5218255486    -1.4845358040    -1.0410605585
   27      H       1.9281161781    -3.5772544299    -0.9703772134
   28      H       3.0144828802    -2.5139962327    -1.9150754448
   29      H       3.4351068936    -3.5222543699     0.8737760522
   30      H       4.5421987134    -2.4436076321    -0.0295127920
   31      H       3.1451721053    -1.3700101972     2.1772900660
   32      O      -3.9679767049     1.1950588949    -1.5126592809
   33      C      -1.5229841829     2.8055480076     1.1270430484
   34      C      -1.3910967593    -2.1250155462     0.7697467502
   35      C      -2.2151739559    -3.4367329755     1.0589786138
   36      C      -3.2236225399    -3.4330382683    -0.1525271509
   37      C      -2.7415402032    -2.1608466090    -0.9572698991
   38      O      -1.2840792434    -2.1299147049    -0.7103787090
   39      H      -2.9410258620    -1.0634939196     1.9742251046
   40      H      -4.3221446607    -0.9173962768     0.0539828368
   41      H      -0.4926590196     2.6741555858     0.7256928812
   42      H      -0.3715270583    -2.0437114009     1.2104495335
   43      H      -1.5573869957    -4.3200611240     1.0306899385
   44      H      -2.7230597022    -3.4055432249     2.0360429115
   45      H      -3.1191818968    -4.3397753984    -0.7694324537
   46      H      -4.2738964405    -3.3444602705     0.1686064174
   47      H      -2.9529875714    -2.1848419274    -2.0440872289
   48      H      -1.4633032240     3.0952749292     2.1958696666
   49      H      -2.0702624900     3.5854816227     0.5665705744
   50      H       3.9911475513     4.3913023089     0.9366380866
   51      H       3.8600956093     3.4547144455     2.4804721750
   52      H       2.3826321222     3.7893651502     1.5077256184
   53      H       0.0218349378     2.8741842250    -3.2986732400
   54      H      -0.2097954515     2.8372337458    -1.4974726469
   55      H      -2.4179344121     2.2023664216    -2.5822201438
   56      H      -1.5695202768     0.9991114242    -3.6317601098
 ----------------------------------------------------------------

    8   -1510.3021314565      8.74E-09 Convergence criterion met
 Total energy in the final basis set = -1510.30213146
 Final energy is   -1510.30213145653
 **  OPTIMIZATION CONVERGED  **

                    Orbital Energies (a.u.)
 --------------------------------------------------------------

 Alpha MOs
 -- Occupied --
-18.939 -18.924 -18.923 -18.915 -18.886 -18.886 -18.883 -18.868
-18.868 -18.859 -10.107 -10.095 -10.087 -10.085 -10.074 -10.068
-10.059 -10.052 -10.051 -10.044 -10.043 -10.042 -10.034 -10.033
-10.029 -10.028 -10.018 -10.014 -10.014 -10.012  -1.019  -1.006
 -0.997  -0.993  -0.968  -0.963  -0.944  -0.929  -0.925  -0.919
 -0.759  -0.757  -0.725  -0.717  -0.708  -0.700  -0.690  -0.651
 -0.648  -0.613  -0.593  -0.575  -0.541  -0.537  -0.534  -0.529
 -0.509  -0.501  -0.480  -0.478  -0.462  -0.451  -0.447  -0.433
 -0.429  -0.427  -0.421  -0.412  -0.406  -0.403  -0.399  -0.397
 -0.393  -0.372  -0.366  -0.364  -0.356  -0.350  -0.346  -0.344
 -0.338  -0.338  -0.332  -0.328  -0.323  -0.317  -0.316  -0.308
 -0.306  -0.300  -0.296  -0.293  -0.289  -0.283  -0.272  -0.269
 -0.265  -0.252  -0.243  -0.240  -0.237  -0.235  -0.217  -0.184
 -0.169  -0.164  -0.161  -0.158  -0.151  -0.144  -0.142  -0.137
 -0.135

          Ground-State Mulliken Net Atomic Charges

     Atom                 Charge (a.u.)
  ----------------------------------------
      1 O                    -0.195559
      2 C                     0.209881
      3 C                    -0.079674
      4 C                    -0.078449
      5 C                     0.216383
      6 O                    -0.177040
      7 C                    -0.054226
      8 C                    -0.053813
      9 O                    -0.168149
     10 C                     0.225682
     11 C                    -0.077629
     12 C                    -0.079388
     13 C                     0.216447
     14 O                    -0.208043
     15 O                    -0.175472
     16 O                    -0.178159
     17 O                    -0.210408
     18 C                    -0.128483
     19 C                     0.015427
     20 C                    -0.144111
     21 C                    -0.145156
     22 C                     0.027594
     23 O                    -0.188776
     24 H                     0.086652
     25 H                     0.082516
     26 H                     0.111631
     27 H                     0.077288
     28 H                     0.071828
     29 H                     0.075860
     30 H                     0.071845
     31 H                     0.089013
     32 O                    -0.218717
     33 C                    -0.143863
     34 C                     0.013689
     35 C                    -0.143784
     36 C                    -0.144358
     37 C                     0.027288
     38 O                    -0.194302
     39 H                     0.083791
     40 H                     0.084910
     41 H                     0.111716
     42 H                     0.114199
     43 H                     0.076502
     44 H                     0.073157
     45 H                     0.076385
     46 H                     0.073368
     47 H                     0.080524
     48 H                     0.081947
     49 H                     0.080955
     50 H                     0.084604
     51 H                     0.086807
     52 H                     0.089815
     53 H                     0.087775
     54 H                     0.099192
     55 H                     0.100522
     56 H                     0.082369
  ----------------------------------------
  Sum of atomic charges =     0.000000

                    Cartesian Multipole Moments
 -----------------------------------------------------------------
    Charge (ESU x 10^10)
                 0.0000
    Dipole Moment (Debye)
         X       0.4488      Y      -0.6469      Z      -1.7792
       Tot       1.9456
    Quadrupole Moments (Debye-Ang)
        XX    -156.1223     XY       4.6138     YY    -147.4933
        XZ      -4.0846     YZ      -2.5263     ZZ    -159.6656

 Total job time:  122.67s(wall), 5842.50s(cpu)
        *  Thank you very much for using Q-Chem.  Have a nice day.  *
