 Q-Chem 5.0, Q-Chem, Inc., Pleasanton, CA (2017)
 Q-Chem 5.0.1 for Intel X86 EM64T Linux

User input:
--------------------------------------------------------------
$molecule
0  1
O -3.94934 -3.66094 2.70899
C -3.26408 -4.56952 2.26188
C -3.36658 -6.02376 2.66595
C -2.65534 -7.0531 1.77239
C -1.77338 -6.49887 0.67554
O -0.58168 -6.0881 1.20143
C 0.31747 -5.56515 0.21792
C 1.61464 -5.1119 0.87977
O 1.86557 -5.89892 2.05472
C 1.79054 -5.22965 3.23184
C 2.36187 -6.01154 4.39067
C 2.61506 -5.19044 5.66344
C 1.94615 -3.83163 5.71716
O 0.99959 -3.53532 6.43186
O -2.41857 -4.17542 1.27348
O 2.49141 -2.87028 4.92423
O 0.89612 -4.40697 3.39037
C 2.02932 -1.57322 4.84502
C 1.44832 -7.12359 4.92885
C 2.28917 -8.18175 5.64117
C 2.7098 -7.42107 6.88056
C 1.92117 -6.12122 6.6846
O 0.75998 -6.52411 5.99682
H 3.30393 -6.4762 4.01913
H 3.69204 -5.044 5.89931
H 0.83756 -7.60611 4.1398
H 1.59442 -8.99834 5.94322
H 3.12186 -8.61333 5.0451
H 2.3427 -7.97531 7.77285
H 3.80027 -7.22643 6.97282
H 1.75898 -5.62623 7.66759
O -1.99556 -6.65036 -0.52
C -2.26254 -2.87774 0.82303
C -2.73224 -6.32443 4.02996
C -3.35871 -7.58256 4.62998
C -2.76237 -8.65291 3.73635
C -1.84594 -7.80159 2.85168
O -1.43621 -6.75954 3.70829
H -4.45897 -6.2392 2.69099
H -3.39417 -7.71919 1.27223
H -1.91004 -2.22614 1.65089
H -2.80384 -5.4736 4.7423
H -2.94103 -7.70525 5.655
H -4.46861 -7.57242 4.68371
H -2.1527 -9.33685 4.36804
H -3.49511 -9.23866 3.14037
H -1.03772 -8.42648 2.41187
H -3.22458 -2.49263 0.42268
H -1.50931 -2.85737 0.01044
H 2.65485 -1.00784 4.1243
H 2.09514 -1.08181 5.83921
H 0.97669 -1.56339 4.48948
H 2.46839 -5.14503 0.17013
H 1.47846 -4.03484 1.13463
H -0.11396 -4.75357 -0.40806
H 0.58851 -6.41538 -0.44867
$end

$opt
CONSTRAINT
tors           1           2           3           4    +166.319
tors           3           4           5           6     +78.144
tors           4           5           6           7    +179.230
tors           5           6           7           8    +179.270
tors           6           7           8           9     +29.265
tors           7           8           9          10    -112.861
tors           8           9          10          11    -166.945
tors           9          10          11          12    +165.875
tors          11          12          13          14    +108.583
ENDCONSTRAINT
$end

$rem
JOBTYPE                   OPT
METHOD                    B3LYP
DFT_D                     d3_op
BASIS                     STO-3G
GEOM_OPT_MAX_CYCLES       100
GEOM_OPT_TOL_GRADIENT     300
GEOM_OPT_TOL_DISPLACEMENT 1200
GEOM_OPT_TOL_ENERGY       100
SYMMETRY                  False
THRESH                    12
SCF_CONVERGENCE           8
MAX_SUB_FILE_NUM          128
MEM_STATIC                400
MEM_TOTAL                 4000
$end
--------------------------------------------------------------

   15   -1510.1353993784      6.49E-09 Convergence criterion met
 Total energy in the final basis set = -1510.13539938
   14   -1510.2079949686      4.13E-09 Convergence criterion met
 Total energy in the final basis set = -1510.20799497
   14   -1510.2478731358      3.78E-09 Convergence criterion met
 Total energy in the final basis set = -1510.24787314
   14   -1510.2659945860      6.75E-09 Convergence criterion met
 Total energy in the final basis set = -1510.26599459
   14   -1510.2725769774      2.99E-09 Convergence criterion met
 Total energy in the final basis set = -1510.27257698
   14   -1510.2777141111      5.38E-09 Convergence criterion met
 Total energy in the final basis set = -1510.27771411
   13   -1510.2806308230      6.61E-09 Convergence criterion met
 Total energy in the final basis set = -1510.28063082
   13   -1510.2814266801      4.95E-09 Convergence criterion met
   10   -1510.2827645414      9.56E-09 Convergence criterion met
 Total energy in the final basis set = -1510.28276454
   10   -1510.2827712152      9.23E-09 Convergence criterion met
 Total energy in the final basis set = -1510.28277122
    9   -1510.2827770070      8.88E-09 Convergence criterion met
 Total energy in the final basis set = -1510.28277701
    9   -1510.2827809766      5.44E-09 Convergence criterion met
 Total energy in the final basis set = -1510.28278098
    9   -1510.2827829401      3.55E-09 Convergence criterion met
 Total energy in the final basis set = -1510.28278294
    9   -1510.2827839970      2.63E-09 Convergence criterion met
 Total energy in the final basis set = -1510.28278400

             Standard Nuclear Orientation (Angstroms)
    I     Atom           X                Y                Z
 ----------------------------------------------------------------
    1      O      -3.2002510771     0.7845985295     2.9233594555
    2      C      -3.0806022503     0.4730858768     1.7176234111
    3      C      -3.0007499406    -0.9955617876     1.1724978829
    4      C      -3.1773304814    -1.2631649459    -0.3822071337
    5      C      -3.1758733259     0.0039590064    -1.3131333573
    6      O      -1.8190543064     0.4294387428    -1.4873915379
    7      C      -1.7639275479     1.6118017950    -2.3737806640
    8      C      -0.2458585605     2.0095120008    -2.4854341123
    9      O       0.6305860128     0.8201860917    -2.3312901082
   10      C       1.3757290945     0.9375367781    -1.1082677188
   11      C       2.5252063124    -0.1193541373    -1.0974332399
   12      C       3.6123225715     0.1529540284     0.0239925240
   13      C       3.3405330308     1.4370739205     0.8932431561
   14      O       2.9746356615     1.4820878413     2.0863206113
   15      O      -2.9993361052     1.4319888029     0.6634133114
   16      O       3.7317749656     2.5833188788     0.1184707300
   17      O       1.1356315701     1.7927411969    -0.2252616975
   18      C       3.4197276963     3.8185386682     0.8692481475
   19      C       1.9770141458    -1.5447240929    -0.6282194385
   20      C       3.0556300286    -2.6359357152    -0.9966547219
   21      C       4.1547578049    -2.3573309424     0.0958260190
   22      C       3.4964522606    -1.1631377262     0.8946924836
   23      O       2.0495395736    -1.4698649774     0.8469914184
   24      H       2.9685512578    -0.1703446391    -2.1074182900
   25      H       4.6129409304     0.2588155478    -0.4328153249
   26      H       0.9288219240    -1.7532224793    -0.9189548902
   27      H       2.6298303484    -3.6466553444    -0.8922833001
   28      H       3.4357747396    -2.5182562680    -2.0240098719
   29      H       4.2995282721    -3.2283874593     0.7545481791
   30      H       5.1272838722    -2.0794048329    -0.3408329802
   31      H       3.8324768018    -1.0406742566     1.9424492480
   32      O      -4.1586302791     0.5201643925    -1.8876541651
   33      C      -3.0523401751     2.8058956633     1.2108330507
   34      C      -1.5578418110    -1.6514333315     1.4218967170
   35      C      -1.7520441094    -3.2136582423     1.5250243805
   36      C      -2.0850433385    -3.5699688735     0.0287630662
   37      C      -1.9083792593    -2.1632998013    -0.6718331045
   38      O      -0.8612423177    -1.4917851758     0.1286117723
   39      H      -3.7594586291    -1.5672738508     1.7370976350
   40      H      -4.1230720100    -1.8023937237    -0.5709091033
   41      H      -2.1777525910     3.0152649601     1.8601188652
   42      H      -0.9711334142    -1.1883021309     2.2389313785
   43      H      -0.8128901244    -3.6885106145     1.8514414762
   44      H      -2.5551693113    -3.4959671240     2.2241848781
   45      H      -1.3726209820    -4.3017945592    -0.3838108165
   46      H      -3.1068290462    -3.9623783706    -0.0966064243
   47      H      -1.6135987475    -2.2037400571    -1.7379847259
   48      H      -3.9789908342     2.9770040898     1.7958325178
   49      H      -3.0346093399     3.4811846068     0.3358237897
   50      H       3.7913164188     4.6576342587     0.2526103414
   51      H       3.9178765399     3.8355308280     1.8601656277
   52      H       2.3261599968     3.9262471744     1.0229418542
   53      H      -0.0395771098     2.4548903194    -3.4806694967
   54      H       0.0121902111     2.7285598563    -1.6793390571
   55      H      -2.3555006559     2.4551581174    -1.9558401987
   56      H      -2.1839828748     1.3631602595    -3.3731468092
 ----------------------------------------------------------------

    9   -1510.2827844920      1.71E-09 Convergence criterion met
 Total energy in the final basis set = -1510.28278449
 Final energy is   -1510.28278449199
 **  OPTIMIZATION CONVERGED  **

                    Orbital Energies (a.u.)
 --------------------------------------------------------------

 Alpha MOs
 -- Occupied --
-18.939 -18.933 -18.924 -18.914 -18.890 -18.880 -18.877 -18.871
-18.863 -18.857 -10.100 -10.099 -10.094 -10.085 -10.069 -10.068
-10.066 -10.059 -10.058 -10.051 -10.050 -10.047 -10.037 -10.035
-10.033 -10.027 -10.019 -10.017 -10.014 -10.013  -1.015  -1.012
 -1.000  -0.993  -0.971  -0.961  -0.938  -0.935  -0.925  -0.920
 -0.761  -0.755  -0.725  -0.717  -0.710  -0.701  -0.691  -0.662
 -0.651  -0.612  -0.595  -0.572  -0.542  -0.538  -0.535  -0.530
 -0.514  -0.501  -0.485  -0.475  -0.467  -0.454  -0.445  -0.434
 -0.432  -0.425  -0.420  -0.412  -0.410  -0.405  -0.402  -0.399
 -0.390  -0.374  -0.373  -0.365  -0.356  -0.351  -0.346  -0.344
 -0.336  -0.334  -0.331  -0.326  -0.325  -0.324  -0.318  -0.311
 -0.306  -0.304  -0.298  -0.296  -0.292  -0.292  -0.274  -0.271
 -0.263  -0.248  -0.244  -0.240  -0.239  -0.232  -0.223  -0.180
 -0.175  -0.165  -0.160  -0.157  -0.152  -0.143  -0.142  -0.137
 -0.135

          Ground-State Mulliken Net Atomic Charges

     Atom                 Charge (a.u.)
  ----------------------------------------
      1 O                    -0.214423
      2 C                     0.210659
      3 C                    -0.079655
      4 C                    -0.079541
      5 C                     0.218289
      6 O                    -0.166279
      7 C                    -0.044907
      8 C                    -0.053938
      9 O                    -0.167395
     10 C                     0.223308
     11 C                    -0.078255
     12 C                    -0.080575
     13 C                     0.216115
     14 O                    -0.216385
     15 O                    -0.166545
     16 O                    -0.178190
     17 O                    -0.208120
     18 C                    -0.128721
     19 C                     0.022492
     20 C                    -0.144719
     21 C                    -0.144549
     22 C                     0.024211
     23 O                    -0.188383
     24 H                     0.085359
     25 H                     0.081788
     26 H                     0.100652
     27 H                     0.075267
     28 H                     0.071565
     29 H                     0.075844
     30 H                     0.071486
     31 H                     0.086594
     32 O                    -0.221074
     33 C                    -0.125104
     34 C                     0.029301
     35 C                    -0.142627
     36 C                    -0.145510
     37 C                     0.026125
     38 O                    -0.184141
     39 H                     0.085696
     40 H                     0.082859
     41 H                     0.094186
     42 H                     0.093332
     43 H                     0.081239
     44 H                     0.074390
     45 H                     0.076687
     46 H                     0.073455
     47 H                     0.083145
     48 H                     0.091573
     49 H                     0.089129
     50 H                     0.084425
     51 H                     0.086530
     52 H                     0.090038
     53 H                     0.084345
     54 H                     0.099616
     55 H                     0.086371
     56 H                     0.082966
  ----------------------------------------
  Sum of atomic charges =     0.000000

                    Cartesian Multipole Moments
 -----------------------------------------------------------------
    Charge (ESU x 10^10)
                -0.0000
    Dipole Moment (Debye)
         X       0.7261      Y      -0.5728      Z      -2.3758
       Tot       2.5494
    Quadrupole Moments (Debye-Ang)
        XX    -157.7601     XY       1.2750     YY    -142.9817
        XZ      -4.4418     YZ      -2.5944     ZZ    -165.2437

 Total job time:  62.36s(wall), 2969.88s(cpu)
        *  Thank you very much for using Q-Chem.  Have a nice day.  *
