 Q-Chem 5.0, Q-Chem, Inc., Pleasanton, CA (2017)
 Q-Chem 5.0.1 for Intel X86 EM64T Linux

User input:
--------------------------------------------------------------
$molecule
0  1
O -3.94934 -3.66094 2.70899
C -3.26408 -4.56952 2.26188
C -3.36658 -6.02376 2.66595
C -2.58617 -7.04435 1.82143
C -1.64934 -6.4795 0.77674
O -1.01997 -5.37151 1.26835
C -0.06612 -4.81501 0.35745
C 0.57879 -3.57365 0.96512
O 0.80772 -3.77812 2.36821
C -0.28068 -3.63217 3.16397
C 0.04656 -3.74111 4.63424
C -1.01704 -3.16238 5.57874
C -2.37461 -2.89498 4.9605
O -3.44015 -3.32688 5.37601
O -3.07888 -4.35709 0.92095
O -2.4233 -1.71003 4.2778
O -1.25536 -3.07996 2.71189
C -3.55332 -1.01116 3.89111
C 0.30206 -5.10878 5.28684
C 1.21332 -4.9358 6.50422
C 0.26669 -4.24576 7.47337
C -1.03248 -4.26283 6.65611
O -0.91621 -5.44053 5.90787
H 0.98381 -3.14632 4.73926
H -0.69657 -2.1919 6.02133
H 0.73467 -5.85221 4.58363
H 1.43524 -5.95583 6.89247
H 2.17083 -4.40412 6.31608
H 0.16629 -4.88515 8.37848
H 0.55713 -3.21445 7.76893
H -1.91766 -4.18838 7.32417
O -1.61223 -6.85294 -0.3895
C -3.2697 -3.17257 0.22862
C -2.84037 -6.37439 4.04979
C -3.45142 -7.68413 4.55541
C -2.69201 -8.69173 3.71994
C -1.78777 -7.75925 2.9125
O -1.50176 -6.728 3.80912
H -4.45622 -6.24823 2.62453
H -3.24142 -7.77866 1.30057
H -2.61933 -2.37283 0.63913
H -3.04066 -5.58242 4.78379
H -3.15572 -7.81828 5.6206
H -4.55841 -7.72993 4.46974
H -2.06106 -9.30914 4.39805
H -3.31988 -9.35355 3.08524
H -0.91342 -8.31643 2.50903
H -4.33267 -2.85686 0.28954
H -3.00663 -3.32991 -0.83716
H -3.55147 -0.89891 2.78723
H -3.5286 -0.00151 4.34971
H -4.49583 -1.51166 4.19773
H 1.53914 -3.38195 0.44123
H -0.0409 -2.66642 0.78646
H -0.49916 -4.56327 -0.63673
H 0.73886 -5.57304 0.22205
$end

$opt
CONSTRAINT
tors           1           2           3           4    +169.890
tors           3           4           5           6     +39.051
tors           4           5           6           7    +177.197
tors           5           6           7           8    +179.175
tors           6           7           8           9     +38.762
tors           7           8           9          10     -78.826
tors           8           9          10          11    -175.025
tors           9          10          11          12    +161.735
tors          11          12          13          14    +125.594
ENDCONSTRAINT
$end

$rem
JOBTYPE                   OPT
METHOD                    B3LYP
DFT_D                     d3_op
BASIS                     STO-3G
GEOM_OPT_MAX_CYCLES       100
GEOM_OPT_TOL_GRADIENT     300
GEOM_OPT_TOL_DISPLACEMENT 1200
GEOM_OPT_TOL_ENERGY       100
SYMMETRY                  False
THRESH                    12
SCF_CONVERGENCE           8
MAX_SUB_FILE_NUM          128
MEM_STATIC                400
MEM_TOTAL                 4000
$end
--------------------------------------------------------------

   16   -1510.1046276562      2.80E-09 Convergence criterion met
 Total energy in the final basis set = -1510.10462766
   14   -1510.1723601386      6.40E-09 Convergence criterion met
 Total energy in the final basis set = -1510.17236014
   15   -1510.2263097473      4.02E-09 Convergence criterion met
 Total energy in the final basis set = -1510.22630975
   14   -1510.2494429098      9.75E-09 Convergence criterion met
 Total energy in the final basis set = -1510.24944291
   14   -1510.2615124018      8.70E-09 Convergence criterion met
 Total energy in the final basis set = -1510.26151240
   14   -1510.2689679014      5.01E-09 Convergence criterion met
 Total energy in the final basis set = -1510.26896790
   13   -1510.2740098860      3.97E-09 Convergence criterion met
 Total energy in the final basis set = -1510.27400989
   12   -1510.2770976251      8.73E-09 Convergence criterion met
   11   -1510.2821108493      8.00E-09 Convergence criterion met
 Total energy in the final basis set = -1510.28211085
   11   -1510.2821342079      4.57E-09 Convergence criterion met
 Total energy in the final basis set = -1510.28213421
   11   -1510.2821458140      3.18E-09 Convergence criterion met
 Total energy in the final basis set = -1510.28214581
   10   -1510.2821530595      7.27E-09 Convergence criterion met
 Total energy in the final basis set = -1510.28215306
   10   -1510.2821581015      4.98E-09 Convergence criterion met
 Total energy in the final basis set = -1510.28215810
    9   -1510.2821601450      4.54E-09 Convergence criterion met
 Total energy in the final basis set = -1510.28216014

             Standard Nuclear Orientation (Angstroms)
    I     Atom           X                Y                Z
 ----------------------------------------------------------------
    1      O       1.2300929983    -1.2207661457     2.6524084592
    2      C       1.8157040841    -0.6082061730     1.7318380757
    3      C       1.7872556982     0.9522200891     1.5460503321
    4      C       2.7446060632     1.6531885018     0.5014806312
    5      C       3.1599762699     0.7785484763    -0.7312078842
    6      O       2.0272046939     0.0073560638    -1.1494423734
    7      C       2.3709933967    -0.7760306097    -2.3510213238
    8      C       1.1243319889    -1.6343414081    -2.7868973754
    9      O      -0.2122407845    -1.0069527410    -2.6678732495
   10      C      -0.6945694938    -1.0262124154    -1.3150696394
   11      C      -2.1565522728    -0.4552792520    -1.3548855094
   12      C      -3.0451980330    -0.7916072340    -0.0865252649
   13      C      -2.3311866991    -1.6168897490     1.0452126175
   14      O      -2.2432216378    -1.3007542542     2.2520035964
   15      O       2.7727807684    -1.2330951502     0.8684537006
   16      O      -2.0126774935    -2.9160654666     0.5259506571
   17      O      -0.0433499529    -1.4256463813    -0.3268773865
   18      C      -1.3309680012    -3.7270455639     1.5600354871
   19      C      -2.1795605197     1.1423055388    -1.2992779980
   20      C      -3.5882186924     1.6231370772    -1.8277650491
   21      C      -4.5149185100     1.2457969893    -0.6107706255
   22      C      -3.4617387811     0.6490874080     0.4037827152
   23      O      -2.2453885306     1.4486614594     0.1461436030
   24      H      -2.6304147380    -0.8147902233    -2.2849221368
   25      H      -3.9281427531    -1.3802400525    -0.3984235076
   26      H      -1.2904317645     1.6319253861    -1.7428954455
   27      H      -3.5796223677     2.7104057416    -2.0050822075
   28      H      -3.8792430662     1.1143973124    -2.7602536989
   29      H      -5.0031676738     2.1355397692    -0.1824816849
   30      H      -5.2913143013     0.5119628618    -0.8805107953
   31      H      -3.7366013687     0.6961393454     1.4754340227
   32      O       4.2695539247     0.7632140307    -1.3068922361
   33      C       2.7267948079    -2.6998917052     1.0436982212
   34      C       0.3737882251     1.5748985662     1.1451968438
   35      C       0.2668400200     2.9652461910     1.8776272235
   36      C       1.3705592439     3.7836149536     1.1074906509
   37      C       1.7556507675     2.7743553795    -0.0491458344
   38      O       0.5233671952     1.9877525782    -0.2698354760
   39      H       2.0470692550     1.3395104837     2.5497217144
   40      H       3.6560935556     2.0636940957     0.9690439679
   41      H       1.7631333984    -3.1071575731     0.6742201348
   42      H      -0.5091716610     0.9141486099     1.2445238807
   43      H      -0.7362179656     3.3916843671     1.7159670534
   44      H       0.4573394599     2.8950423355     2.9602385226
   45      H       0.9705373553     4.7203949983     0.6883784542
   46      H       2.2380916026     4.0252997311     1.7429471485
   47      H       2.0910318078     3.2483231087    -0.9923101089
   48      H       2.8530042280    -2.9934533653     2.1057659646
   49      H       3.5585804770    -3.1073340825     0.4399759441
   50      H      -0.3259940603    -4.0077786143     1.1884578120
   51      H      -1.9226179300    -4.6450085950     1.7473459938
   52      H      -1.2379111495    -3.1369079674     2.4940411554
   53      H       1.2315327569    -1.8848488668    -3.8619186554
   54      H       1.1315492096    -2.5785786203    -2.2003954728
   55      H       3.2226182055    -1.4633845181    -2.1515650205
   56      H       2.6746029681    -0.0943234494    -3.1760444123
 ----------------------------------------------------------------

    8   -1510.2821610926      8.26E-09 Convergence criterion met
 Total energy in the final basis set = -1510.28216109
 Final energy is   -1510.28216109264
 **  OPTIMIZATION CONVERGED  **

                    Orbital Energies (a.u.)
 --------------------------------------------------------------

 Alpha MOs
 -- Occupied --
-18.933 -18.924 -18.924 -18.921 -18.887 -18.879 -18.876 -18.868
-18.861 -18.858 -10.101 -10.093 -10.090 -10.089 -10.075 -10.069
-10.057 -10.056 -10.055 -10.053 -10.048 -10.041 -10.035 -10.034
-10.030 -10.025 -10.019 -10.017 -10.012 -10.006  -1.013  -1.003
 -0.999  -0.995  -0.971  -0.960  -0.938  -0.927  -0.926  -0.921
 -0.761  -0.753  -0.724  -0.717  -0.707  -0.697  -0.691  -0.654
 -0.651  -0.613  -0.593  -0.574  -0.542  -0.535  -0.533  -0.527
 -0.508  -0.500  -0.481  -0.475  -0.459  -0.454  -0.448  -0.431
 -0.427  -0.425  -0.421  -0.409  -0.407  -0.403  -0.398  -0.396
 -0.387  -0.379  -0.369  -0.362  -0.355  -0.351  -0.342  -0.340
 -0.337  -0.335  -0.332  -0.329  -0.322  -0.319  -0.314  -0.308
 -0.304  -0.303  -0.297  -0.294  -0.285  -0.282  -0.280  -0.268
 -0.266  -0.249  -0.241  -0.239  -0.237  -0.233  -0.220  -0.178
 -0.175  -0.165  -0.154  -0.152  -0.148  -0.143  -0.142  -0.136
 -0.132

          Ground-State Mulliken Net Atomic Charges

     Atom                 Charge (a.u.)
  ----------------------------------------
      1 O                    -0.217327
      2 C                     0.217573
      3 C                    -0.079889
      4 C                    -0.078241
      5 C                     0.216841
      6 O                    -0.163063
      7 C                    -0.045183
      8 C                    -0.047646
      9 O                    -0.170825
     10 C                     0.222370
     11 C                    -0.078965
     12 C                    -0.080277
     13 C                     0.216402
     14 O                    -0.213199
     15 O                    -0.168795
     16 O                    -0.175090
     17 O                    -0.205843
     18 C                    -0.134097
     19 C                     0.025738
     20 C                    -0.143615
     21 C                    -0.144173
     22 C                     0.023395
     23 O                    -0.189587
     24 H                     0.086122
     25 H                     0.084095
     26 H                     0.099460
     27 H                     0.077981
     28 H                     0.073387
     29 H                     0.077641
     30 H                     0.072756
     31 H                     0.089985
     32 O                    -0.221497
     33 C                    -0.126876
     34 C                     0.025933
     35 C                    -0.141318
     36 C                    -0.145646
     37 C                     0.024183
     38 O                    -0.193111
     39 H                     0.082532
     40 H                     0.083814
     41 H                     0.088704
     42 H                     0.104939
     43 H                     0.080797
     44 H                     0.072446
     45 H                     0.075420
     46 H                     0.071606
     47 H                     0.077942
     48 H                     0.089618
     49 H                     0.085250
     50 H                     0.081883
     51 H                     0.080761
     52 H                     0.107536
     53 H                     0.089227
     54 H                     0.086238
     55 H                     0.088580
     56 H                     0.083112
  ----------------------------------------
  Sum of atomic charges =     0.000000

                    Cartesian Multipole Moments
 -----------------------------------------------------------------
    Charge (ESU x 10^10)
                -0.0000
    Dipole Moment (Debye)
         X      -1.1279      Y      -0.6040      Z      -1.9194
       Tot       2.3067
    Quadrupole Moments (Debye-Ang)
        XX    -156.8834     XY      -2.9657     YY    -148.0160
        XZ       5.6633     YZ       4.5219     ZZ    -160.2586

 Total job time:  66.77s(wall), 3178.04s(cpu)
        *  Thank you very much for using Q-Chem.  Have a nice day.  *
