 Q-Chem 5.0, Q-Chem, Inc., Pleasanton, CA (2017)
 Q-Chem 5.0.1 for Intel X86 EM64T Linux

User input:
--------------------------------------------------------------
$molecule
0  1
O 1.2300929983 -1.2207661457 2.6524084592
C 1.8157040841 -0.608206173 1.7318380757
C 1.7872556982 0.9522200891 1.5460503321
C 2.7446060632 1.6531885018 0.5014806312
C 3.1599762699 0.7785484763 -0.7312078842
O 2.0272046939 0.0073560638 -1.1494423734
C 2.3709933967 -0.7760306097 -2.3510213238
C 1.1243319889 -1.6343414081 -2.7868973754
O -0.2122407845 -1.006952741 -2.6678732495
C -0.6945694938 -1.0262124154 -1.3150696394
C -2.1565522728 -0.455279252 -1.3548855094
C -3.045198033 -0.791607234 -0.0865252649
C -2.3311866991 -1.616889749 1.0452126175
O -2.2432216378 -1.3007542542 2.2520035964
O 2.7727807684 -1.2330951502 0.8684537006
O -2.0126774935 -2.9160654666 0.5259506571
O -0.0433499529 -1.4256463813 -0.3268773865
C -1.3309680012 -3.7270455639 1.5600354871
C -2.1795605197 1.1423055388 -1.299277998
C -3.5882186924 1.6231370772 -1.8277650491
C -4.51491851 1.2457969893 -0.6107706255
C -3.4617387811 0.649087408 0.4037827152
O -2.2453885306 1.4486614594 0.146143603
H -2.630414738 -0.8147902233 -2.2849221368
H -3.9281427531 -1.3802400525 -0.3984235076
H -1.2904317645 1.6319253861 -1.7428954455
H -3.5796223677 2.7104057416 -2.0050822075
H -3.8792430662 1.1143973124 -2.7602536989
H -5.0031676738 2.1355397692 -0.1824816849
H -5.2913143013 0.5119628618 -0.8805107953
H -3.7366013687 0.6961393454 1.4754340227
O 4.2695539247 0.7632140307 -1.3068922361
C 2.7267948079 -2.6998917052 1.0436982212
C 0.3737882251 1.5748985662 1.1451968438
C 0.26684002 2.965246191 1.8776272235
C 1.3705592439 3.7836149536 1.1074906509
C 1.7556507675 2.7743553795 -0.0491458344
O 0.5233671952 1.9877525782 -0.269835476
H 2.047069255 1.3395104837 2.5497217144
H 3.6560935556 2.0636940957 0.9690439679
H 1.7631333984 -3.1071575731 0.6742201348
H -0.509171661 0.9141486099 1.2445238807
H -0.7362179656 3.3916843671 1.7159670534
H 0.4573394599 2.8950423355 2.9602385226
H 0.9705373553 4.7203949983 0.6883784542
H 2.2380916026 4.0252997311 1.7429471485
H 2.0910318078 3.2483231087 -0.9923101089
H 2.853004228 -2.9934533653 2.1057659646
H 3.558580477 -3.1073340825 0.4399759441
H -0.3259940603 -4.0077786143 1.188457812
H -1.92261793 -4.645008595 1.7473459938
H -1.2379111495 -3.1369079674 2.4940411554
H 1.2315327569 -1.8848488668 -3.8619186554
H 1.1315492096 -2.5785786203 -2.2003954728
H 3.2226182055 -1.4633845181 -2.1515650205
H 2.6746029681 -0.0943234494 -3.1760444123
$end

$rem
JOBTYPE                   OPT
METHOD                    B3LYP
DFT_D                     d3_op
BASIS                     STO-3G
GEOM_OPT_MAX_CYCLES       100
GEOM_OPT_TOL_GRADIENT     300
GEOM_OPT_TOL_DISPLACEMENT 1200
GEOM_OPT_TOL_ENERGY       100
SYMMETRY                  False
THRESH                    12
SCF_CONVERGENCE           8
MAX_SUB_FILE_NUM          128
MEM_STATIC                400
MEM_TOTAL                 4000
$end
--------------------------------------------------------------

   16   -1510.2823276712      4.93E-09 Convergence criterion met
 Total energy in the final basis set = -1510.28232767
   14   -1510.2831430919      2.38E-09 Convergence criterion met
 Total energy in the final basis set = -1510.28314309
   13   -1510.2878270041      4.76E-09 Convergence criterion met
 Total energy in the final basis set = -1510.28782700
   14   -1510.2878282235      2.60E-09 Convergence criterion met
 Total energy in the final basis set = -1510.28782822
   14   -1510.2906988169      6.21E-09 Convergence criterion met
 Total energy in the final basis set = -1510.29069882
   14   -1510.2908107447      5.98E-09 Convergence criterion met
 Total energy in the final basis set = -1510.29081074
   14   -1510.2916173725      2.69E-09 Convergence criterion met
 Total energy in the final basis set = -1510.29161737
   15   -1510.2923492121      2.64E-09 Convergence criterion met
   12   -1510.3018971103      4.02E-09 Convergence criterion met
 Total energy in the final basis set = -1510.30189711
   11   -1510.3019488789      7.13E-09 Convergence criterion met
 Total energy in the final basis set = -1510.30194888
   10   -1510.3019491183      9.22E-09 Convergence criterion met
 Total energy in the final basis set = -1510.30194912
    9   -1510.3019496702      8.56E-09 Convergence criterion met
 Total energy in the final basis set = -1510.30194967
    9   -1510.3019501563      4.10E-09 Convergence criterion met
 Total energy in the final basis set = -1510.30195016
    9   -1510.3019503304      2.05E-09 Convergence criterion met
 Total energy in the final basis set = -1510.30195033

             Standard Nuclear Orientation (Angstroms)
    I     Atom           X                Y                Z
 ----------------------------------------------------------------
    1      O       0.2642211142    -0.7102809874     1.7884835849
    2      C       1.4053577961    -0.2897778553     1.5071201893
    3      C       1.8928819468     1.1988963445     1.5533088068
    4      C       2.9322442366     1.6089667234     0.4295262430
    5      C       3.2122176692     0.5052393960    -0.6485851908
    6      O       1.9770393064     0.1925451363    -1.3182605386
    7      C       2.2358427889    -0.6875640635    -2.4819809559
    8      C       1.0727479575    -1.7288619295    -2.5898620647
    9      O      -0.2247766685    -1.0111947953    -2.5228166897
   10      C      -0.9013984505    -1.2981646508    -1.2982235376
   11      C      -2.1574500416    -0.3769003585    -1.2093436483
   12      C      -3.2281429345    -0.8598259958    -0.1463149013
   13      C      -2.8319022868    -2.1692897858     0.6274721137
   14      O      -2.5006101506    -2.2696899602     1.8275954286
   15      O       2.5040588128    -1.1266472385     1.1255628144
   16      O      -3.0476552255    -3.2836932183    -0.2564437467
   17      O      -0.5304603576    -2.1546176301    -0.4609423794
   18      C      -2.6499298863    -4.5435270270     0.4094869209
   19      C      -1.7728462256     1.0537046864    -0.6237079239
   20      C      -2.9653029765     2.0435531914    -0.9252051252
   21      C      -4.0410722009     1.5633599384     0.1205499960
   22      C      -3.2688169747     0.3845177516     0.8322363339
   23      O      -1.8642545302     0.8499417968     0.8387397956
   24      H      -2.5919526536    -0.2874288660    -2.2206126882
   25      H      -4.2032981954    -1.0345568571    -0.6356465382
   26      H      -0.7560059129     1.4312766583    -0.8790399924
   27      H      -2.6524148794     3.0825169567    -0.7347199643
   28      H      -3.3186960066     1.9669988694    -1.9658277835
   29      H      -4.2842146234     2.3578013063     0.8438838231
   30      H      -4.9742847769     1.2214297482    -0.3549031732
   31      H      -3.5978722150     0.1385521514     1.8603410495
   32      O       4.3231943955     0.0321128270    -0.9729203903
   33      C       2.0509796300    -2.5351181673     1.0196072102
   34      C       0.6991014376     2.2043923734     1.2708111426
   35      C       1.1019603521     3.6182360212     1.8359525893
   36      C       2.2027793195     4.0568050130     0.7961430570
   37      C       2.1728232499     2.8457464075    -0.2197939757
   38      O       0.7596743751     2.4129805495    -0.1970115440
   39      H       2.3270354375     1.3774049984     2.5547316558
   40      H       3.9037812386     1.9007360615     0.8649361161
   41      H       1.0802670443    -2.5923003860     0.4766747194
   42      H      -0.3037158724     1.8023029331     1.5417801976
   43      H       0.2379539678     4.3015224645     1.8160781178
   44      H       1.4866328743     3.5646225895     2.8667212144
   45      H       1.9298099067     4.9943365318     0.2864256816
   46      H       3.1959398739     4.1817533740     1.2562879338
   47      H       2.4894864277     3.0894787919    -1.2526488213
   48      H       1.9316871781    -2.9885076823     2.0245797233
   49      H       2.8449431620    -3.0713306838     0.4681588550
   50      H      -1.7448621732    -4.9521519701    -0.0830151000
   51      H      -3.4786808691    -5.2717299077     0.3138985132
   52      H      -2.4335883077    -4.3430018000     1.4785732498
   53      H       1.1253137659    -2.2495153366    -3.5687896747
   54      H       1.1195180724    -2.4717322600    -1.7671953854
   55      H       3.2202622966    -1.1909371058    -2.3600340835
   56      H       2.2664744671    -0.0644578876    -3.4024765756
 ----------------------------------------------------------------

    9   -1510.3019505433      4.83E-09 Convergence criterion met
 Total energy in the final basis set = -1510.30195054
 Final energy is   -1510.30195054327
 **  OPTIMIZATION CONVERGED  **

                    Orbital Energies (a.u.)
 --------------------------------------------------------------

 Alpha MOs
 -- Occupied --
-18.940 -18.924 -18.922 -18.913 -18.887 -18.887 -18.883 -18.868
-18.867 -18.861 -10.107 -10.096 -10.087 -10.086 -10.074 -10.069
-10.059 -10.052 -10.045 -10.044 -10.043 -10.041 -10.035 -10.033
-10.030 -10.030 -10.018 -10.014 -10.014 -10.012  -1.019  -1.006
 -0.997  -0.993  -0.969  -0.963  -0.944  -0.929  -0.924  -0.920
 -0.759  -0.757  -0.726  -0.717  -0.708  -0.701  -0.691  -0.649
 -0.648  -0.613  -0.593  -0.575  -0.541  -0.537  -0.534  -0.529
 -0.510  -0.501  -0.480  -0.477  -0.462  -0.451  -0.447  -0.433
 -0.430  -0.427  -0.422  -0.412  -0.407  -0.405  -0.397  -0.397
 -0.393  -0.372  -0.366  -0.364  -0.357  -0.351  -0.346  -0.344
 -0.339  -0.338  -0.332  -0.328  -0.323  -0.318  -0.316  -0.308
 -0.306  -0.301  -0.296  -0.293  -0.290  -0.283  -0.275  -0.269
 -0.265  -0.252  -0.243  -0.237  -0.236  -0.235  -0.217  -0.184
 -0.169  -0.165  -0.160  -0.157  -0.151  -0.144  -0.142  -0.141
 -0.135

          Ground-State Mulliken Net Atomic Charges

     Atom                 Charge (a.u.)
  ----------------------------------------
      1 O                    -0.196290
      2 C                     0.209701
      3 C                    -0.079855
      4 C                    -0.078566
      5 C                     0.216474
      6 O                    -0.176595
      7 C                    -0.053545
      8 C                    -0.053623
      9 O                    -0.167478
     10 C                     0.225748
     11 C                    -0.077330
     12 C                    -0.078931
     13 C                     0.218578
     14 O                    -0.209585
     15 O                    -0.175519
     16 O                    -0.179065
     17 O                    -0.209624
     18 C                    -0.135503
     19 C                     0.014833
     20 C                    -0.144275
     21 C                    -0.145049
     22 C                     0.027547
     23 O                    -0.188737
     24 H                     0.086888
     25 H                     0.083295
     26 H                     0.112303
     27 H                     0.077344
     28 H                     0.071873
     29 H                     0.075912
     30 H                     0.071863
     31 H                     0.089300
     32 O                    -0.218437
     33 C                    -0.143534
     34 C                     0.013824
     35 C                    -0.143919
     36 C                    -0.144343
     37 C                     0.027407
     38 O                    -0.194344
     39 H                     0.083894
     40 H                     0.084828
     41 H                     0.111726
     42 H                     0.114375
     43 H                     0.076516
     44 H                     0.073270
     45 H                     0.076408
     46 H                     0.073364
     47 H                     0.080700
     48 H                     0.082350
     49 H                     0.080788
     50 H                     0.081580
     51 H                     0.080550
     52 H                     0.101400
     53 H                     0.087792
     54 H                     0.099239
     55 H                     0.100216
     56 H                     0.082261
  ----------------------------------------
  Sum of atomic charges =     0.000000

                    Cartesian Multipole Moments
 -----------------------------------------------------------------
    Charge (ESU x 10^10)
                 0.0000
    Dipole Moment (Debye)
         X      -0.4074      Y       0.9058      Z      -1.7153
       Tot       1.9821
    Quadrupole Moments (Debye-Ang)
        XX    -158.6397     XY       0.6210     YY    -147.8879
        XZ       3.3617     YZ       5.7359     ZZ    -157.3400

 Total job time:  111.98s(wall), 5335.97s(cpu)
        *  Thank you very much for using Q-Chem.  Have a nice day.  *
