 Q-Chem 5.0, Q-Chem, Inc., Pleasanton, CA (2017)
 Q-Chem 5.0.1 for Intel X86 EM64T Linux

User input:
--------------------------------------------------------------
$molecule
0  1
O -3.94934 -3.66094 2.70899
C -3.26408 -4.56952 2.26188
C -3.36658 -6.02376 2.66595
C -2.91183 -7.07245 1.63769
C -2.23974 -6.54557 0.38918
O -1.16377 -5.77674 0.73066
C -0.42841 -5.30231 -0.40222
C 0.74178 -4.43773 0.05525
O 1.21961 -4.8956 1.32997
C 0.87046 -4.1294 2.39307
C 1.87546 -4.19167 3.51857
C 1.57895 -3.2608 4.70341
C 0.17719 -2.68746 4.75859
O -0.64515 -2.90886 5.63569
O -2.74882 -4.167 1.07108
O -0.05313 -1.62522 3.93635
O -0.16368 -3.4845 2.36923
C -1.21668 -0.8833 3.92755
C 1.94382 -5.56055 4.21664
C 3.31173 -5.72575 4.87435
C 3.20186 -4.72522 6.0073
C 1.74001 -4.28729 5.84772
O 1.09557 -5.4268 5.32956
H 2.86325 -3.94453 3.06679
H 2.29496 -2.41452 4.79617
H 1.73217 -6.41571 3.5382
H 3.34015 -6.75189 5.30661
H 4.18695 -5.58727 4.20362
H 3.35224 -5.26693 6.9674
H 3.89374 -3.85745 5.94499
H 1.35147 -3.90612 6.81784
O -2.60153 -6.7986 -0.75363
C -2.78484 -2.88714 0.53584
C -2.42569 -6.35508 3.83966
C -2.92945 -7.59662 4.57496
C -2.59223 -8.67832 3.5679
C -1.88722 -7.84651 2.49171
O -1.25186 -6.8261 3.22504
H -4.42382 -6.18881 2.97369
H -3.74998 -7.72612 1.30777
H -2.26523 -2.17397 1.20928
H -2.30025 -5.5083 4.55021
H -2.28486 -7.73616 5.47231
H -3.99434 -7.55484 4.8899
H -1.87102 -9.3832 4.03838
H -3.46167 -9.23947 3.1623
H -1.22401 -8.48944 1.87171
H -3.83627 -2.56265 0.38382
H -2.27429 -2.88089 -0.44712
H -1.13792 -0.0923 3.15399
H -1.37293 -0.4032 4.91704
H -2.08343 -1.53512 3.6868
H 1.5549 -4.40293 -0.70021
H 0.35946 -3.39256 0.11371
H -1.04569 -4.76538 -1.15596
H 0.01468 -6.19947 -0.89116
$end

$opt
CONSTRAINT
tors           1           2           3           4    +154.131
tors           3           4           5           6     +56.094
tors           4           5           6           7    +176.664
tors           5           6           7           8    +179.175
tors           6           7           8           9     +31.244
tors           7           8           9          10    -104.419
tors           8           9          10          11    -151.174
tors           9          10          11          12    +175.668
tors          11          12          13          14    +115.949
ENDCONSTRAINT
$end

$rem
JOBTYPE                   OPT
METHOD                    B3LYP
DFT_D                     d3_op
BASIS                     STO-3G
GEOM_OPT_MAX_CYCLES       100
GEOM_OPT_TOL_GRADIENT     300
GEOM_OPT_TOL_DISPLACEMENT 1200
GEOM_OPT_TOL_ENERGY       100
SYMMETRY                  False
THRESH                    12
SCF_CONVERGENCE           8
MAX_SUB_FILE_NUM          128
MEM_STATIC                400
MEM_TOTAL                 4000
$end
--------------------------------------------------------------

   15   -1510.1219014673      6.85E-09 Convergence criterion met
 Total energy in the final basis set = -1510.12190147
   14   -1510.1986693376      6.17E-09 Convergence criterion met
 Total energy in the final basis set = -1510.19866934
   15   -1510.2382869360      2.81E-09 Convergence criterion met
 Total energy in the final basis set = -1510.23828694
   14   -1510.2597979089      7.16E-09 Convergence criterion met
 Total energy in the final basis set = -1510.25979791
   14   -1510.2649629200      9.59E-09 Convergence criterion met
 Total energy in the final basis set = -1510.26496292
   14   -1510.2680258584      7.76E-09 Convergence criterion met
 Total energy in the final basis set = -1510.26802586
   14   -1510.2721735156      6.55E-09 Convergence criterion met
 Total energy in the final basis set = -1510.27217352
   14   -1510.2746795952      5.32E-09 Convergence criterion met
   11   -1510.2787546861      6.39E-09 Convergence criterion met
 Total energy in the final basis set = -1510.27875469
   11   -1510.2788183182      7.06E-09 Convergence criterion met
 Total energy in the final basis set = -1510.27881832
   11   -1510.2788533785      3.68E-09 Convergence criterion met
 Total energy in the final basis set = -1510.27885338
   10   -1510.2788688249      8.99E-09 Convergence criterion met
 Total energy in the final basis set = -1510.27886882
   11   -1510.2788758874      2.11E-09 Convergence criterion met
 Total energy in the final basis set = -1510.27887589
   11   -1510.2788783225      1.97E-09 Convergence criterion met
 Total energy in the final basis set = -1510.27887832

             Standard Nuclear Orientation (Angstroms)
    I     Atom           X                Y                Z
 ----------------------------------------------------------------
    1      O       2.0730392943    -1.4632152149     2.7122064621
    2      C       2.2439297509    -0.9251425648     1.5946887187
    3      C       2.2762504451     0.6274148593     1.3641187408
    4      C       3.0645637767     1.2550017473     0.1375177212
    5      C       3.2875354839     0.3029574461    -1.0931907318
    6      O       2.0023467825    -0.1545897496    -1.5024079408
    7      C       2.0575320484    -1.0031504086    -2.7085455109
    8      C       0.5488762216    -1.3937724367    -2.9440601261
    9      O      -0.3401418873    -0.3000162825    -2.4770288882
   10      C      -0.9594739221    -0.6338945293    -1.2314576526
   11      C      -2.3452291781     0.0921378352    -1.1322755442
   12      C      -3.1491711758    -0.3092994613     0.1701298292
   13      C      -2.4662992126    -1.4299405111     1.0401581664
   14      O      -2.0300051101    -1.3191429935     2.2058160309
   15      O       2.4843568198    -1.6727066892     0.4011656065
   16      O      -2.6740898175    -2.6877762670     0.3709987965
   17      O      -0.4703637779    -1.4205966139    -0.3884595721
   18      C      -2.0389936530    -3.7727560034     1.1482973900
   19      C      -2.1724319519     1.6578801039    -0.8944489843
   20      C      -3.5706216044     2.3575139895    -1.1240690739
   21      C      -4.3349556660     1.9565841439     0.1936065451
   22      C      -3.2435356432     1.0786850076     0.9220369716
   23      O      -1.9747892760     1.7537700162     0.5690718731
   24      H      -2.9120776814    -0.1179297259    -2.0568727430
   25      H      -4.1518706617    -0.6821880502    -0.1074617962
   26      H      -1.3062885746     2.1023629118    -1.4217050831
   27      H      -3.4455847841     3.4491360985    -1.2031715469
   28      H      -4.0723506966     1.9927799815    -2.0345274920
   29      H      -4.5851124101     2.8421085990     0.7995515696
   30      H      -5.2597294390     1.3916462974    -0.0048298348
   31      H      -3.3435315290     0.9922631354     2.0214309620
   32      O       4.3625484360     0.0222017111    -1.6662552361
   33      C       2.3759114650    -3.1213185817     0.6811836314
   34      C       0.8320245088     1.2938803903     1.1889044514
   35      C       0.9004903355     2.7220145946     1.8485011825
   36      C       1.8637279739     3.4584159654     0.8426408186
   37      C       2.0142244522     2.3719156148    -0.2983268558
   38      O       0.7377450132     1.6250334093    -0.2493438510
   39      H       2.7197713659     1.0230029682     2.2964834004
   40      H       4.0403206381     1.6684780678     0.4466775419
   41      H       1.3378441054    -3.3987077487     0.9573079260
   42      H      -0.0271871615     0.6654661376     1.4942513465
   43      H      -0.1055149776     3.1724811259     1.8471073271
   44      H       1.2875610141     2.7000725444     2.8796721580
   45      H       1.4120705859     4.3798868721     0.4426732845
   46      H       2.8356489166     3.7115946318     1.2959286666
   47      H       2.1843065761     2.7801125185    -1.3136355385
   48      H       3.0570474779    -3.4376846939     1.4973169187
   49      H       2.6559453194    -3.6321946539    -0.2584538182
   50      H      -2.2724544216    -4.7130452503     0.6154315947
   51      H      -2.4334232004    -3.8237788880     2.1839642362
   52      H      -0.9384935838    -3.6392404887     1.1983065667
   53      H       0.3462129951    -1.5357092701    -4.0261208775
   54      H       0.3199421164    -2.3294167207    -2.3929317691
   55      H       2.6845315856    -1.9076949941    -2.5503098711
   56      H       2.4683762535    -0.4369726477    -3.5729809148
 ----------------------------------------------------------------

   10   -1510.2788785864      8.42E-09 Convergence criterion met
 Total energy in the final basis set = -1510.27887859
 Final energy is   -1510.27887858638
 **  OPTIMIZATION CONVERGED  **

                    Orbital Energies (a.u.)
 --------------------------------------------------------------

 Alpha MOs
 -- Occupied --
-18.930 -18.928 -18.924 -18.915 -18.884 -18.883 -18.880 -18.861
-18.860 -18.858 -10.104 -10.090 -10.090 -10.088 -10.075 -10.069
-10.059 -10.055 -10.054 -10.054 -10.053 -10.046 -10.036 -10.030
-10.030 -10.027 -10.018 -10.017 -10.013 -10.007  -1.015  -1.004
 -0.997  -0.994  -0.968  -0.961  -0.940  -0.926  -0.922  -0.922
 -0.759  -0.753  -0.724  -0.716  -0.706  -0.698  -0.691  -0.655
 -0.652  -0.611  -0.593  -0.575  -0.542  -0.535  -0.534  -0.528
 -0.510  -0.502  -0.483  -0.478  -0.461  -0.455  -0.449  -0.430
 -0.427  -0.426  -0.419  -0.409  -0.404  -0.404  -0.398  -0.397
 -0.388  -0.380  -0.366  -0.364  -0.357  -0.349  -0.341  -0.340
 -0.337  -0.330  -0.328  -0.328  -0.323  -0.322  -0.319  -0.308
 -0.304  -0.303  -0.298  -0.293  -0.288  -0.284  -0.273  -0.269
 -0.267  -0.247  -0.242  -0.240  -0.235  -0.232  -0.222  -0.176
 -0.172  -0.162  -0.159  -0.154  -0.144  -0.142  -0.139  -0.138
 -0.132

          Ground-State Mulliken Net Atomic Charges

     Atom                 Charge (a.u.)
  ----------------------------------------
      1 O                    -0.216552
      2 C                     0.210052
      3 C                    -0.080486
      4 C                    -0.078828
      5 C                     0.215228
      6 O                    -0.160645
      7 C                    -0.042913
      8 C                    -0.044856
      9 O                    -0.169324
     10 C                     0.229728
     11 C                    -0.077665
     12 C                    -0.082193
     13 C                     0.215287
     14 O                    -0.220210
     15 O                    -0.165420
     16 O                    -0.178213
     17 O                    -0.203523
     18 C                    -0.127615
     19 C                     0.026678
     20 C                    -0.144618
     21 C                    -0.143801
     22 C                     0.023089
     23 O                    -0.191067
     24 H                     0.085163
     25 H                     0.082878
     26 H                     0.097925
     27 H                     0.077069
     28 H                     0.072566
     29 H                     0.076787
     30 H                     0.072472
     31 H                     0.088200
     32 O                    -0.220773
     33 C                    -0.124776
     34 C                     0.028808
     35 C                    -0.141617
     36 C                    -0.145793
     37 C                     0.025963
     38 O                    -0.187269
     39 H                     0.083694
     40 H                     0.082892
     41 H                     0.088700
     42 H                     0.099704
     43 H                     0.084382
     44 H                     0.072649
     45 H                     0.075494
     46 H                     0.071803
     47 H                     0.078441
     48 H                     0.089942
     49 H                     0.085363
     50 H                     0.084439
     51 H                     0.087499
     52 H                     0.086362
     53 H                     0.086467
     54 H                     0.092042
     55 H                     0.087381
     56 H                     0.083009
  ----------------------------------------
  Sum of atomic charges =     0.000000

                    Cartesian Multipole Moments
 -----------------------------------------------------------------
    Charge (ESU x 10^10)
                -0.0000
    Dipole Moment (Debye)
         X      -1.7931      Y      -0.0430      Z      -2.4488
       Tot       3.0354
    Quadrupole Moments (Debye-Ang)
        XX    -158.2404     XY      -0.0545     YY    -146.6859
        XZ       3.9947     YZ       5.5354     ZZ    -161.3920

 Total job time:  65.07s(wall), 3096.52s(cpu)
        *  Thank you very much for using Q-Chem.  Have a nice day.  *
