 Q-Chem 5.0, Q-Chem, Inc., Pleasanton, CA (2017)
 Q-Chem 5.0.1 for Intel X86 EM64T Linux

User input:
--------------------------------------------------------------
$molecule
0  1
O 2.0730392943 -1.4632152149 2.7122064621
C 2.2439297509 -0.9251425648 1.5946887187
C 2.2762504451 0.6274148593 1.3641187408
C 3.0645637767 1.2550017473 0.1375177212
C 3.2875354839 0.3029574461 -1.0931907318
O 2.0023467825 -0.1545897496 -1.5024079408
C 2.0575320484 -1.0031504086 -2.7085455109
C 0.5488762216 -1.3937724367 -2.9440601261
O -0.3401418873 -0.3000162825 -2.4770288882
C -0.9594739221 -0.6338945293 -1.2314576526
C -2.3452291781 0.0921378352 -1.1322755442
C -3.1491711758 -0.3092994613 0.1701298292
C -2.4662992126 -1.4299405111 1.0401581664
O -2.0300051101 -1.3191429935 2.2058160309
O 2.4843568198 -1.6727066892 0.4011656065
O -2.6740898175 -2.687776267 0.3709987965
O -0.4703637779 -1.4205966139 -0.3884595721
C -2.038993653 -3.7727560034 1.14829739
C -2.1724319519 1.6578801039 -0.8944489843
C -3.5706216044 2.3575139895 -1.1240690739
C -4.334955666 1.9565841439 0.1936065451
C -3.2435356432 1.0786850076 0.9220369716
O -1.974789276 1.7537700162 0.5690718731
H -2.9120776814 -0.1179297259 -2.056872743
H -4.1518706617 -0.6821880502 -0.1074617962
H -1.3062885746 2.1023629118 -1.4217050831
H -3.4455847841 3.4491360985 -1.2031715469
H -4.0723506966 1.9927799815 -2.034527492
H -4.5851124101 2.842108599 0.7995515696
H -5.259729439 1.3916462974 -0.0048298348
H -3.343531529 0.9922631354 2.021430962
O 4.362548436 0.0222017111 -1.6662552361
C 2.375911465 -3.1213185817 0.6811836314
C 0.8320245088 1.2938803903 1.1889044514
C 0.9004903355 2.7220145946 1.8485011825
C 1.8637279739 3.4584159654 0.8426408186
C 2.0142244522 2.3719156148 -0.2983268558
O 0.7377450132 1.6250334093 -0.249343851
H 2.7197713659 1.0230029682 2.2964834004
H 4.0403206381 1.6684780678 0.4466775419
H 1.3378441054 -3.3987077487 0.957307926
H -0.0271871615 0.6654661376 1.4942513465
H -0.1055149776 3.1724811259 1.8471073271
H 1.2875610141 2.7000725444 2.879672158
H 1.4120705859 4.3798868721 0.4426732845
H 2.8356489166 3.7115946318 1.2959286666
H 2.1843065761 2.7801125185 -1.3136355385
H 3.0570474779 -3.4376846939 1.4973169187
H 2.6559453194 -3.6321946539 -0.2584538182
H -2.2724544216 -4.7130452503 0.6154315947
H -2.4334232004 -3.823778888 2.1839642362
H -0.9384935838 -3.6392404887 1.1983065667
H 0.3462129951 -1.5357092701 -4.0261208775
H 0.3199421164 -2.3294167207 -2.3929317691
H 2.6845315856 -1.9076949941 -2.5503098711
H 2.4683762535 -0.4369726477 -3.5729809148
$end

$rem
JOBTYPE                   OPT
METHOD                    B3LYP
DFT_D                     d3_op
BASIS                     STO-3G
GEOM_OPT_MAX_CYCLES       100
GEOM_OPT_TOL_GRADIENT     300
GEOM_OPT_TOL_DISPLACEMENT 1200
GEOM_OPT_TOL_ENERGY       100
SYMMETRY                  False
THRESH                    12
SCF_CONVERGENCE           8
MAX_SUB_FILE_NUM          128
MEM_STATIC                400
MEM_TOTAL                 4000
$end
--------------------------------------------------------------

   16   -1510.2789277601      5.41E-09 Convergence criterion met
 Total energy in the final basis set = -1510.27892776
   14   -1510.2825574680      6.37E-09 Convergence criterion met
 Total energy in the final basis set = -1510.28255747
   14   -1510.2837551877      5.39E-09 Convergence criterion met
 Total energy in the final basis set = -1510.28375519
   14   -1510.2777425190      9.69E-09 Convergence criterion met
 Total energy in the final basis set = -1510.27774252
   14   -1510.2836448249      8.12E-09 Convergence criterion met
 Total energy in the final basis set = -1510.28364482
   15   -1510.2885157911      3.36E-09 Convergence criterion met
 Total energy in the final basis set = -1510.28851579
   14   -1510.2907911878      3.93E-09 Convergence criterion met
 Total energy in the final basis set = -1510.29079119
   14   -1510.2923597055      4.45E-09 Convergence criterion met
   11   -1510.3040230746      6.20E-09 Convergence criterion met
 Total energy in the final basis set = -1510.30402307
   10   -1510.3040290913      5.44E-09 Convergence criterion met
 Total energy in the final basis set = -1510.30402909
   11   -1510.3040253588      2.80E-09 Convergence criterion met
 Total energy in the final basis set = -1510.30402536
    9   -1510.3040301797      9.87E-09 Convergence criterion met
 Total energy in the final basis set = -1510.30403018
    9   -1510.3040311394      3.91E-09 Convergence criterion met
 Total energy in the final basis set = -1510.30403114
    9   -1510.3040327007      4.22E-09 Convergence criterion met
 Total energy in the final basis set = -1510.30403270

             Standard Nuclear Orientation (Angstroms)
    I     Atom           X                Y                Z
 ----------------------------------------------------------------
    1      O       1.0014633020    -1.9480275939     2.1038543383
    2      C       1.7036085453    -1.1995835956     1.3856655342
    3      C       1.9095338329     0.3346498849     1.6238202136
    4      C       2.7758787604     1.1682714162     0.5875209957
    5      C       3.0959212115     0.4437067540    -0.7674937501
    6      O       1.8857485512     0.4118713990    -1.5379633459
    7      C       2.0796663750    -0.2989208134    -2.8172625728
    8      C       0.9061836852    -1.3284953891    -2.9578889312
    9      O      -0.4053723650    -0.6483351794    -2.8096697673
   10      C      -0.8522629507    -0.6894163171    -1.4506474663
   11      C      -2.2438501933     0.0153266193    -1.3751735181
   12      C      -3.0912632447    -0.3968903142    -0.1028564618
   13      C      -2.2707643212    -1.2043565119     0.9718193975
   14      O      -1.7021943846    -0.7388439997     1.9880561465
   15      O       2.4808667415    -1.6745291303     0.2857945432
   16      O      -2.3760641535    -2.5959363471     0.6779699100
   17      O      -0.2490964014    -1.2647146248    -0.5171804104
   18      C      -1.5637018604    -3.3783475386     1.6432547867
   19      C      -2.1595914270     1.5981132781    -1.1826977825
   20      C      -3.5364370931     2.2009999945    -1.6670032576
   21      C      -4.4906302654     1.7307621506    -0.5063568699
   22      C      -3.4669630536     1.0289415739     0.4722369084
   23      O      -2.2110510355     1.7904913077     0.2822388760
   24      H      -2.7847697405    -0.2226143861    -2.3084171937
   25      H      -3.9751099326    -0.9931787018    -0.3913678596
   26      H      -1.2469333665     2.0649094811    -1.6001078973
   27      H      -3.4744655467     3.2999727021    -1.7158643238
   28      H      -3.8407734928     1.8184320974    -2.6543573473
   29      H      -4.9791555497     2.5845587978    -0.0104813954
   30      H      -5.2696072884     1.0338577114    -0.8556412924
   31      H      -3.7556079919     1.0243573457     1.5408494564
   32      O       4.2055144402     0.0462457649    -1.1849672502
   33      C       2.2460407297    -3.1210537808     0.0800629115
   34      C       0.5223991817     1.1314593926     1.5939516065
   35      C       0.6923995184     2.4040866712     2.5065674971
   36      C       1.6823182707     3.2663963692     1.6371804971
   37      C       1.7892866204     2.3863942129     0.3268989408
   38      O       0.4764459305     1.7140666106     0.2354030280
   39      H       2.3608470123     0.4212903694     2.6299486112
   40      H       3.7347424894     1.4817817595     1.0365028262
   41      H       1.1841491089    -3.3170339675    -0.1730615535
   42      H      -0.3806640667     0.4993792653     1.7847071995
   43      H      -0.2790813664     2.9098927986     2.6257678569
   44      H       1.0928264573     2.1630832693     3.5041143579
   45      H       1.2642567557     4.2582282434     1.4037887795
   46      H       2.6636345661     3.4025140309     2.1197982035
   47      H       2.0033184006     2.9521579289    -0.6005691026
   48      H       2.5123453031    -3.7089080796     0.9819914314
   49      H       2.8961254832    -3.4177998059    -0.7634408575
   50      H      -1.4768104932    -4.3930630417     1.2133197984
   51      H      -2.0742613026    -3.4423217764     2.6258462330
   52      H      -0.5555389407    -2.9217827592     1.7887388093
   53      H       0.9136425430    -1.7814337824    -3.9704522384
   54      H       1.0064082940    -2.1181719455    -2.1859803131
   55      H       3.0695984056    -0.8065700135    -2.8221050111
   56      H       2.0439801640     0.4357430798    -3.6506877939
 ----------------------------------------------------------------

    9   -1510.3040329352      3.87E-09 Convergence criterion met
 Total energy in the final basis set = -1510.30403294
 Final energy is   -1510.30403293524
 **  OPTIMIZATION CONVERGED  **

                    Orbital Energies (a.u.)
 --------------------------------------------------------------

 Alpha MOs
 -- Occupied --
-18.937 -18.936 -18.920 -18.920 -18.882 -18.880 -18.870 -18.869
-18.861 -18.861 -10.104 -10.099 -10.092 -10.091 -10.073 -10.066
-10.064 -10.054 -10.053 -10.047 -10.035 -10.034 -10.030 -10.028
-10.027 -10.025 -10.016 -10.015 -10.006 -10.001  -1.017  -1.009
 -0.999  -0.996  -0.964  -0.953  -0.940  -0.931  -0.925  -0.922
 -0.759  -0.750  -0.722  -0.714  -0.705  -0.696  -0.686  -0.660
 -0.646  -0.612  -0.590  -0.574  -0.540  -0.533  -0.530  -0.523
 -0.506  -0.503  -0.479  -0.477  -0.462  -0.452  -0.447  -0.431
 -0.428  -0.423  -0.420  -0.411  -0.408  -0.406  -0.397  -0.392
 -0.388  -0.375  -0.372  -0.365  -0.357  -0.347  -0.345  -0.342
 -0.339  -0.332  -0.328  -0.327  -0.322  -0.316  -0.307  -0.307
 -0.301  -0.300  -0.299  -0.289  -0.285  -0.281  -0.268  -0.267
 -0.264  -0.249  -0.244  -0.237  -0.233  -0.226  -0.215  -0.184
 -0.177  -0.162  -0.159  -0.154  -0.150  -0.142  -0.140  -0.138
 -0.125

          Ground-State Mulliken Net Atomic Charges

     Atom                 Charge (a.u.)
  ----------------------------------------
      1 O                    -0.216587
      2 C                     0.226811
      3 C                    -0.080141
      4 C                    -0.079576
      5 C                     0.219772
      6 O                    -0.173512
      7 C                    -0.052699
      8 C                    -0.050492
      9 O                    -0.170428
     10 C                     0.225528
     11 C                    -0.078786
     12 C                    -0.080622
     13 C                     0.221690
     14 O                    -0.218397
     15 O                    -0.166296
     16 O                    -0.174693
     17 O                    -0.213534
     18 C                    -0.143677
     19 C                     0.029711
     20 C                    -0.143244
     21 C                    -0.145149
     22 C                     0.024402
     23 O                    -0.182299
     24 H                     0.085123
     25 H                     0.083503
     26 H                     0.094839
     27 H                     0.077221
     28 H                     0.072360
     29 H                     0.076812
     30 H                     0.072024
     31 H                     0.084792
     32 O                    -0.222652
     33 C                    -0.127291
     34 C                     0.015229
     35 C                    -0.142861
     36 C                    -0.145675
     37 C                     0.026453
     38 O                    -0.189379
     39 H                     0.083563
     40 H                     0.081597
     41 H                     0.094443
     42 H                     0.116500
     43 H                     0.079296
     44 H                     0.069669
     45 H                     0.074468
     46 H                     0.069308
     47 H                     0.077151
     48 H                     0.090289
     49 H                     0.089095
     50 H                     0.077674
     51 H                     0.078500
     52 H                     0.117054
     53 H                     0.087500
     54 H                     0.094614
     55 H                     0.099050
     56 H                     0.081949
  ----------------------------------------
  Sum of atomic charges =    -0.000000

                    Cartesian Multipole Moments
 -----------------------------------------------------------------
    Charge (ESU x 10^10)
                 0.0000
    Dipole Moment (Debye)
         X      -0.9107      Y      -0.4795      Z      -1.9512
       Tot       2.2060
    Quadrupole Moments (Debye-Ang)
        XX    -156.9643     XY      -1.7485     YY    -151.3618
        XZ       4.0889     YZ       3.3863     ZZ    -155.5400

 Total job time:  120.28s(wall), 5731.25s(cpu)
        *  Thank you very much for using Q-Chem.  Have a nice day.  *
