 Q-Chem 5.0, Q-Chem, Inc., Pleasanton, CA (2017)
 Q-Chem 5.0.1 for Intel X86 EM64T Linux

User input:
--------------------------------------------------------------
$molecule
0  1
O -4.6413792755 -0.3242833498 1.9250287557
C -3.799723948 -0.2080811888 1.0059746784
C -2.9594886641 -1.3789670909 0.3938871874
C -2.4640375378 -1.2591351212 -1.1102330028
C -2.5776629444 0.1683908074 -1.7677154976
O -1.4890054148 0.961816619 -1.2934596586
C -1.4375910036 2.2866355533 -1.9502673333
C -0.2055347142 2.9768328261 -1.2732868445
O 1.0052173333 2.1834718983 -1.6009364669
C 1.385031138 1.4017147976 -0.4599970693
C 2.7820403955 0.7547416503 -0.718075336
C 3.4333919517 0.1773728439 0.6039813375
C 2.5670115933 0.3769992069 1.9054939576
O 1.9483459891 -0.5040527558 2.5383892363
O -3.4781341856 1.0431132411 0.3938812653
O 2.747581033 1.7299159149 2.3585368207
O 0.726128138 1.3463813809 0.6028914779
C 1.894546931 1.9691233702 3.542510294
C 2.6641377606 -0.565502204 -1.5972878236
C 4.1088915353 -0.9673840069 -2.0963573447
C 4.7321088583 -1.5587886037 -0.7772325064
C 3.5377503808 -1.3623117533 0.2365053524
O 2.3365798086 -1.6053312117 -0.5986023083
H 3.4278092044 1.5050403624 -1.2080158805
H 4.4260317629 0.6305280076 0.7760957278
H 1.8888828933 -0.5184318614 -2.3868191209
H 4.0432363968 -1.7281330488 -2.8905335355
H 4.6701495862 -0.1017160923 -2.4827431152
H 4.9717762204 -2.6281827553 -0.8888104709
H 5.6409709239 -1.0238879588 -0.4592707914
H 3.5322272553 -2.0351585624 1.1155767061
O -3.4143231187 0.5499406272 -2.6148714139
C -4.2980170399 2.1254439513 0.9827174058
C -1.5707370487 -1.6288667097 1.1533601777
C -1.2032174917 -3.153032474 0.9715997976
C -0.8054293768 -3.178598569 -0.5506202454
C -0.9332064482 -1.6512239389 -0.9312894793
O -0.5667873649 -0.9447018173 0.3170132359
H -3.5923306355 -2.2784405781 0.5012150716
H -3.0133384752 -1.9671901291 -1.7560911926
H -4.1335454888 2.2123109765 2.0760449788
H -1.5347019654 -1.2514541948 2.1936286942
H -0.3468321314 -3.4133788042 1.6140230307
H -2.0452765846 -3.8227035936 1.2090432121
H 0.2356553257 -3.5103469186 -0.6905500794
H -1.4707329471 -3.8158864778 -1.1553745678
H -0.2815326591 -1.3250053403 -1.7631846513
H -5.3802355822 1.9638163772 0.8003154419
H -3.9737213212 3.056530696 0.4828373493
H 2.0958336831 3.0076960884 3.86383968
H 2.1344099341 1.2709849413 4.3706650718
H 0.8198317868 1.8596362617 3.2895187306
H -0.0541994027 3.9998217615 -1.6754261392
H -0.3499633316 2.9969073653 -0.1726248362
H -2.3699899073 2.8676649536 -1.7732198721
H -1.2853654099 2.1900683615 -3.0478132074
$end

$rem
JOBTYPE                   OPT
METHOD                    B3LYP
DFT_D                     d3_op
BASIS                     STO-3G
GEOM_OPT_MAX_CYCLES       100
GEOM_OPT_TOL_GRADIENT     300
GEOM_OPT_TOL_DISPLACEMENT 1200
GEOM_OPT_TOL_ENERGY       100
SYMMETRY                  False
THRESH                    12
SCF_CONVERGENCE           8
MAX_SUB_FILE_NUM          128
MEM_STATIC                400
MEM_TOTAL                 4000
$end
--------------------------------------------------------------

   16   -1510.2842991444      5.27E-09 Convergence criterion met
 Total energy in the final basis set = -1510.28429914
   15   -1510.2803385336      2.45E-09 Convergence criterion met
 Total energy in the final basis set = -1510.28033853
   14   -1510.2862335581      6.39E-09 Convergence criterion met
 Total energy in the final basis set = -1510.28623356
   15   -1510.2883495314      1.44E-09 Convergence criterion met
 Total energy in the final basis set = -1510.28834953
   14   -1510.2892470208      4.59E-09 Convergence criterion met
 Total energy in the final basis set = -1510.28924702
   13   -1510.2897202087      9.49E-09 Convergence criterion met
 Total energy in the final basis set = -1510.28972021
   13   -1510.2896862937      8.25E-09 Convergence criterion met
 Total energy in the final basis set = -1510.28968629
   14   -1510.2902282303      2.63E-09 Convergence criterion met
   12   -1510.2948395967      2.71E-09 Convergence criterion met
 Total energy in the final basis set = -1510.29483960
   11   -1510.2948632270      7.25E-09 Convergence criterion met
 Total energy in the final basis set = -1510.29486323
   12   -1510.2948697403      3.34E-09 Convergence criterion met
 Total energy in the final basis set = -1510.29486974
   11   -1510.2948678413      8.70E-09 Convergence criterion met
 Total energy in the final basis set = -1510.29486784
   11   -1510.2948771029      3.58E-09 Convergence criterion met
 Total energy in the final basis set = -1510.29487710
    9   -1510.2948781502      9.96E-09 Convergence criterion met
 Total energy in the final basis set = -1510.29487815

             Standard Nuclear Orientation (Angstroms)
    I     Atom           X                Y                Z
 ----------------------------------------------------------------
    1      O      -3.9912262564     0.4688024710     2.1605922553
    2      C      -3.1029820474     0.1237971520     1.3495961736
    3      C      -2.5757409762    -1.3221018775     1.0926468607
    4      C      -2.3540535610    -1.7117268277    -0.4336370556
    5      C      -2.6207115565    -0.5194824156    -1.4247200718
    6      O      -1.3817383300    -0.1142539610    -2.0232409642
    7      C      -1.5895490475     1.0515734730    -2.9101549557
    8      C      -0.7298838040     2.2442188103    -2.3672069247
    9      O       0.6941686200     1.8398654007    -2.2835550683
   10      C       1.0267538549     1.4587581280    -0.9422923329
   11      C       2.4944810108     0.9177604326    -0.9445458993
   12      C       3.0111384064     0.5119017053     0.4940974203
   13      C       2.0243658135     0.8484040863     1.6725880314
   14      O       1.3864545682     0.0461731620     2.3854534429
   15      O      -2.3593058151     1.0382438989     0.5346625037
   16      O       2.0929624510     2.2645729509     1.9148167797
   17      O       0.2614609545     1.5758486454     0.0396970613
   18      C       1.0963802511     2.6335592727     2.9430545380
   19      C       2.5865327814    -0.4779744870    -1.7004946944
   20      C       4.1117383335    -0.8163217854    -1.9438223783
   21      C       4.5582561827    -1.2682072083    -0.5028082204
   22      C       3.2205469538    -1.0499289381     0.3087508894
   23      O       2.1755896284    -1.4470900418    -0.6630489212
   24      H       3.1450435415     1.6742732148    -1.4194326286
   25      H       3.9688488280     1.0200946446     0.7072139129
   26      H       1.9315293463    -0.5518769381    -2.5902678755
   27      H       4.2130548548    -1.6341657443    -2.6748567332
   28      H       4.6758595182     0.0560088904    -2.3108539535
   29      H       4.8486917611    -2.3308482739    -0.4871821139
   30      H       5.3924859031    -0.6676845842    -0.1065881868
   31      H       3.1171920590    -1.6350923670     1.2429688004
   32      O      -3.7315274676    -0.0260533465    -1.7243006237
   33      C      -2.8459170947     2.4215861440     0.7314888594
   34      C      -1.0966043059    -1.5180882261     1.6641723518
   35      C      -0.8518904053    -3.0651433951     1.8518038169
   36      C      -0.7021839865    -3.5262085412     0.3554877828
   37      C      -0.8304767592    -2.1496065464    -0.4079860275
   38      O      -0.2289287167    -1.1690350996     0.5223082300
   39      H      -3.2823445449    -2.0173330961     1.5786689486
   40      H      -3.0258710210    -2.5422172340    -0.7192089618
   41      H      -3.5539415158     2.4450427330     1.5846120871
   42      H      -0.8427430025    -0.8873834523     2.5377249428
   43      H       0.0760756722    -3.2336385775     2.4212125093
   44      H      -1.6850135263    -3.5631942144     2.3733816485
   45      H       0.2868205141    -3.9720140688     0.1659800037
   46      H      -1.4803582081    -4.2448213276     0.0515585146
   47      H      -0.3253482800    -2.1080660941    -1.3903058123
   48      H      -3.3611286930     2.7635919047    -0.1886284533
   49      H      -1.9714077250     3.0701874977     0.9306388207
   50      H       1.2187031784     3.7182536615     3.1187333545
   51      H       1.2587255281     2.0820809039     3.8918447679
   52      H       0.0654779398     2.4278090116     2.5875811230
   53      H      -0.7893556624     3.1062197551    -3.0631098827
   54      H      -1.0872058613     2.5333906788    -1.3575414463
   55      H      -2.6731018944     1.3068618648    -2.9171534645
   56      H      -1.2605077843     0.7743010769    -3.9338224382
 ----------------------------------------------------------------

    9   -1510.2948778845      3.20E-09 Convergence criterion met
 Total energy in the final basis set = -1510.29487788
 Final energy is   -1510.29487788454
 **  OPTIMIZATION CONVERGED  **

                    Orbital Energies (a.u.)
 --------------------------------------------------------------

 Alpha MOs
 -- Occupied --
-18.931 -18.930 -18.926 -18.913 -18.881 -18.880 -18.874 -18.870
-18.864 -18.857 -10.098 -10.095 -10.093 -10.086 -10.069 -10.065
-10.055 -10.054 -10.052 -10.051 -10.045 -10.044 -10.034 -10.030
-10.029 -10.027 -10.017 -10.015 -10.008 -10.007  -1.014  -1.007
 -1.001  -0.992  -0.964  -0.955  -0.937  -0.930  -0.928  -0.919
 -0.758  -0.752  -0.722  -0.714  -0.707  -0.697  -0.688  -0.654
 -0.650  -0.612  -0.591  -0.572  -0.540  -0.534  -0.532  -0.524
 -0.507  -0.502  -0.479  -0.474  -0.461  -0.452  -0.447  -0.431
 -0.427  -0.422  -0.421  -0.411  -0.407  -0.403  -0.399  -0.397
 -0.388  -0.371  -0.369  -0.361  -0.354  -0.351  -0.345  -0.342
 -0.336  -0.335  -0.330  -0.328  -0.320  -0.315  -0.312  -0.307
 -0.301  -0.296  -0.295  -0.293  -0.291  -0.285  -0.270  -0.266
 -0.264  -0.248  -0.243  -0.239  -0.237  -0.227  -0.217  -0.183
 -0.167  -0.162  -0.160  -0.155  -0.151  -0.146  -0.138  -0.137
 -0.125

          Ground-State Mulliken Net Atomic Charges

     Atom                 Charge (a.u.)
  ----------------------------------------
      1 O                    -0.215427
      2 C                     0.211646
      3 C                    -0.080266
      4 C                    -0.078052
      5 C                     0.217644
      6 O                    -0.171746
      7 C                    -0.055154
      8 C                    -0.053447
      9 O                    -0.175793
     10 C                     0.221879
     11 C                    -0.075746
     12 C                    -0.079558
     13 C                     0.221155
     14 O                    -0.217200
     15 O                    -0.163315
     16 O                    -0.177365
     17 O                    -0.196845
     18 C                    -0.128375
     19 C                     0.026142
     20 C                    -0.144476
     21 C                    -0.144160
     22 C                     0.026828
     23 O                    -0.185610
     24 H                     0.084941
     25 H                     0.081704
     26 H                     0.085041
     27 H                     0.076116
     28 H                     0.072335
     29 H                     0.075958
     30 H                     0.072018
     31 H                     0.087832
     32 O                    -0.225484
     33 C                    -0.135686
     34 C                     0.027917
     35 C                    -0.142684
     36 C                    -0.144535
     37 C                     0.028348
     38 O                    -0.175805
     39 H                     0.083951
     40 H                     0.082470
     41 H                     0.101990
     42 H                     0.092379
     43 H                     0.078897
     44 H                     0.070362
     45 H                     0.078938
     46 H                     0.069057
     47 H                     0.091278
     48 H                     0.083060
     49 H                     0.087931
     50 H                     0.084195
     51 H                     0.085215
     52 H                     0.089731
     53 H                     0.085538
     54 H                     0.100550
     55 H                     0.100903
     56 H                     0.082779
  ----------------------------------------
  Sum of atomic charges =     0.000000

                    Cartesian Multipole Moments
 -----------------------------------------------------------------
    Charge (ESU x 10^10)
                -0.0000
    Dipole Moment (Debye)
         X       2.0915      Y       0.6026      Z      -1.5452
       Tot       2.6693
    Quadrupole Moments (Debye-Ang)
        XX    -162.2576     XY       0.0869     YY    -148.7919
        XZ       1.4748     YZ      -1.0868     ZZ    -156.2648

 Total job time:  139.09s(wall), 6629.84s(cpu)
        *  Thank you very much for using Q-Chem.  Have a nice day.  *
