 Q-Chem 5.0, Q-Chem, Inc., Pleasanton, CA (2017)
 Q-Chem 5.0.1 for Intel X86 EM64T Linux

User input:
--------------------------------------------------------------
$molecule
0  1
O -3.94934 -3.66094 2.70899
C -3.26408 -4.56952 2.26188
C -3.36658 -6.02376 2.66595
C -2.94965 -7.07382 1.62317
C -2.30923 -6.54961 0.357
O -1.00239 -6.23198 0.59517
C -0.29435 -5.83863 -0.58518
C 1.14717 -5.48076 -0.23868
O 1.82564 -6.63383 0.28382
C 1.9999 -6.64823 1.62865
C 2.90827 -7.76201 2.09234
C 3.41108 -7.62812 3.53717
C 2.67164 -6.62907 4.40424
O 1.91177 -6.9107 5.31958
O -2.12414 -4.18782 1.6285
O 2.93786 -5.3177 4.15829
O 1.17804 -6.10836 2.35607
C 2.37347 -4.26689 4.85099
C 2.2023 -9.13029 2.15169
C 3.24151 -10.24221 2.03076
C 3.94699 -10.11257 3.36548
C 3.06763 -9.04945 4.03723
O 1.78957 -9.26114 3.48822
H 3.75126 -7.81934 1.36604
H 4.49844 -7.40942 3.61785
H 1.41026 -9.25281 1.38052
H 2.68021 -11.20419 2.01582
H 3.90263 -10.19243 1.13897
H 3.87435 -11.08809 3.89548
H 5.00701 -9.78201 3.31322
H 3.14285 -9.13695 5.14376
O -2.81263 -6.65665 -0.75501
C -1.79991 -2.88923 1.29178
C -2.40172 -6.39635 3.81347
C -2.94041 -7.61065 4.56977
C -2.70916 -8.70691 3.54763
C -1.96943 -7.91926 2.46043
O -1.26896 -6.93452 3.17956
H -4.40589 -6.17102 3.03818
H -3.83708 -7.6612 1.29703
H -1.7322 -2.26069 2.20516
H -2.21486 -5.55564 4.51715
H -2.25719 -7.78267 5.43253
H -3.98287 -7.52144 4.94393
H -2.0427 -9.47438 4.00031
H -3.62907 -9.18719 3.14951
H -1.35596 -8.59835 1.82809
H -2.56447 -2.47238 0.60202
H -0.81576 -2.88109 0.7806
H 2.76347 -3.3117 4.44372
H 2.63809 -4.33194 5.928
H 1.26854 -4.28113 4.73365
H 1.68097 -5.14436 -1.1524
H 1.14666 -4.61592 0.46494
H -0.7765 -4.94341 -1.03947
H -0.284 -6.66862 -1.32762
$end

$opt
CONSTRAINT
tors           1           2           3           4    +152.432
tors           3           4           5           6     +78.413
tors           4           5           6           7    +174.822
tors           5           6           7           8    +179.175
tors           6           7           8           9     +62.732
tors           7           8           9          10    -103.471
tors           8           9          10          11    -170.628
tors           9          10          11          12    +165.875
tors          11          12          13          14    +108.120
ENDCONSTRAINT
$end

$rem
JOBTYPE                   OPT
METHOD                    B3LYP
DFT_D                     d3_op
BASIS                     STO-3G
GEOM_OPT_MAX_CYCLES       100
GEOM_OPT_TOL_GRADIENT     300
GEOM_OPT_TOL_DISPLACEMENT 1200
GEOM_OPT_TOL_ENERGY       100
SYMMETRY                  False
THRESH                    12
SCF_CONVERGENCE           8
MAX_SUB_FILE_NUM          128
MEM_STATIC                400
MEM_TOTAL                 4000
$end
--------------------------------------------------------------

   15   -1510.1441327240      6.80E-09 Convergence criterion met
 Total energy in the final basis set = -1510.14413272
   13   -1510.2145568532      9.67E-09 Convergence criterion met
 Total energy in the final basis set = -1510.21455685
   14   -1510.2523954007      3.74E-09 Convergence criterion met
 Total energy in the final basis set = -1510.25239540
   14   -1510.2697325965      5.55E-09 Convergence criterion met
 Total energy in the final basis set = -1510.26973260
   14   -1510.2769702965      4.58E-09 Convergence criterion met
 Total energy in the final basis set = -1510.27697030
   13   -1510.2805508957      9.31E-09 Convergence criterion met
 Total energy in the final basis set = -1510.28055090
   13   -1510.2824277862      4.93E-09 Convergence criterion met
 Total energy in the final basis set = -1510.28242779
   13   -1510.2833607172      7.37E-09 Convergence criterion met
   11   -1510.2845959149      4.28E-09 Convergence criterion met
 Total energy in the final basis set = -1510.28459591
   11   -1510.2846141229      3.81E-09 Convergence criterion met
 Total energy in the final basis set = -1510.28461412
   11   -1510.2846274328      3.21E-09 Convergence criterion met
 Total energy in the final basis set = -1510.28462743
    9   -1510.2846344404      4.32E-09 Convergence criterion met
 Total energy in the final basis set = -1510.28463444
    9   -1510.2846386693      8.14E-09 Convergence criterion met
 Total energy in the final basis set = -1510.28463867
    9   -1510.2846398554      5.93E-09 Convergence criterion met
 Total energy in the final basis set = -1510.28463986

             Standard Nuclear Orientation (Angstroms)
    I     Atom           X                Y                Z
 ----------------------------------------------------------------
    1      O      -4.6413792755    -0.3242833498     1.9250287557
    2      C      -3.7997239480    -0.2080811888     1.0059746784
    3      C      -2.9594886641    -1.3789670909     0.3938871874
    4      C      -2.4640375378    -1.2591351212    -1.1102330028
    5      C      -2.5776629444     0.1683908074    -1.7677154976
    6      O      -1.4890054148     0.9618166190    -1.2934596586
    7      C      -1.4375910036     2.2866355533    -1.9502673333
    8      C      -0.2055347142     2.9768328261    -1.2732868445
    9      O       1.0052173333     2.1834718983    -1.6009364669
   10      C       1.3850311380     1.4017147976    -0.4599970693
   11      C       2.7820403955     0.7547416503    -0.7180753360
   12      C       3.4333919517     0.1773728439     0.6039813375
   13      C       2.5670115933     0.3769992069     1.9054939576
   14      O       1.9483459891    -0.5040527558     2.5383892363
   15      O      -3.4781341856     1.0431132411     0.3938812653
   16      O       2.7475810330     1.7299159149     2.3585368207
   17      O       0.7261281380     1.3463813809     0.6028914779
   18      C       1.8945469310     1.9691233702     3.5425102940
   19      C       2.6641377606    -0.5655022040    -1.5972878236
   20      C       4.1088915353    -0.9673840069    -2.0963573447
   21      C       4.7321088583    -1.5587886037    -0.7772325064
   22      C       3.5377503808    -1.3623117533     0.2365053524
   23      O       2.3365798086    -1.6053312117    -0.5986023083
   24      H       3.4278092044     1.5050403624    -1.2080158805
   25      H       4.4260317629     0.6305280076     0.7760957278
   26      H       1.8888828933    -0.5184318614    -2.3868191209
   27      H       4.0432363968    -1.7281330488    -2.8905335355
   28      H       4.6701495862    -0.1017160923    -2.4827431152
   29      H       4.9717762204    -2.6281827553    -0.8888104709
   30      H       5.6409709239    -1.0238879588    -0.4592707914
   31      H       3.5322272553    -2.0351585624     1.1155767061
   32      O      -3.4143231187     0.5499406272    -2.6148714139
   33      C      -4.2980170399     2.1254439513     0.9827174058
   34      C      -1.5707370487    -1.6288667097     1.1533601777
   35      C      -1.2032174917    -3.1530324740     0.9715997976
   36      C      -0.8054293768    -3.1785985690    -0.5506202454
   37      C      -0.9332064482    -1.6512239389    -0.9312894793
   38      O      -0.5667873649    -0.9447018173     0.3170132359
   39      H      -3.5923306355    -2.2784405781     0.5012150716
   40      H      -3.0133384752    -1.9671901291    -1.7560911926
   41      H      -4.1335454888     2.2123109765     2.0760449788
   42      H      -1.5347019654    -1.2514541948     2.1936286942
   43      H      -0.3468321314    -3.4133788042     1.6140230307
   44      H      -2.0452765846    -3.8227035936     1.2090432121
   45      H       0.2356553257    -3.5103469186    -0.6905500794
   46      H      -1.4707329471    -3.8158864778    -1.1553745678
   47      H      -0.2815326591    -1.3250053403    -1.7631846513
   48      H      -5.3802355822     1.9638163772     0.8003154419
   49      H      -3.9737213212     3.0565306960     0.4828373493
   50      H       2.0958336831     3.0076960884     3.8638396800
   51      H       2.1344099341     1.2709849413     4.3706650718
   52      H       0.8198317868     1.8596362617     3.2895187306
   53      H      -0.0541994027     3.9998217615    -1.6754261392
   54      H      -0.3499633316     2.9969073653    -0.1726248362
   55      H      -2.3699899073     2.8676649536    -1.7732198721
   56      H      -1.2853654099     2.1900683615    -3.0478132074
 ----------------------------------------------------------------

    8   -1510.2846400729      9.31E-09 Convergence criterion met
 Total energy in the final basis set = -1510.28464007
 Final energy is   -1510.28464007290
 **  OPTIMIZATION CONVERGED  **

                    Orbital Energies (a.u.)
 --------------------------------------------------------------

 Alpha MOs
 -- Occupied --
-18.935 -18.932 -18.922 -18.913 -18.884 -18.883 -18.878 -18.868
-18.860 -18.854 -10.098 -10.095 -10.091 -10.084 -10.071 -10.070
-10.064 -10.059 -10.053 -10.050 -10.050 -10.049 -10.036 -10.030
-10.029 -10.029 -10.019 -10.017 -10.009 -10.007  -1.015  -1.010
 -0.998  -0.991  -0.967  -0.959  -0.937  -0.932  -0.925  -0.918
 -0.759  -0.753  -0.724  -0.716  -0.708  -0.699  -0.690  -0.659
 -0.650  -0.611  -0.592  -0.573  -0.542  -0.536  -0.533  -0.526
 -0.511  -0.505  -0.486  -0.475  -0.462  -0.454  -0.449  -0.430
 -0.425  -0.424  -0.417  -0.411  -0.408  -0.402  -0.399  -0.397
 -0.391  -0.373  -0.368  -0.364  -0.355  -0.348  -0.345  -0.341
 -0.337  -0.331  -0.330  -0.328  -0.324  -0.322  -0.317  -0.308
 -0.303  -0.300  -0.298  -0.293  -0.289  -0.287  -0.271  -0.269
 -0.266  -0.248  -0.242  -0.239  -0.239  -0.231  -0.220  -0.176
 -0.173  -0.165  -0.158  -0.154  -0.149  -0.141  -0.139  -0.135
 -0.130

          Ground-State Mulliken Net Atomic Charges

     Atom                 Charge (a.u.)
  ----------------------------------------
      1 O                    -0.216600
      2 C                     0.207629
      3 C                    -0.080621
      4 C                    -0.080134
      5 C                     0.215690
      6 O                    -0.167381
      7 C                    -0.044024
      8 C                    -0.050727
      9 O                    -0.174371
     10 C                     0.220161
     11 C                    -0.077379
     12 C                    -0.080303
     13 C                     0.218569
     14 O                    -0.216818
     15 O                    -0.165905
     16 O                    -0.178664
     17 O                    -0.191317
     18 C                    -0.128528
     19 C                     0.026648
     20 C                    -0.143981
     21 C                    -0.144525
     22 C                     0.025549
     23 O                    -0.187685
     24 H                     0.085746
     25 H                     0.082340
     26 H                     0.080894
     27 H                     0.076671
     28 H                     0.073214
     29 H                     0.076825
     30 H                     0.072989
     31 H                     0.088440
     32 O                    -0.222627
     33 C                    -0.126037
     34 C                     0.028926
     35 C                    -0.141804
     36 C                    -0.145136
     37 C                     0.030002
     38 O                    -0.175466
     39 H                     0.084347
     40 H                     0.081991
     41 H                     0.090954
     42 H                     0.085990
     43 H                     0.081707
     44 H                     0.070881
     45 H                     0.084120
     46 H                     0.069572
     47 H                     0.079702
     48 H                     0.090013
     49 H                     0.087943
     50 H                     0.083875
     51 H                     0.085193
     52 H                     0.091392
     53 H                     0.085448
     54 H                     0.105024
     55 H                     0.086101
     56 H                     0.085485
  ----------------------------------------
  Sum of atomic charges =     0.000000

                    Cartesian Multipole Moments
 -----------------------------------------------------------------
    Charge (ESU x 10^10)
                 0.0000
    Dipole Moment (Debye)
         X       1.9986      Y       1.4119      Z      -1.1551
       Tot       2.7060
    Quadrupole Moments (Debye-Ang)
        XX    -157.9054     XY      -2.9281     YY    -147.3544
        XZ      -3.3411     YZ       3.7417     ZZ    -161.4114

 Total job time:  61.24s(wall), 2914.99s(cpu)
        *  Thank you very much for using Q-Chem.  Have a nice day.  *
