 Q-Chem 5.0, Q-Chem, Inc., Pleasanton, CA (2017)
 Q-Chem 5.0.1 for Intel X86 EM64T Linux

User input:
--------------------------------------------------------------
$molecule
0  1
O 5.3501414128 -0.7654484088 0.9172837412
C 4.1637604048 -0.4486606832 0.6752790566
C 3.5419856039 0.9807533023 0.8198874181
C 2.8882248016 1.6156954848 -0.4874576127
C 2.7684208105 0.6343378992 -1.7080112567
O 1.6456530936 -0.2103696004 -1.4779391965
C 1.4383190336 -1.1808385684 -2.5760882591
C 0.193257584 -1.9994781129 -2.1089913633
O -0.9961043402 -1.1158892986 -2.1884119322
C -1.5676294029 -0.9509304152 -0.8854938446
C -2.9438317353 -0.2215609028 -1.0221603756
C -3.7992250337 -0.316180283 0.3042049865
C -3.2340159766 -1.3109656006 1.3839786223
O -2.9239511546 -1.0458460779 2.5641852609
O 3.156614168 -1.3872424297 0.2854958587
O -3.3253225448 -2.6417011678 0.8468296353
O -1.0428714304 -1.3616145957 0.1745902493
C -2.7666776994 -3.6086073929 1.8161038331
C -2.7052642415 1.3502440157 -1.0974077328
C -4.0717405393 2.0641512754 -1.4454442474
C -4.8142456228 2.0026037902 -0.0579249179
C -3.7709218194 1.1886709889 0.8009399561
O -2.4665125196 1.703846143 0.3196441336
H -3.4770482412 -0.6074212521 -1.9086529753
H -4.8302166579 -0.6365008345 0.0661040063
H -1.8437288393 1.6477765469 -1.726643145
H -3.8935460489 3.103092235 -1.7653265496
H -4.6192988958 1.5387366069 -2.2444219543
H -4.9592589354 3.009502763 0.3649722274
H -5.7918758364 1.4986055008 -0.1186611531
H -3.8482346212 1.2990701863 1.900089115
O 3.5067328037 0.5708152643 -2.7157012045
C 3.7416427594 -2.741915804 0.1666002793
C 2.3030707385 1.0281684059 1.825556622
C 2.1662267178 2.5125968639 2.3456092243
C 1.5945858765 3.2243502323 1.0640836272
C 1.4503529129 2.0037312128 0.0712497739
O 1.1205580877 0.8633232535 0.9559868634
H 4.3574448641 1.6328532822 1.1803382988
H 3.4660040045 2.4966089739 -0.8187218923
H 4.1977263957 -3.0786801328 1.1197639614
H 2.3167235112 0.2488927057 2.6120464219
H 1.4517804147 2.5574026496 3.1831083315
H 3.1294568472 2.9321333395 2.6769339589
H 0.6095305296 3.677391782 1.2576694198
H 2.2713802281 4.0007231888 0.6723339387
H 0.672833221 2.1222263924 -0.7074545811
H 4.5153408271 -2.785420335 -0.6274670517
H 2.9022017394 -3.4107535063 -0.0984436122
H -2.9223960157 -4.6111667142 1.3766355442
H -3.2781808357 -3.5489161036 2.7985100746
H -1.6817373392 -3.4366970839 1.9726591867
H 0.0215812921 -2.8723042686 -2.7743659505
H 0.3297302766 -2.3262926958 -1.0553425409
H 2.3242722553 -1.8420116464 -2.7027246675
H 1.2387638811 -0.6682102986 -3.5427945164
$end

$rem
JOBTYPE                   OPT
METHOD                    B3LYP
DFT_D                     d3_op
BASIS                     STO-3G
GEOM_OPT_MAX_CYCLES       100
GEOM_OPT_TOL_GRADIENT     300
GEOM_OPT_TOL_DISPLACEMENT 1200
GEOM_OPT_TOL_ENERGY       100
SYMMETRY                  False
THRESH                    12
SCF_CONVERGENCE           8
MAX_SUB_FILE_NUM          128
MEM_STATIC                400
MEM_TOTAL                 4000
$end
--------------------------------------------------------------

   16   -1510.2822346599      6.07E-09 Convergence criterion met
 Total energy in the final basis set = -1510.28223466
   15   -1510.2847048980      2.67E-09 Convergence criterion met
 Total energy in the final basis set = -1510.28470490
   14   -1510.2861163525      6.75E-09 Convergence criterion met
 Total energy in the final basis set = -1510.28611635
   14   -1510.2886550494      3.53E-09 Convergence criterion met
 Total energy in the final basis set = -1510.28865505
   14   -1510.2892000763      9.59E-09 Convergence criterion met
 Total energy in the final basis set = -1510.28920008
   14   -1510.2903157882      4.79E-09 Convergence criterion met
 Total energy in the final basis set = -1510.29031579
   13   -1510.2926796867      7.35E-09 Convergence criterion met
 Total energy in the final basis set = -1510.29267969
   15   -1510.2915531459      1.92E-09 Convergence criterion met
   12   -1510.2974846533      7.67E-09 Convergence criterion met
 Total energy in the final basis set = -1510.29748465
   12   -1510.2975240931      2.84E-09 Convergence criterion met
 Total energy in the final basis set = -1510.29752409
   12   -1510.2975235530      5.74E-09 Convergence criterion met
 Total energy in the final basis set = -1510.29752355
   11   -1510.2975437297      8.23E-09 Convergence criterion met
 Total energy in the final basis set = -1510.29754373
   11   -1510.2975391960      5.83E-09 Convergence criterion met
 Total energy in the final basis set = -1510.29753920
   10   -1510.2975420012      9.96E-09 Convergence criterion met
 Total energy in the final basis set = -1510.29754200

             Standard Nuclear Orientation (Angstroms)
    I     Atom           X                Y                Z
 ----------------------------------------------------------------
    1      O       5.0482147165    -0.6408944507     0.8754898387
    2      C       3.8172155480    -0.4484470871     0.7833297187
    3      C       3.0129958422     0.8287421558     1.1926034306
    4      C       2.1217776051     1.4240771838     0.0137800290
    5      C       2.2969256225     0.5749215618    -1.2973206742
    6      O       1.0305053849     0.0724087455    -1.7360767068
    7      C       1.2122712776    -0.9424507881    -2.8003115565
    8      C       0.3179204890    -2.1673434808    -2.4022945466
    9      O      -1.0925791473    -1.7154644607    -2.3649397922
   10      C      -1.4392218565    -1.2703306578    -1.0444622604
   11      C      -2.7336810853    -0.3971007309    -1.1788308480
   12      C      -3.2500198664     0.2034169910     0.1909449417
   13      C      -2.5086753915    -0.3125539082     1.4791778145
   14      O      -1.7872787739     0.3628696045     2.2433631328
   15      O       2.8856784630    -1.4246616477     0.2865968810
   16      O      -2.9039214557    -1.6688373588     1.7190788196
   17      O      -0.7935514811    -1.5319569397    -0.0074471312
   18      C      -2.1261631001    -2.2098737164     2.8560903307
   19      C      -2.3697765561     0.9323735964    -1.9685797786
   20      C      -3.6980509339     1.6890004579    -2.3589963160
   21      C      -4.1142920862     2.3194418286    -0.9773078150
   22      C      -2.9870755589     1.7501909592    -0.0350098469
   23      O      -1.7844938236     1.7837868864    -0.9057255020
   24      H      -3.5135306063    -0.9809385707    -1.7000837458
   25      H      -4.3282691544    -0.0054709571     0.3129378363
   26      H      -1.6422561535     0.7788585773    -2.7890701906
   27      H      -3.4924014365     2.4651577050    -3.1130588694
   28      H      -4.4597917902     1.0008832139    -2.7593928647
   29      H      -4.0702752438     3.4198154117    -1.0086631788
   30      H      -5.1220290994     2.0139408922    -0.6535178073
   31      H      -2.7981189015     2.3142286609     0.8988336539
   32      O       3.3739158382     0.3428751759    -1.8928297667
   33      C       3.6139028013    -2.6109635184    -0.2137396796
   34      C       1.8855327420     0.4885170517     2.2640310276
   35      C       1.4092583306     1.8384416787     2.9262804206
   36      C       0.5484998555     2.4506548137     1.7626121296
   37      C       0.6724657152     1.3355345902     0.6512760348
   38      O       0.7364136587     0.0765657254     1.4316752915
   39      H       3.7344057932     1.5729401045     1.5727835805
   40      H       2.4162537732     2.4663104392    -0.2086701044
   41      H       4.3118171355    -3.0175462519     0.5456184815
   42      H       2.1592982047    -0.3152471058     2.9748803640
   43      H       0.7932108372     1.6292149606     3.8151468288
   44      H       2.2548351332     2.4803307896     3.2216795020
   45      H      -0.5063347770     2.5504487685     2.0620530086
   46      H       0.9223010268     3.4288163794     1.4197184500
   47      H      -0.1828326975     1.3296761410    -0.0680308084
   48      H       4.1919398124    -2.3672269917    -1.1294645090
   49      H       2.8435424694    -3.3666896134    -0.4537824877
   50      H      -2.4480312003    -3.2606096354     2.9768840364
   51      H      -2.3255252668    -1.6498599387     3.7928554719
   52      H      -1.0380937306    -2.1710825497     2.6434218965
   53      H       0.3894986517    -2.9701299954    -3.1642545778
   54      H       0.6232813944    -2.5478755744    -1.4041190425
   55      H       2.2878384789    -1.2130682352    -2.8776501747
   56      H       0.8730282622    -0.5247022283    -3.7727476113
 ----------------------------------------------------------------

    9   -1510.2975427840      7.17E-09 Convergence criterion met
 Total energy in the final basis set = -1510.29754278
 Final energy is   -1510.29754278402
 **  OPTIMIZATION CONVERGED  **

                    Orbital Energies (a.u.)
 --------------------------------------------------------------

 Alpha MOs
 -- Occupied --
-18.929 -18.928 -18.924 -18.917 -18.901 -18.885 -18.867 -18.866
-18.863 -18.861 -10.100 -10.094 -10.089 -10.088 -10.073 -10.068
-10.065 -10.062 -10.058 -10.049 -10.043 -10.040 -10.034 -10.025
-10.025 -10.024 -10.024 -10.023 -10.002  -9.996  -1.016  -1.006
 -0.998  -0.995  -0.978  -0.948  -0.940  -0.929  -0.926  -0.922
 -0.765  -0.747  -0.728  -0.715  -0.707  -0.701  -0.684  -0.652
 -0.651  -0.614  -0.591  -0.573  -0.547  -0.540  -0.529  -0.517
 -0.511  -0.500  -0.479  -0.478  -0.462  -0.455  -0.452  -0.434
 -0.429  -0.423  -0.415  -0.409  -0.407  -0.404  -0.398  -0.392
 -0.387  -0.373  -0.369  -0.361  -0.356  -0.350  -0.345  -0.344
 -0.339  -0.337  -0.333  -0.332  -0.326  -0.317  -0.314  -0.309
 -0.305  -0.300  -0.292  -0.287  -0.283  -0.279  -0.274  -0.270
 -0.262  -0.251  -0.245  -0.242  -0.241  -0.234  -0.210  -0.182
 -0.168  -0.163  -0.163  -0.155  -0.153  -0.150  -0.141  -0.140
 -0.120

          Ground-State Mulliken Net Atomic Charges

     Atom                 Charge (a.u.)
  ----------------------------------------
      1 O                    -0.212385
      2 C                     0.209591
      3 C                    -0.080326
      4 C                    -0.078275
      5 C                     0.215895
      6 O                    -0.172918
      7 C                    -0.053225
      8 C                    -0.051591
      9 O                    -0.179087
     10 C                     0.217960
     11 C                    -0.077142
     12 C                    -0.081992
     13 C                     0.217447
     14 O                    -0.210823
     15 O                    -0.169221
     16 O                    -0.174994
     17 O                    -0.189563
     18 C                    -0.128140
     19 C                     0.027101
     20 C                    -0.143867
     21 C                    -0.143159
     22 C                     0.025508
     23 O                    -0.186984
     24 H                     0.087508
     25 H                     0.083748
     26 H                     0.089926
     27 H                     0.079129
     28 H                     0.075330
     29 H                     0.078944
     30 H                     0.075043
     31 H                     0.090693
     32 O                    -0.225726
     33 C                    -0.129731
     34 C                     0.026686
     35 C                    -0.143443
     36 C                    -0.144680
     37 C                     0.011546
     38 O                    -0.182174
     39 H                     0.082672
     40 H                     0.082119
     41 H                     0.090551
     42 H                     0.077128
     43 H                     0.077166
     44 H                     0.068253
     45 H                     0.080293
     46 H                     0.065842
     47 H                     0.110029
     48 H                     0.087471
     49 H                     0.085492
     50 H                     0.084677
     51 H                     0.083944
     52 H                     0.099773
     53 H                     0.087236
     54 H                     0.102780
     55 H                     0.099652
     56 H                     0.082310
  ----------------------------------------
  Sum of atomic charges =    -0.000000

                    Cartesian Multipole Moments
 -----------------------------------------------------------------
    Charge (ESU x 10^10)
                -0.0000
    Dipole Moment (Debye)
         X      -3.1753      Y      -0.4247      Z      -1.4156
       Tot       3.5024
    Quadrupole Moments (Debye-Ang)
        XX    -164.6425     XY      -4.7532     YY    -150.5482
        XZ       3.0503     YZ       1.9615     ZZ    -152.9955

 Total job time:  116.85s(wall), 5551.53s(cpu)
        *  Thank you very much for using Q-Chem.  Have a nice day.  *
