 Q-Chem 5.0, Q-Chem, Inc., Pleasanton, CA (2017)
 Q-Chem 5.0.1 for Intel X86 EM64T Linux

User input:
--------------------------------------------------------------
$molecule
0  1
O -3.94934 -3.66094 2.70899
C -3.26408 -4.56952 2.26188
C -3.36658 -6.02376 2.66595
C -3.66253 -7.04293 1.55349
C -3.64683 -6.51692 0.13534
O -2.35776 -6.38408 -0.29603
C -2.26046 -5.89011 -1.6361
C -0.79634 -5.74931 -2.03939
O -0.20578 -7.04868 -2.1999
C 0.82677 -7.32696 -1.3659
C 1.54743 -8.60389 -1.72748
C 2.91015 -8.79353 -1.04535
C 3.18772 -7.88968 0.13901
O 3.46649 -8.2664 1.26814
O -2.28989 -4.25772 1.36649
O 3.33639 -6.56765 -0.14965
O 0.76695 -6.93328 -0.20684
C 3.66832 -5.59972 0.77537
C 0.81718 -9.87866 -1.2575
C 1.23281 -11.05332 -2.13994
C 2.67141 -11.24047 -1.69968
C 2.7354 -10.2392 -0.53821
O 1.42256 -10.21197 -0.03218
H 1.63336 -8.62712 -2.83829
H 3.75751 -8.67107 -1.75515
H -0.29005 -9.77454 -1.24451
H 0.63852 -11.93175 -1.79936
H 1.08627 -10.91776 -3.23308
H 2.79415 -12.28648 -1.34123
H 3.4381 -11.00569 -2.46964
H 3.53032 -10.53745 0.18015
O -4.63544 -6.46935 -0.58672
C -2.04275 -2.988 0.88911
C -2.04677 -6.59622 3.22131
C -2.34042 -7.78885 4.13101
C -2.76105 -8.82841 3.11041
C -2.52446 -8.05354 1.80949
O -1.43489 -7.2144 2.11463
H -4.14424 -6.06598 3.46254
H -4.66745 -7.4984 1.70211
H -1.7736 -2.30946 1.7265
H -1.43666 -5.83863 3.76032
H -1.37123 -8.10571 4.57888
H -3.07323 -7.59688 4.94399
H -2.0623 -9.69161 3.18007
H -3.81139 -9.18161 3.19654
H -2.38446 -8.75293 0.9558
H -2.93853 -2.59814 0.36021
H -1.19562 -3.02771 0.17415
H 3.71723 -4.61425 0.26855
H 4.66045 -5.82152 1.22339
H 2.89667 -5.55376 1.57345
H -0.75182 -5.24302 -3.02697
H -0.27072 -5.08597 -1.31403
H -2.7267 -4.87969 -1.68612
H -2.77268 -6.56711 -2.35697
$end

$opt
CONSTRAINT
tors           1           2           3           4    +122.039
tors           3           4           5           6     +78.413
tors           4           5           6           7    +179.946
tors           5           6           7           8    +179.175
tors           6           7           8           9     +70.332
tors           7           8           9          10    -118.333
tors           8           9          10          11    -170.628
tors           9          10          11          12    +165.875
tors          11          12          13          14    +122.861
ENDCONSTRAINT
$end

$rem
JOBTYPE                   OPT
METHOD                    B3LYP
DFT_D                     d3_op
BASIS                     STO-3G
GEOM_OPT_MAX_CYCLES       100
GEOM_OPT_TOL_GRADIENT     300
GEOM_OPT_TOL_DISPLACEMENT 1200
GEOM_OPT_TOL_ENERGY       100
SYMMETRY                  False
THRESH                    12
SCF_CONVERGENCE           8
MAX_SUB_FILE_NUM          128
MEM_STATIC                400
MEM_TOTAL                 4000
$end
--------------------------------------------------------------

   15   -1510.1423712187      6.62E-09 Convergence criterion met
 Total energy in the final basis set = -1510.14237122
   14   -1510.2120256190      7.36E-09 Convergence criterion met
 Total energy in the final basis set = -1510.21202562
   14   -1510.2493640875      7.38E-09 Convergence criterion met
 Total energy in the final basis set = -1510.24936409
   14   -1510.2665496982      6.98E-09 Convergence criterion met
 Total energy in the final basis set = -1510.26654970
    2   -1510.2665496980      1.61E-09 Convergence criterion met
 Total energy in the final basis set = -1510.26654970
   14   -1510.2736635016      4.21E-09 Convergence criterion met
 Total energy in the final basis set = -1510.27366350
   14   -1510.2770467085      3.55E-09 Convergence criterion met
 Total energy in the final basis set = -1510.27704671
   13   -1510.2788553177      5.59E-09 Convergence criterion met
   12   -1510.2821685493      2.66E-09 Convergence criterion met
 Total energy in the final basis set = -1510.28216855
   11   -1510.2822103566      5.25E-09 Convergence criterion met
 Total energy in the final basis set = -1510.28221036
   11   -1510.2822441408      3.67E-09 Convergence criterion met
 Total energy in the final basis set = -1510.28224414
   11   -1510.2822624076      3.18E-09 Convergence criterion met
 Total energy in the final basis set = -1510.28226241
   11   -1510.2822661139      2.99E-09 Convergence criterion met
 Total energy in the final basis set = -1510.28226611
   10   -1510.2822688903      6.91E-09 Convergence criterion met
 Total energy in the final basis set = -1510.28226889

             Standard Nuclear Orientation (Angstroms)
    I     Atom           X                Y                Z
 ----------------------------------------------------------------
    1      O       5.3501414128    -0.7654484088     0.9172837412
    2      C       4.1637604048    -0.4486606832     0.6752790566
    3      C       3.5419856039     0.9807533023     0.8198874181
    4      C       2.8882248016     1.6156954848    -0.4874576127
    5      C       2.7684208105     0.6343378992    -1.7080112567
    6      O       1.6456530936    -0.2103696004    -1.4779391965
    7      C       1.4383190336    -1.1808385684    -2.5760882591
    8      C       0.1932575840    -1.9994781129    -2.1089913633
    9      O      -0.9961043402    -1.1158892986    -2.1884119322
   10      C      -1.5676294029    -0.9509304152    -0.8854938446
   11      C      -2.9438317353    -0.2215609028    -1.0221603756
   12      C      -3.7992250337    -0.3161802830     0.3042049865
   13      C      -3.2340159766    -1.3109656006     1.3839786223
   14      O      -2.9239511546    -1.0458460779     2.5641852609
   15      O       3.1566141680    -1.3872424297     0.2854958587
   16      O      -3.3253225448    -2.6417011678     0.8468296353
   17      O      -1.0428714304    -1.3616145957     0.1745902493
   18      C      -2.7666776994    -3.6086073929     1.8161038331
   19      C      -2.7052642415     1.3502440157    -1.0974077328
   20      C      -4.0717405393     2.0641512754    -1.4454442474
   21      C      -4.8142456228     2.0026037902    -0.0579249179
   22      C      -3.7709218194     1.1886709889     0.8009399561
   23      O      -2.4665125196     1.7038461430     0.3196441336
   24      H      -3.4770482412    -0.6074212521    -1.9086529753
   25      H      -4.8302166579    -0.6365008345     0.0661040063
   26      H      -1.8437288393     1.6477765469    -1.7266431450
   27      H      -3.8935460489     3.1030922350    -1.7653265496
   28      H      -4.6192988958     1.5387366069    -2.2444219543
   29      H      -4.9592589354     3.0095027630     0.3649722274
   30      H      -5.7918758364     1.4986055008    -0.1186611531
   31      H      -3.8482346212     1.2990701863     1.9000891150
   32      O       3.5067328037     0.5708152643    -2.7157012045
   33      C       3.7416427594    -2.7419158040     0.1666002793
   34      C       2.3030707385     1.0281684059     1.8255566220
   35      C       2.1662267178     2.5125968639     2.3456092243
   36      C       1.5945858765     3.2243502323     1.0640836272
   37      C       1.4503529129     2.0037312128     0.0712497739
   38      O       1.1205580877     0.8633232535     0.9559868634
   39      H       4.3574448641     1.6328532822     1.1803382988
   40      H       3.4660040045     2.4966089739    -0.8187218923
   41      H       4.1977263957    -3.0786801328     1.1197639614
   42      H       2.3167235112     0.2488927057     2.6120464219
   43      H       1.4517804147     2.5574026496     3.1831083315
   44      H       3.1294568472     2.9321333395     2.6769339589
   45      H       0.6095305296     3.6773917820     1.2576694198
   46      H       2.2713802281     4.0007231888     0.6723339387
   47      H       0.6728332210     2.1222263924    -0.7074545811
   48      H       4.5153408271    -2.7854203350    -0.6274670517
   49      H       2.9022017394    -3.4107535063    -0.0984436122
   50      H      -2.9223960157    -4.6111667142     1.3766355442
   51      H      -3.2781808357    -3.5489161036     2.7985100746
   52      H      -1.6817373392    -3.4366970839     1.9726591867
   53      H       0.0215812921    -2.8723042686    -2.7743659505
   54      H       0.3297302766    -2.3262926958    -1.0553425409
   55      H       2.3242722553    -1.8420116464    -2.7027246675
   56      H       1.2387638811    -0.6682102986    -3.5427945164
 ----------------------------------------------------------------

    9   -1510.2822703182      3.91E-09 Convergence criterion met
 Total energy in the final basis set = -1510.28227032
 Final energy is   -1510.28227031820
 **  OPTIMIZATION CONVERGED  **

                    Orbital Energies (a.u.)
 --------------------------------------------------------------

 Alpha MOs
 -- Occupied --
-18.933 -18.933 -18.930 -18.916 -18.884 -18.883 -18.883 -18.869
-18.868 -18.860 -10.101 -10.095 -10.094 -10.088 -10.074 -10.071
-10.063 -10.060 -10.054 -10.054 -10.053 -10.053 -10.037 -10.034
-10.032 -10.030 -10.020 -10.018 -10.014 -10.013  -1.016  -1.010
 -1.004  -0.995  -0.967  -0.962  -0.940  -0.932  -0.929  -0.922
 -0.761  -0.757  -0.727  -0.718  -0.710  -0.701  -0.693  -0.659
 -0.652  -0.613  -0.594  -0.575  -0.543  -0.539  -0.535  -0.530
 -0.515  -0.508  -0.486  -0.477  -0.465  -0.455  -0.451  -0.430
 -0.428  -0.426  -0.418  -0.411  -0.410  -0.403  -0.402  -0.400
 -0.395  -0.373  -0.368  -0.363  -0.358  -0.352  -0.350  -0.348
 -0.340  -0.338  -0.332  -0.330  -0.325  -0.322  -0.319  -0.309
 -0.303  -0.301  -0.301  -0.299  -0.294  -0.281  -0.275  -0.273
 -0.268  -0.252  -0.249  -0.242  -0.240  -0.231  -0.226  -0.179
 -0.176  -0.167  -0.162  -0.157  -0.152  -0.144  -0.142  -0.139
 -0.135

          Ground-State Mulliken Net Atomic Charges

     Atom                 Charge (a.u.)
  ----------------------------------------
      1 O                    -0.215043
      2 C                     0.203542
      3 C                    -0.079918
      4 C                    -0.078813
      5 C                     0.207134
      6 O                    -0.162273
      7 C                    -0.043690
      8 C                    -0.051976
      9 O                    -0.174353
     10 C                     0.220429
     11 C                    -0.077040
     12 C                    -0.080370
     13 C                     0.217698
     14 O                    -0.215410
     15 O                    -0.163367
     16 O                    -0.179000
     17 O                    -0.197236
     18 C                    -0.128826
     19 C                     0.025811
     20 C                    -0.144450
     21 C                    -0.143514
     22 C                     0.024342
     23 O                    -0.188260
     24 H                     0.086759
     25 H                     0.082519
     26 H                     0.081601
     27 H                     0.077055
     28 H                     0.073230
     29 H                     0.077311
     30 H                     0.072916
     31 H                     0.090961
     32 O                    -0.218383
     33 C                    -0.128481
     34 C                     0.027801
     35 C                    -0.142956
     36 C                    -0.144837
     37 C                     0.028939
     38 O                    -0.175992
     39 H                     0.084464
     40 H                     0.083524
     41 H                     0.089884
     42 H                     0.084211
     43 H                     0.079564
     44 H                     0.072236
     45 H                     0.080917
     46 H                     0.071455
     47 H                     0.082739
     48 H                     0.087123
     49 H                     0.088039
     50 H                     0.084663
     51 H                     0.086888
     52 H                     0.091004
     53 H                     0.083742
     54 H                     0.110035
     55 H                     0.087005
     56 H                     0.088650
  ----------------------------------------
  Sum of atomic charges =     0.000000

                    Cartesian Multipole Moments
 -----------------------------------------------------------------
    Charge (ESU x 10^10)
                -0.0000
    Dipole Moment (Debye)
         X      -2.0444      Y      -0.5164      Z      -1.5310
       Tot       2.6058
    Quadrupole Moments (Debye-Ang)
        XX    -163.0331     XY      -1.3288     YY    -144.4799
        XZ       7.5093     YZ       2.7191     ZZ    -162.0574

 Total job time:  59.83s(wall), 2841.80s(cpu)
        *  Thank you very much for using Q-Chem.  Have a nice day.  *
