 Q-Chem 5.0, Q-Chem, Inc., Pleasanton, CA (2017)
 Q-Chem 5.0.1 for Intel X86 EM64T Linux

User input:
--------------------------------------------------------------
$molecule
0  1
O -4.0777822591 1.0069276345 2.4602311834
C -3.4694219803 0.5836485797 1.4525771396
C -2.9988371127 -0.887980288 1.2053043634
C -2.8713439489 -1.3697017515 -0.3034204514
C -2.9530682663 -0.2299702867 -1.3930253117
O -1.6362861221 0.3149439078 -1.57979215
C -1.4641617612 0.8791805975 -2.9332206045
C -0.0865336653 1.6167018337 -2.8850829193
O 0.9984492214 0.6544294633 -2.567391929
C 1.5355527409 0.9096153096 -1.2640824183
C 2.7159494356 -0.0884185625 -1.0161753649
C 3.4811313403 0.1695067671 0.3452255163
C 2.9294035863 1.3838588356 1.1825684814
O 2.2796238851 1.3348826229 2.2479192471
O -3.0567130488 1.4184970101 0.3691530914
O 3.4620616428 2.5895082548 0.6089349107
O 1.106335344 1.7876961985 -0.4823417112
C 2.9160861055 3.7618932129 1.3259595359
C 2.2020504782 -1.5777780544 -0.7867644768
C 3.4371569882 -2.554133754 -0.9307299406
C 4.1897539985 -2.2966191981 0.4281104051
C 3.2539690306 -1.2100360895 1.0899867931
O 1.8974084908 -1.6193162575 0.659596892
H 3.3955550063 -0.0360355871 -1.8857885688
H 4.5526868957 0.3559340931 0.1507739866
H 1.311426989 -1.8474447728 -1.3850152558
H 3.0924951924 -3.5975810689 -1.0097639591
H 4.0557482854 -2.3200174363 -1.8120832556
H 4.2220370864 -3.2059824142 1.0489109639
H 5.2189338153 -1.9312832586 0.2829008809
H 3.3009018884 -1.1404783626 2.1938787785
O -3.9414455503 0.053022563 -2.1039494874
C -3.5066705892 2.8116664251 0.5789037082
C -1.5047739402 -1.1436497045 1.726196052
C -1.3685264036 -2.6810685712 2.050984666
C -1.3850459291 -3.2886361498 0.600895769
C -1.4114433179 -1.9808159076 -0.2849117446
O -0.6714197933 -0.9807516296 0.5186244624
H -3.702748032 -1.5365911918 1.7568891757
H -3.6520317579 -2.1134851227 -0.5436076359
H -3.0912504616 3.2345973839 1.5161395033
H -1.1677737825 -0.4564504896 2.5263591317
H -0.4075622417 -2.8740912344 2.5540627499
H -2.1879479367 -3.0553097915 2.6852818076
H -0.4734781874 -3.8725827298 0.3973951596
H -2.2643628547 -3.9274997234 0.418271501
H -0.9561392049 -2.0868452549 -1.287343747
H -4.613170476 2.8812205166 0.6173429733
H -3.1288129402 3.3845531472 -0.2876874009
H 3.4110033972 4.6493425377 0.8901206815
H 3.127010693 3.7135429239 2.4138972829
H 1.8187044965 3.840897359 1.1825622286
H 0.1410312918 2.0684355488 -3.8736303154
H -0.1081703146 2.4006873956 -2.0974336164
H -2.2759835772 1.5940543316 -3.1951098141
H -1.4508443206 0.0701806374 -3.6977044248
$end

$rem
JOBTYPE                   OPT
METHOD                    B3LYP
DFT_D                     d3_op
BASIS                     STO-3G
GEOM_OPT_MAX_CYCLES       100
GEOM_OPT_TOL_GRADIENT     300
GEOM_OPT_TOL_DISPLACEMENT 1200
GEOM_OPT_TOL_ENERGY       100
SYMMETRY                  False
THRESH                    12
SCF_CONVERGENCE           8
MAX_SUB_FILE_NUM          128
MEM_STATIC                400
MEM_TOTAL                 4000
$end
--------------------------------------------------------------

   16   -1510.2814912036      4.55E-09 Convergence criterion met
 Total energy in the final basis set = -1510.28149120
   14   -1510.2834527458      7.22E-09 Convergence criterion met
 Total energy in the final basis set = -1510.28345275
   14   -1510.2870372491      7.96E-09 Convergence criterion met
 Total energy in the final basis set = -1510.28703725
   15   -1510.2846053706      4.83E-09 Convergence criterion met
 Total energy in the final basis set = -1510.28460537
   14   -1510.2888059986      3.24E-09 Convergence criterion met
 Total energy in the final basis set = -1510.28880600
   14   -1510.2892472733      5.53E-09 Convergence criterion met
 Total energy in the final basis set = -1510.28924727
   13   -1510.2904152981      7.41E-09 Convergence criterion met
 Total energy in the final basis set = -1510.29041530
   14   -1510.2907914836      5.05E-09 Convergence criterion met
   12   -1510.2999687086      7.51E-09 Convergence criterion met
 Total energy in the final basis set = -1510.29996871
   12   -1510.2999637196      4.81E-09 Convergence criterion met
 Total energy in the final basis set = -1510.29996372
   11   -1510.3000179272      9.82E-09 Convergence criterion met
 Total energy in the final basis set = -1510.30001793
   11   -1510.3000206695      3.16E-09 Convergence criterion met
 Total energy in the final basis set = -1510.30002067
   11   -1510.3000160015      7.25E-09 Convergence criterion met
 Total energy in the final basis set = -1510.30001600
    9   -1510.3000171687      9.33E-09 Convergence criterion met
 Total energy in the final basis set = -1510.30001717

             Standard Nuclear Orientation (Angstroms)
    I     Atom           X                Y                Z
 ----------------------------------------------------------------
    1      O      -4.3558500780     1.4004836983     1.2711115046
    2      C      -3.1963020780     0.9340701542     1.3053065701
    3      C      -2.8099878775    -0.5905462896     1.3475483612
    4      C      -2.1084079334    -1.1319941282     0.0317936882
    5      C      -2.0912084901    -0.0604769209    -1.1076144436
    6      O      -1.3660041312    -0.5606770592    -2.2398603230
    7      C      -1.3941867455     0.4365932000    -3.3395441890
    8      C      -0.5003491877     1.7007068440    -3.0447602225
    9      O       0.9160048554     1.3152670057    -2.8512123734
   10      C       1.1345095731     0.8957788733    -1.4949176963
   11      C       2.5485943245     0.2284679143    -1.4495896813
   12      C       3.1233245995    -0.0727489929    -0.0060010004
   13      C       2.3183396662     0.4806560874     1.2293410177
   14      O       1.9916321975    -0.2021289330     2.2243526006
   15      O      -2.0148880459     1.7440792036     1.4604243908
   16      O       2.0882784344     1.8827196564     1.0943626491
   17      O       0.2851543690     0.9894255974    -0.5844627652
   18      C       1.0780994547     2.3044742675     2.0967709777
   19      C       2.3917758644    -1.2513529347    -2.0188576394
   20      C       3.8201440277    -1.8627684689    -2.2932217933
   21      C       4.2965106019    -2.2054730166    -0.8319531510
   22      C       3.0859596676    -1.6588008400     0.0137474781
   23      O       1.9104785231    -1.9947256829    -0.8317842706
   24      H       3.2467071845     0.8273851730    -2.0607892824
   25      H       4.1625312087     0.2979942391     0.0650840298
   26      H       1.6693347289    -1.3396733290    -2.8536602595
   27      H       3.7395981109    -2.7672916895    -2.9168346631
   28      H       4.4831191307    -1.1428980842    -2.7992364838
   29      H       4.4086315339    -3.2923360544    -0.6902832511
   30      H       5.2451772522    -1.7127125604    -0.5664527501
   31      H       2.9591242912    -2.0779577095     1.0311622322
   32      O      -2.6846271489     1.0426517844    -1.1038067686
   33      C      -2.3894128635     3.1690960210     1.3277013615
   34      C      -1.6809394297    -0.8833793840     2.4223048961
   35      C      -1.6104591442    -2.4410008314     2.6741142919
   36      C      -0.8736419544    -2.9245839547     1.3714421231
   37      C      -0.6796407280    -1.5619565476     0.5955430663
   38      O      -0.4366305773    -0.5883053199     1.6818580430
   39      H      -3.7385281794    -1.1509686396     1.5558134608
   40      H      -2.6425493808    -2.0161171677    -0.3638478576
   41      H      -3.1264991741     3.4748911081     2.0983435339
   42      H      -1.7451442097    -0.2612123046     3.3354505799
   43      H      -1.0190711328    -2.6569726328     3.5781335959
   44      H      -2.6105980217    -2.8885188992     2.7916960262
   45      H       0.1082794851    -3.3659328674     1.6044303959
   46      H      -1.4603676040    -3.6558832686     0.7929728171
   47      H       0.1752575738    -1.5705190877    -0.1239094600
   48      H      -2.8196719583     3.3758277767     0.3265739256
   49      H      -1.4567876628     3.7470913986     1.4561152205
   50      H       0.9988699802     3.4029062442     2.0015873125
   51      H       1.3930339379     2.0418966380     3.1267156003
   52      H       0.0945272590     1.8263426055     1.8799782440
   53      H      -0.5252671483     2.3767893503    -3.9230078438
   54      H      -0.8988033058     2.2237487953    -2.1502921968
   55      H      -2.4336553958     0.7774257524    -3.5389944811
   56      H      -1.0059223789    -0.1010546549    -4.2277522086
 ----------------------------------------------------------------

    9   -1510.3000172290      2.46E-09 Convergence criterion met
 Total energy in the final basis set = -1510.30001723
 Final energy is   -1510.30001722899
 **  OPTIMIZATION CONVERGED  **

                    Orbital Energies (a.u.)
 --------------------------------------------------------------

 Alpha MOs
 -- Occupied --
-18.935 -18.933 -18.914 -18.913 -18.900 -18.882 -18.878 -18.871
-18.859 -18.850 -10.102 -10.102 -10.084 -10.081 -10.076 -10.073
-10.066 -10.059 -10.047 -10.045 -10.040 -10.036 -10.033 -10.033
-10.028 -10.025 -10.023 -10.022 -10.006 -10.003  -1.021  -1.008
 -0.992  -0.989  -0.977  -0.953  -0.942  -0.936  -0.918  -0.915
 -0.764  -0.749  -0.728  -0.716  -0.708  -0.702  -0.687  -0.645
 -0.642  -0.619  -0.593  -0.575  -0.545  -0.539  -0.530  -0.523
 -0.511  -0.498  -0.480  -0.470  -0.457  -0.452  -0.448  -0.436
 -0.433  -0.423  -0.418  -0.416  -0.401  -0.399  -0.396  -0.389
 -0.386  -0.378  -0.367  -0.358  -0.354  -0.351  -0.347  -0.342
 -0.337  -0.335  -0.329  -0.325  -0.323  -0.318  -0.313  -0.311
 -0.305  -0.302  -0.299  -0.291  -0.288  -0.276  -0.270  -0.268
 -0.265  -0.253  -0.252  -0.240  -0.237  -0.232  -0.215  -0.194
 -0.167  -0.160  -0.156  -0.154  -0.152  -0.148  -0.136  -0.131
 -0.125

          Ground-State Mulliken Net Atomic Charges

     Atom                 Charge (a.u.)
  ----------------------------------------
      1 O                    -0.222694
      2 C                     0.214599
      3 C                    -0.081189
      4 C                    -0.078504
      5 C                     0.222481
      6 O                    -0.173585
      7 C                    -0.051435
      8 C                    -0.055555
      9 O                    -0.176828
     10 C                     0.216099
     11 C                    -0.077694
     12 C                    -0.081544
     13 C                     0.215923
     14 O                    -0.205850
     15 O                    -0.169961
     16 O                    -0.175455
     17 O                    -0.201220
     18 C                    -0.135903
     19 C                     0.026109
     20 C                    -0.143737
     21 C                    -0.143368
     22 C                     0.024369
     23 O                    -0.189255
     24 H                     0.087668
     25 H                     0.082717
     26 H                     0.086461
     27 H                     0.078897
     28 H                     0.075348
     29 H                     0.078804
     30 H                     0.075178
     31 H                     0.095464
     32 O                    -0.213004
     33 C                    -0.127568
     34 C                     0.026662
     35 C                    -0.144815
     36 C                    -0.143560
     37 C                     0.015608
     38 O                    -0.182616
     39 H                     0.080726
     40 H                     0.083153
     41 H                     0.084706
     42 H                     0.080905
     43 H                     0.076163
     44 H                     0.069638
     45 H                     0.076274
     46 H                     0.068482
     47 H                     0.106372
     48 H                     0.089749
     49 H                     0.084668
     50 H                     0.076992
     51 H                     0.083403
     52 H                     0.116754
     53 H                     0.089421
     54 H                     0.104747
     55 H                     0.092008
     56 H                     0.088792
  ----------------------------------------
  Sum of atomic charges =    -0.000000

                    Cartesian Multipole Moments
 -----------------------------------------------------------------
    Charge (ESU x 10^10)
                -0.0000
    Dipole Moment (Debye)
         X       2.1697      Y      -0.5960      Z      -2.5794
       Tot       3.4229
    Quadrupole Moments (Debye-Ang)
        XX    -160.1600     XY       2.4473     YY    -153.9639
        XZ      -1.5696     YZ      -0.2905     ZZ    -151.2184

 Total job time:  257.37s(wall), 12279.83s(cpu)
        *  Thank you very much for using Q-Chem.  Have a nice day.  *
