 Q-Chem 5.0, Q-Chem, Inc., Pleasanton, CA (2017)
 Q-Chem 5.0.1 for Intel X86 EM64T Linux

User input:
--------------------------------------------------------------
$molecule
0  1
O -3.94934 -3.66094 2.70899
C -3.26408 -4.56952 2.26188
C -3.36658 -6.02376 2.66595
C -2.94965 -7.07382 1.62317
C -2.30923 -6.54961 0.357
O -0.96495 -6.39826 0.54526
C -0.21052 -6.51049 -0.66614
C 1.24286 -6.1201 -0.41831
O 1.824 -6.99408 0.56216
C 2.11578 -6.41961 1.75547
C 2.78206 -7.37198 2.71969
C 3.24024 -6.7393 4.04184
C 2.66305 -5.37367 4.35587
O 1.82665 -5.13836 5.21588
O -2.12567 -4.20264 1.61402
O 3.29117 -4.31868 3.76583
O 1.83797 -5.25195 1.97969
C 2.97419 -2.99569 3.99546
C 1.85982 -8.49712 3.21616
C 2.70496 -9.68592 3.66647
C 3.3287 -9.12535 4.92832
C 2.61353 -7.77059 5.01059
O 1.3526 -8.0149 4.4343
H 3.65345 -7.80305 2.176
H 4.34409 -6.68466 4.16806
H 1.10825 -8.81832 2.46302
H 1.99714 -10.49812 3.94905
H 3.42485 -10.07305 2.91362
H 3.03787 -9.77804 5.78125
H 4.43303 -9.0024 4.89993
H 2.60595 -7.41097 6.06332
O -2.84428 -6.65566 -0.74068
C -1.78991 -2.9094 1.27144
C -2.38403 -6.37719 3.80645
C -2.90629 -7.58402 4.58402
C -2.68825 -8.68826 3.57005
C -1.96178 -7.90955 2.46753
O -1.25398 -6.91376 3.16485
H -4.40114 -6.17426 3.04971
H -3.82678 -7.68034 1.30416
H -1.70379 -2.28064 2.18315
H -2.19381 -5.52836 4.49963
H -2.20768 -7.74382 5.43685
H -3.9428 -7.49506 4.97441
H -2.01796 -9.45279 4.02218
H -3.61318 -9.16972 3.18528
H -1.35586 -8.59916 1.8396
H -2.55745 -2.484 0.59027
H -0.81139 -2.9161 0.74865
H 3.63792 -2.35126 3.38345
H 3.12286 -2.74646 5.06783
H 1.91927 -2.79971 3.70668
H 1.81806 -6.22285 -1.36271
H 1.26321 -5.03625 -0.17054
H -0.60167 -5.81474 -1.44411
H -0.26057 -7.55542 -1.04619
$end

$opt
CONSTRAINT
tors           1           2           3           4    +152.432
tors           3           4           5           6     +86.340
tors           4           5           6           7    +153.030
tors           5           6           7           8    +171.291
tors           6           7           8           9     +60.532
tors           7           8           9          10    -111.415
tors           8           9          10          11    -177.320
tors           9          10          11          12    +175.063
tors          11          12          13          14    +108.120
ENDCONSTRAINT
$end

$rem
JOBTYPE                   OPT
METHOD                    B3LYP
DFT_D                     d3_op
BASIS                     STO-3G
GEOM_OPT_MAX_CYCLES       100
GEOM_OPT_TOL_GRADIENT     300
GEOM_OPT_TOL_DISPLACEMENT 1200
GEOM_OPT_TOL_ENERGY       100
SYMMETRY                  False
THRESH                    12
SCF_CONVERGENCE           8
MAX_SUB_FILE_NUM          128
MEM_STATIC                400
MEM_TOTAL                 4000
$end
--------------------------------------------------------------

   15   -1510.1471165463      6.67E-09 Convergence criterion met
 Total energy in the final basis set = -1510.14711655
   14   -1510.2174867485      6.44E-09 Convergence criterion met
 Total energy in the final basis set = -1510.21748675
   14   -1510.2547616842      5.77E-09 Convergence criterion met
 Total energy in the final basis set = -1510.25476168
   14   -1510.2709631070      4.63E-09 Convergence criterion met
 Total energy in the final basis set = -1510.27096311
   14   -1510.2757994497      6.06E-09 Convergence criterion met
 Total energy in the final basis set = -1510.27579945
   14   -1510.2777511067      5.67E-09 Convergence criterion met
 Total energy in the final basis set = -1510.27775111
   13   -1510.2793905895      9.74E-09 Convergence criterion met
 Total energy in the final basis set = -1510.27939059
   13   -1510.2803424004      7.33E-09 Convergence criterion met
   12   -1510.2812005781      3.15E-09 Convergence criterion met
 Total energy in the final basis set = -1510.28120058
   11   -1510.2812431276      8.02E-09 Convergence criterion met
 Total energy in the final basis set = -1510.28124313
   11   -1510.2812582960      2.26E-09 Convergence criterion met
 Total energy in the final basis set = -1510.28125830
   10   -1510.2812687233      4.13E-09 Convergence criterion met
 Total energy in the final basis set = -1510.28126872
    9   -1510.2812763528      9.80E-09 Convergence criterion met
 Total energy in the final basis set = -1510.28127635
    9   -1510.2812792523      4.92E-09 Convergence criterion met
 Total energy in the final basis set = -1510.28127925

             Standard Nuclear Orientation (Angstroms)
    I     Atom           X                Y                Z
 ----------------------------------------------------------------
    1      O      -4.0777822591     1.0069276345     2.4602311834
    2      C      -3.4694219803     0.5836485797     1.4525771396
    3      C      -2.9988371127    -0.8879802880     1.2053043634
    4      C      -2.8713439489    -1.3697017515    -0.3034204514
    5      C      -2.9530682663    -0.2299702867    -1.3930253117
    6      O      -1.6362861221     0.3149439078    -1.5797921500
    7      C      -1.4641617612     0.8791805975    -2.9332206045
    8      C      -0.0865336653     1.6167018337    -2.8850829193
    9      O       0.9984492214     0.6544294633    -2.5673919290
   10      C       1.5355527409     0.9096153096    -1.2640824183
   11      C       2.7159494356    -0.0884185625    -1.0161753649
   12      C       3.4811313403     0.1695067671     0.3452255163
   13      C       2.9294035863     1.3838588356     1.1825684814
   14      O       2.2796238851     1.3348826229     2.2479192471
   15      O      -3.0567130488     1.4184970101     0.3691530914
   16      O       3.4620616428     2.5895082548     0.6089349107
   17      O       1.1063353440     1.7876961985    -0.4823417112
   18      C       2.9160861055     3.7618932129     1.3259595359
   19      C       2.2020504782    -1.5777780544    -0.7867644768
   20      C       3.4371569882    -2.5541337540    -0.9307299406
   21      C       4.1897539985    -2.2966191981     0.4281104051
   22      C       3.2539690306    -1.2100360895     1.0899867931
   23      O       1.8974084908    -1.6193162575     0.6595968920
   24      H       3.3955550063    -0.0360355871    -1.8857885688
   25      H       4.5526868957     0.3559340931     0.1507739866
   26      H       1.3114269890    -1.8474447728    -1.3850152558
   27      H       3.0924951924    -3.5975810689    -1.0097639591
   28      H       4.0557482854    -2.3200174363    -1.8120832556
   29      H       4.2220370864    -3.2059824142     1.0489109639
   30      H       5.2189338153    -1.9312832586     0.2829008809
   31      H       3.3009018884    -1.1404783626     2.1938787785
   32      O      -3.9414455503     0.0530225630    -2.1039494874
   33      C      -3.5066705892     2.8116664251     0.5789037082
   34      C      -1.5047739402    -1.1436497045     1.7261960520
   35      C      -1.3685264036    -2.6810685712     2.0509846660
   36      C      -1.3850459291    -3.2886361498     0.6008957690
   37      C      -1.4114433179    -1.9808159076    -0.2849117446
   38      O      -0.6714197933    -0.9807516296     0.5186244624
   39      H      -3.7027480320    -1.5365911918     1.7568891757
   40      H      -3.6520317579    -2.1134851227    -0.5436076359
   41      H      -3.0912504616     3.2345973839     1.5161395033
   42      H      -1.1677737825    -0.4564504896     2.5263591317
   43      H      -0.4075622417    -2.8740912344     2.5540627499
   44      H      -2.1879479367    -3.0553097915     2.6852818076
   45      H      -0.4734781874    -3.8725827298     0.3973951596
   46      H      -2.2643628547    -3.9274997234     0.4182715010
   47      H      -0.9561392049    -2.0868452549    -1.2873437470
   48      H      -4.6131704760     2.8812205166     0.6173429733
   49      H      -3.1288129402     3.3845531472    -0.2876874009
   50      H       3.4110033972     4.6493425377     0.8901206815
   51      H       3.1270106930     3.7135429239     2.4138972829
   52      H       1.8187044965     3.8408973590     1.1825622286
   53      H       0.1410312918     2.0684355488    -3.8736303154
   54      H      -0.1081703146     2.4006873956    -2.0974336164
   55      H      -2.2759835772     1.5940543316    -3.1951098141
   56      H      -1.4508443206     0.0701806374    -3.6977044248
 ----------------------------------------------------------------

    9   -1510.2812795816      3.89E-09 Convergence criterion met
 Total energy in the final basis set = -1510.28127958
 Final energy is   -1510.28127958164
 **  OPTIMIZATION CONVERGED  **

                    Orbital Energies (a.u.)
 --------------------------------------------------------------

 Alpha MOs
 -- Occupied --
-18.937 -18.932 -18.916 -18.913 -18.882 -18.881 -18.881 -18.869
-18.863 -18.856 -10.101 -10.096 -10.093 -10.085 -10.071 -10.070
-10.063 -10.056 -10.053 -10.052 -10.052 -10.050 -10.035 -10.032
-10.030 -10.028 -10.017 -10.016 -10.013 -10.011  -1.013  -1.010
 -0.997  -0.992  -0.965  -0.960  -0.938  -0.932  -0.925  -0.919
 -0.758  -0.755  -0.724  -0.716  -0.709  -0.698  -0.692  -0.658
 -0.650  -0.611  -0.593  -0.573  -0.541  -0.536  -0.534  -0.528
 -0.512  -0.505  -0.485  -0.475  -0.464  -0.452  -0.447  -0.429
 -0.427  -0.427  -0.416  -0.410  -0.408  -0.402  -0.401  -0.397
 -0.391  -0.372  -0.370  -0.366  -0.356  -0.347  -0.346  -0.342
 -0.337  -0.332  -0.329  -0.327  -0.326  -0.321  -0.319  -0.309
 -0.304  -0.301  -0.298  -0.296  -0.292  -0.288  -0.271  -0.270
 -0.266  -0.247  -0.242  -0.239  -0.234  -0.231  -0.220  -0.176
 -0.175  -0.163  -0.160  -0.155  -0.150  -0.140  -0.140  -0.136
 -0.129

          Ground-State Mulliken Net Atomic Charges

     Atom                 Charge (a.u.)
  ----------------------------------------
      1 O                    -0.214476
      2 C                     0.209510
      3 C                    -0.080738
      4 C                    -0.079459
      5 C                     0.218794
      6 O                    -0.172324
      7 C                    -0.046156
      8 C                    -0.051453
      9 O                    -0.174112
     10 C                     0.223869
     11 C                    -0.076447
     12 C                    -0.080501
     13 C                     0.217304
     14 O                    -0.217187
     15 O                    -0.163419
     16 O                    -0.177180
     17 O                    -0.202747
     18 C                    -0.128455
     19 C                     0.028446
     20 C                    -0.144224
     21 C                    -0.144559
     22 C                     0.024423
     23 O                    -0.181565
     24 H                     0.084884
     25 H                     0.082104
     26 H                     0.084269
     27 H                     0.075408
     28 H                     0.072310
     29 H                     0.076116
     30 H                     0.072286
     31 H                     0.087077
     32 O                    -0.221303
     33 C                    -0.124842
     34 C                     0.028857
     35 C                    -0.141488
     36 C                    -0.144839
     37 C                     0.028374
     38 O                    -0.175716
     39 H                     0.084037
     40 H                     0.082267
     41 H                     0.092476
     42 H                     0.088311
     43 H                     0.082333
     44 H                     0.071971
     45 H                     0.077744
     46 H                     0.070820
     47 H                     0.078376
     48 H                     0.089745
     49 H                     0.091426
     50 H                     0.084319
     51 H                     0.086069
     52 H                     0.091002
     53 H                     0.084235
     54 H                     0.103784
     55 H                     0.089856
     56 H                     0.080390
  ----------------------------------------
  Sum of atomic charges =    -0.000000

                    Cartesian Multipole Moments
 -----------------------------------------------------------------
    Charge (ESU x 10^10)
                -0.0000
    Dipole Moment (Debye)
         X       1.8184      Y      -0.7241      Z      -2.2586
       Tot       2.9887
    Quadrupole Moments (Debye-Ang)
        XX    -160.0617     XY      -0.7065     YY    -145.5410
        XZ      -0.6678     YZ      -3.3729     ZZ    -160.6197

 Total job time:  55.62s(wall), 2649.22s(cpu)
        *  Thank you very much for using Q-Chem.  Have a nice day.  *
