 Q-Chem 5.0, Q-Chem, Inc., Pleasanton, CA (2017)
 Q-Chem 5.0.1 for Intel X86 EM64T Linux

User input:
--------------------------------------------------------------
$molecule
0  1
O -3.94934 -3.66094 2.70899
C -3.26408 -4.56952 2.26188
C -3.36658 -6.02376 2.66595
C -2.97708 -7.0746 1.61339
C -2.35973 -6.55214 0.33511
O -1.06092 -6.19422 0.55958
C -0.40538 -5.69106 -0.60933
C 1.02948 -5.29445 -0.27765
O 1.77102 -6.44931 0.14577
C 1.88744 -6.60779 1.48759
C 3.00587 -7.54596 1.8744
C 3.43186 -7.47256 3.34798
C 2.47088 -6.76086 4.27895
O 1.88538 -7.27464 5.22118
O -2.12297 -4.18156 1.63533
O 2.46944 -5.40093 4.19546
O 1.10073 -6.06997 2.24931
C 1.73049 -4.57049 5.01298
C 2.64625 -9.03322 1.73348
C 3.92429 -9.84834 1.55208
C 4.53279 -9.73012 2.93549
C 3.40979 -8.98407 3.66846
O 2.23469 -9.41496 3.02279
H 3.87095 -7.29387 1.21864
H 4.43814 -7.02209 3.49608
H 1.93013 -9.23769 0.90768
H 3.61178 -10.90489 1.38918
H 4.58328 -9.52931 0.7161
H 4.66523 -10.75513 3.3475
H 5.49136 -9.16973 2.98737
H 3.46954 -9.18766 4.76029
O -2.87891 -6.65645 -0.76972
C -1.79951 -2.8769 1.31852
C -2.38338 -6.40688 3.79407
C -2.91644 -7.62014 4.55618
C -2.71145 -8.7148 3.52626
C -1.98671 -7.92866 2.42771
O -1.26685 -6.95139 3.13752
H -4.39966 -6.1654 3.05729
H -3.87592 -7.65325 1.3033
H -1.73392 -2.26237 2.24162
H -2.17727 -5.5697 4.49659
H -2.21872 -7.79969 5.4057
H -3.95122 -7.52508 4.94972
H -2.04202 -9.48815 3.96422
H -3.64184 -9.18789 3.14414
H -1.38967 -8.60864 1.78086
H -2.56346 -2.45021 0.63417
H -0.81505 -2.85643 0.80984
H 1.91359 -3.51617 4.72105
H 2.03347 -4.70653 6.07305
H 0.64679 -4.7897 4.90028
H 1.51461 -4.8863 -1.18928
H 1.03632 -4.47151 0.47324
H -0.93887 -4.79171 -0.99185
H -0.38063 -6.46944 -1.40543
$end

$opt
CONSTRAINT
tors           1           2           3           4    +151.212
tors           3           4           5           6     +76.104
tors           4           5           6           7    +179.851
tors           5           6           7           8    +179.175
tors           6           7           8           9     +62.732
tors           7           8           9          10     -98.062
tors           8           9          10          11    -161.792
tors           9          10          11          12    +164.154
tors          11          12          13          14    +117.082
ENDCONSTRAINT
$end

$rem
JOBTYPE                   OPT
METHOD                    B3LYP
DFT_D                     d3_op
BASIS                     STO-3G
GEOM_OPT_MAX_CYCLES       100
GEOM_OPT_TOL_GRADIENT     300
GEOM_OPT_TOL_DISPLACEMENT 1200
GEOM_OPT_TOL_ENERGY       100
SYMMETRY                  False
THRESH                    12
SCF_CONVERGENCE           8
MAX_SUB_FILE_NUM          128
MEM_STATIC                400
MEM_TOTAL                 4000
$end
--------------------------------------------------------------

   15   -1510.1467590618      7.30E-09 Convergence criterion met
 Total energy in the final basis set = -1510.14675906
   14   -1510.2169801222      6.21E-09 Convergence criterion met
 Total energy in the final basis set = -1510.21698012
   13   -1510.2539061042      9.26E-09 Convergence criterion met
 Total energy in the final basis set = -1510.25390610
   14   -1510.2695208421      5.66E-09 Convergence criterion met
 Total energy in the final basis set = -1510.26952084
   14   -1510.2745437346      3.79E-09 Convergence criterion met
 Total energy in the final basis set = -1510.27454373
   13   -1510.2769421649      7.32E-09 Convergence criterion met
 Total energy in the final basis set = -1510.27694216
   12   -1510.2782911761      9.86E-09 Convergence criterion met
 Total energy in the final basis set = -1510.27829118
   13   -1510.2790107711      8.65E-09 Convergence criterion met
   12   -1510.2804771656      3.24E-09 Convergence criterion met
 Total energy in the final basis set = -1510.28047717
   12   -1510.2805109329      2.08E-09 Convergence criterion met
 Total energy in the final basis set = -1510.28051093
   11   -1510.2805301479      5.23E-09 Convergence criterion met
 Total energy in the final basis set = -1510.28053015
   11   -1510.2805463776      5.00E-09 Convergence criterion met
 Total energy in the final basis set = -1510.28054638
    9   -1510.2805566292      9.69E-09 Convergence criterion met
 Total energy in the final basis set = -1510.28055663
    9   -1510.2805624035      8.80E-09 Convergence criterion met
 Total energy in the final basis set = -1510.28056240

             Standard Nuclear Orientation (Angstroms)
    I     Atom           X                Y                Z
 ----------------------------------------------------------------
    1      O      -4.6987827959    -1.4241372855     1.1398665165
    2      C      -3.8176539935    -0.7548745020     0.5543399464
    3      C      -3.0522270291    -1.2106666185    -0.7343412921
    4      C      -2.5134770140    -0.1115035475    -1.7473446867
    5      C      -2.5227462744     1.3788838350    -1.2440543948
    6      O      -1.4362609754     1.5607663982    -0.3354629717
    7      C      -1.3882796755     2.9497251599     0.1729710025
    8      C      -0.1703346059     2.9758480160     1.1598432016
    9      O       1.0763849458     2.6813310989     0.4106765173
   10      C       1.4093356395     1.2942365652     0.5709911967
   11      C       2.9088990390     1.0537893949     0.2034253349
   12      C       3.4197119724    -0.3438161161     0.7399761789
   13      C       2.4073680109    -1.1057060608     1.6771450030
   14      O       1.8672374484    -2.2107277075     1.4610290372
   15      O      -3.3857071568     0.5307450786     1.0060113272
   16      O       2.3596311893    -0.4105153478     2.9369373422
   17      O       0.6383923664     0.4446347440     1.0722451900
   18      C       1.3686460644    -1.0623088809     3.8197119266
   19      C       3.0649038274     0.8396977383    -1.3655074928
   20      C       4.6018460356     0.8131681430    -1.7334240217
   21      C       5.0089156949    -0.6280451744    -1.2495543224
   22      C       3.6503815364    -1.1264539712    -0.6203100597
   23      O       2.6299301822    -0.5643617041    -1.5379726947
   24      H       3.5112290554     1.9030027007     0.5714450995
   25      H       4.3662839090    -0.2164671237     1.2956962989
   26      H       2.4446478101     1.5210728261    -1.9802508065
   27      H       4.7408396535     0.9325747812    -2.8196144650
   28      H       5.1618460747     1.6086359599    -1.2161265753
   29      H       5.2984423235    -1.2694499643    -2.0972903725
   30      H       5.8317623712    -0.6167368896    -0.5170906399
   31      H       3.5248957416    -2.2231537886    -0.5324065443
   32      O      -3.3116495480     2.2852985014    -1.5908876454
   33      C      -4.1331712597     0.9155578571     2.2247398485
   34      C      -1.7093598292    -2.0249699518    -0.4213719863
   35      C      -1.4524279292    -2.9995321531    -1.6367325479
   36      C      -1.0149729717    -1.9743413268    -2.7475113520
   37      C      -1.0159195408    -0.6179927357    -1.9357143812
   38      O      -0.6337726027    -1.0254386708    -0.5654336413
   39      H      -3.7588413236    -1.8754576874    -1.2640614742
   40      H      -3.0895682012    -0.1429724417    -2.6890906106
   41      H      -3.9500300929     0.2049711231     3.0563447445
   42      H      -1.6742038735    -2.4947362492     0.5805485180
   43      H      -0.6371958839    -3.6993614528    -1.3929207797
   44      H      -2.3486133202    -3.5780485513    -1.9123029394
   45      H      -0.0025459218    -2.1916880598    -3.1228360556
   46      H      -1.7123295752    -1.9489706999    -3.6004403716
   47      H      -0.3168703843     0.1521291829    -2.3141305189
   48      H      -5.2253548463     0.9648734680     2.0377661994
   49      H      -3.7595582244     1.9173798103     2.5053723829
   50      H       1.4202879392    -0.5322823756     4.7886128734
   51      H       1.5957931743    -2.1375164158     3.9708129004
   52      H       0.3442500821    -0.9747971435     3.4020475482
   53      H      -0.0522542687     3.9894849036     1.5955530226
   54      H      -0.3279958357     2.2205231599     1.9575470858
   55      H      -2.3294322200     3.2167706280     0.7027961477
   56      H      -1.2351125724     3.6765841777    -0.6550022924
 ----------------------------------------------------------------

    9   -1510.2805626502      6.03E-09 Convergence criterion met
 Total energy in the final basis set = -1510.28056265
 Final energy is   -1510.28056265020
 **  OPTIMIZATION CONVERGED  **

                    Orbital Energies (a.u.)
 --------------------------------------------------------------

 Alpha MOs
 -- Occupied --
-18.935 -18.931 -18.924 -18.912 -18.884 -18.883 -18.880 -18.867
-18.861 -18.854 -10.097 -10.095 -10.091 -10.085 -10.073 -10.070
-10.065 -10.058 -10.052 -10.051 -10.050 -10.050 -10.036 -10.031
-10.029 -10.028 -10.018 -10.016 -10.010 -10.009  -1.014  -1.010
 -0.999  -0.991  -0.966  -0.960  -0.936  -0.932  -0.925  -0.918
 -0.758  -0.754  -0.724  -0.716  -0.708  -0.699  -0.691  -0.660
 -0.650  -0.611  -0.593  -0.574  -0.541  -0.536  -0.533  -0.527
 -0.510  -0.505  -0.486  -0.475  -0.462  -0.453  -0.449  -0.428
 -0.425  -0.425  -0.418  -0.411  -0.409  -0.401  -0.400  -0.398
 -0.391  -0.376  -0.368  -0.364  -0.356  -0.347  -0.345  -0.341
 -0.336  -0.332  -0.330  -0.328  -0.325  -0.320  -0.317  -0.307
 -0.303  -0.301  -0.298  -0.294  -0.289  -0.286  -0.271  -0.269
 -0.266  -0.249  -0.244  -0.240  -0.239  -0.230  -0.219  -0.176
 -0.173  -0.165  -0.158  -0.152  -0.149  -0.141  -0.139  -0.135
 -0.131

          Ground-State Mulliken Net Atomic Charges

     Atom                 Charge (a.u.)
  ----------------------------------------
      1 O                    -0.217172
      2 C                     0.207122
      3 C                    -0.080133
      4 C                    -0.079927
      5 C                     0.214117
      6 O                    -0.163662
      7 C                    -0.044068
      8 C                    -0.048303
      9 O                    -0.175057
     10 C                     0.216920
     11 C                    -0.077207
     12 C                    -0.080433
     13 C                     0.218960
     14 O                    -0.217634
     15 O                    -0.165629
     16 O                    -0.180517
     17 O                    -0.184308
     18 C                    -0.129056
     19 C                     0.025375
     20 C                    -0.144496
     21 C                    -0.143803
     22 C                     0.024878
     23 O                    -0.189176
     24 H                     0.085988
     25 H                     0.081908
     26 H                     0.081473
     27 H                     0.076827
     28 H                     0.072992
     29 H                     0.076798
     30 H                     0.072684
     31 H                     0.089882
     32 O                    -0.221964
     33 C                    -0.126549
     34 C                     0.028592
     35 C                    -0.142251
     36 C                    -0.144909
     37 C                     0.028986
     38 O                    -0.172945
     39 H                     0.084428
     40 H                     0.082312
     41 H                     0.089868
     42 H                     0.085567
     43 H                     0.080762
     44 H                     0.071561
     45 H                     0.081195
     46 H                     0.070504
     47 H                     0.082972
     48 H                     0.090554
     49 H                     0.086914
     50 H                     0.083349
     51 H                     0.086036
     52 H                     0.090117
     53 H                     0.086802
     54 H                     0.100893
     55 H                     0.085961
     56 H                     0.085903
  ----------------------------------------
  Sum of atomic charges =    -0.000000

                    Cartesian Multipole Moments
 -----------------------------------------------------------------
    Charge (ESU x 10^10)
                -0.0000
    Dipole Moment (Debye)
         X       1.8453      Y       1.7414      Z       0.5873
       Tot       2.6043
    Quadrupole Moments (Debye-Ang)
        XX    -157.4071     XY       1.1976     YY    -158.1081
        XZ      -3.3246     YZ       7.5945     ZZ    -151.0593

 Total job time:  58.07s(wall), 2764.80s(cpu)
        *  Thank you very much for using Q-Chem.  Have a nice day.  *
