 Q-Chem 5.0, Q-Chem, Inc., Pleasanton, CA (2017)
 Q-Chem 5.0.1 for Intel X86 EM64T Linux

User input:
--------------------------------------------------------------
$molecule
0  1
O -4.6987827959 -1.4241372855 1.1398665165
C -3.8176539935 -0.754874502 0.5543399464
C -3.0522270291 -1.2106666185 -0.7343412921
C -2.513477014 -0.1115035475 -1.7473446867
C -2.5227462744 1.378883835 -1.2440543948
O -1.4362609754 1.5607663982 -0.3354629717
C -1.3882796755 2.9497251599 0.1729710025
C -0.1703346059 2.975848016 1.1598432016
O 1.0763849458 2.6813310989 0.4106765173
C 1.4093356395 1.2942365652 0.5709911967
C 2.908899039 1.0537893949 0.2034253349
C 3.4197119724 -0.3438161161 0.7399761789
C 2.4073680109 -1.1057060608 1.677145003
O 1.8672374484 -2.2107277075 1.4610290372
O -3.3857071568 0.5307450786 1.0060113272
O 2.3596311893 -0.4105153478 2.9369373422
O 0.6383923664 0.444634744 1.07224519
C 1.3686460644 -1.0623088809 3.8197119266
C 3.0649038274 0.8396977383 -1.3655074928
C 4.6018460356 0.813168143 -1.7334240217
C 5.0089156949 -0.6280451744 -1.2495543224
C 3.6503815364 -1.1264539712 -0.6203100597
O 2.6299301822 -0.5643617041 -1.5379726947
H 3.5112290554 1.9030027007 0.5714450995
H 4.366283909 -0.2164671237 1.2956962989
H 2.4446478101 1.5210728261 -1.9802508065
H 4.7408396535 0.9325747812 -2.819614465
H 5.1618460747 1.6086359599 -1.2161265753
H 5.2984423235 -1.2694499643 -2.0972903725
H 5.8317623712 -0.6167368896 -0.5170906399
H 3.5248957416 -2.2231537886 -0.5324065443
O -3.311649548 2.2852985014 -1.5908876454
C -4.1331712597 0.9155578571 2.2247398485
C -1.7093598292 -2.0249699518 -0.4213719863
C -1.4524279292 -2.9995321531 -1.6367325479
C -1.0149729717 -1.9743413268 -2.747511352
C -1.0159195408 -0.6179927357 -1.9357143812
O -0.6337726027 -1.0254386708 -0.5654336413
H -3.7588413236 -1.8754576874 -1.2640614742
H -3.0895682012 -0.1429724417 -2.6890906106
H -3.9500300929 0.2049711231 3.0563447445
H -1.6742038735 -2.4947362492 0.580548518
H -0.6371958839 -3.6993614528 -1.3929207797
H -2.3486133202 -3.5780485513 -1.9123029394
H -0.0025459218 -2.1916880598 -3.1228360556
H -1.7123295752 -1.9489706999 -3.6004403716
H -0.3168703843 0.1521291829 -2.3141305189
H -5.2253548463 0.964873468 2.0377661994
H -3.7595582244 1.9173798103 2.5053723829
H 1.4202879392 -0.5322823756 4.7886128734
H 1.5957931743 -2.1375164158 3.9708129004
H 0.3442500821 -0.9747971435 3.4020475482
H -0.0522542687 3.9894849036 1.5955530226
H -0.3279958357 2.2205231599 1.9575470858
H -2.32943222 3.216770628 0.7027961477
H -1.2351125724 3.6765841777 -0.6550022924
$end

$rem
JOBTYPE                   OPT
METHOD                    B3LYP
DFT_D                     d3_op
BASIS                     STO-3G
GEOM_OPT_MAX_CYCLES       100
GEOM_OPT_TOL_GRADIENT     300
GEOM_OPT_TOL_DISPLACEMENT 1200
GEOM_OPT_TOL_ENERGY       100
SYMMETRY                  False
THRESH                    12
SCF_CONVERGENCE           8
MAX_SUB_FILE_NUM          128
MEM_STATIC                400
MEM_TOTAL                 4000
$end
--------------------------------------------------------------

   16   -1510.2806068715      4.31E-09 Convergence criterion met
 Total energy in the final basis set = -1510.28060687
   14   -1510.2853081543      8.46E-09 Convergence criterion met
 Total energy in the final basis set = -1510.28530815
   14   -1510.2854837157      1.96E-09 Convergence criterion met
 Total energy in the final basis set = -1510.28548372
   13   -1510.2871554598      7.06E-09 Convergence criterion met
 Total energy in the final basis set = -1510.28715546
   14   -1510.2884509244      5.14E-09 Convergence criterion met
 Total energy in the final basis set = -1510.28845092
   13   -1510.2894103983      6.31E-09 Convergence criterion met
 Total energy in the final basis set = -1510.28941040
   13   -1510.2898077413      4.53E-09 Convergence criterion met
 Total energy in the final basis set = -1510.28980774
   13   -1510.2893915044      8.57E-09 Convergence criterion met
   12   -1510.2948685596      2.65E-09 Convergence criterion met
 Total energy in the final basis set = -1510.29486856
   11   -1510.2948828596      2.96E-09 Convergence criterion met
 Total energy in the final basis set = -1510.29488286
   11   -1510.2949057213      3.90E-09 Convergence criterion met
 Total energy in the final basis set = -1510.29490572
   11   -1510.2949135180      3.97E-09 Convergence criterion met
 Total energy in the final basis set = -1510.29491352
   11   -1510.2949199225      8.98E-09 Convergence criterion met
 Total energy in the final basis set = -1510.29491992
    9   -1510.2949211710      6.33E-09 Convergence criterion met
 Total energy in the final basis set = -1510.29492117

             Standard Nuclear Orientation (Angstroms)
    I     Atom           X                Y                Z
 ----------------------------------------------------------------
    1      O      -4.3089565877     0.1045476213     1.7671060511
    2      C      -3.2349105228    -0.1077266011     1.1635791397
    3      C      -2.6767300295    -1.4828709051     0.6729460842
    4      C      -2.3007979461    -1.5295874999    -0.8719995480
    5      C      -2.4996730210    -0.1434529418    -1.5861515605
    6      O      -1.2597531999     0.2806491385    -2.1675185509
    7      C      -1.4130200897     1.6075994800    -2.8057781360
    8      C      -0.5881524267     2.6616711955    -1.9890369283
    9      O       0.8281321084     2.2334258915    -1.8957773316
   10      C       1.0751870408     1.6081839667    -0.6287874551
   11      C       2.5366638460     1.0531870515    -0.6359934955
   12      C       2.9665684975     0.4080762167     0.7437781227
   13      C       1.9077679671     0.5413249833     1.9004880410
   14      O       1.2385019741    -0.3705126433     2.4285469228
   15      O      -2.2744395295     0.9059722630     0.8454446131
   16      O       1.9417874912     1.8977933369     2.3769590514
   17      O       0.2458581345     1.5517331791     0.3052146212
   18      C       0.8797708703     2.0872550232     3.3884368072
   19      C       2.6639521836    -0.2015261552    -1.6054786742
   20      C       4.1987148531    -0.5108454168    -1.8244292181
   21      C       4.5713020911    -1.1893965087    -0.4534135550
   22      C       3.1915799268    -1.1016423536     0.3116798173
   23      O       2.1982887491    -1.3235627344    -0.7642615685
   24      H       3.2193266350     1.8656274010    -0.9443038096
   25      H       3.9071566269     0.8664466669     1.0989360677
   26      H       2.0565764452    -0.1224058507    -2.5283452501
   27      H       4.3347765190    -1.2038543486    -2.6698375776
   28      H       4.7808092625     0.4039412993    -2.0197942933
   29      H       4.8686071095    -2.2409579588    -0.5931024448
   30      H       5.3789601257    -0.6612608571     0.0782113061
   31      H       3.0405480875    -1.8331238477     1.1288387109
   32      O      -3.5705644814     0.4960343206    -1.6942611345
   33      C      -2.7740305784     2.2332563395     1.2648055362
   34      C      -1.2608686416    -1.8225568160     1.3269534738
   35      C      -1.0197900463    -3.3748940602     1.1803688682
   36      C      -0.7045166404    -3.4850342759    -0.3566827115
   37      C      -0.7806805397    -1.9707802959    -0.7974744100
   38      O      -0.2877445154    -1.2323059016     0.3857644978
   39      H      -3.4292521806    -2.2520220706     0.9201144591
   40      H      -2.9269298258    -2.2728830309    -1.3999246222
   41      H      -3.1635843319     2.2147544319     2.3024709965
   42      H      -1.1039250941    -1.4112567080     2.3424802889
   43      H      -0.1574058740    -3.6837329560     1.7921468815
   44      H      -1.8991912409    -3.9665108897     1.4811909767
   45      H       0.3089684944    -3.8773051024    -0.5349246954
   46      H      -1.4300629601    -4.1140569068    -0.8970603329
   47      H      -0.1834856817    -1.7071008878    -1.6895435626
   48      H      -3.5819425821     2.5862254125     0.5906012358
   49      H      -1.9081427475     2.9172786726     1.1994327823
   50      H       0.9381669039     3.1453508672     3.7037494257
   51      H       1.0268738406     1.4296798546     4.2699536388
   52      H      -0.1211948750     1.8807923580     2.9567968769
   53      H      -0.6065393037     3.6430661220    -2.5060902731
   54      H      -1.0115075113     2.7539512363    -0.9671681659
   55      H      -2.4925778147     1.8786035289    -2.8134952207
   56      H      -1.0263149237     1.5319231691    -3.8431209619
 ----------------------------------------------------------------

   11   -1510.2949208207      2.32E-09 Convergence criterion met
 Total energy in the final basis set = -1510.29492082
 Final energy is   -1510.29492082065
 **  OPTIMIZATION CONVERGED  **

                    Orbital Energies (a.u.)
 --------------------------------------------------------------

 Alpha MOs
 -- Occupied --
-18.931 -18.931 -18.926 -18.912 -18.882 -18.882 -18.873 -18.869
-18.865 -18.856 -10.098 -10.097 -10.089 -10.085 -10.070 -10.067
-10.056 -10.056 -10.052 -10.050 -10.045 -10.043 -10.034 -10.031
-10.027 -10.026 -10.017 -10.015 -10.007 -10.006  -1.015  -1.007
 -1.000  -0.991  -0.965  -0.954  -0.939  -0.931  -0.926  -0.918
 -0.758  -0.751  -0.723  -0.714  -0.707  -0.698  -0.688  -0.653
 -0.650  -0.613  -0.591  -0.573  -0.540  -0.534  -0.531  -0.523
 -0.508  -0.501  -0.479  -0.473  -0.460  -0.452  -0.447  -0.433
 -0.428  -0.422  -0.421  -0.410  -0.406  -0.402  -0.397  -0.396
 -0.390  -0.372  -0.368  -0.358  -0.355  -0.348  -0.345  -0.343
 -0.335  -0.334  -0.331  -0.327  -0.320  -0.315  -0.311  -0.308
 -0.301  -0.297  -0.296  -0.291  -0.289  -0.284  -0.270  -0.266
 -0.263  -0.249  -0.245  -0.240  -0.237  -0.228  -0.216  -0.185
 -0.167  -0.164  -0.159  -0.154  -0.152  -0.141  -0.139  -0.136
 -0.124

          Ground-State Mulliken Net Atomic Charges

     Atom                 Charge (a.u.)
  ----------------------------------------
      1 O                    -0.214569
      2 C                     0.209151
      3 C                    -0.080569
      4 C                    -0.077756
      5 C                     0.216265
      6 O                    -0.171791
      7 C                    -0.055566
      8 C                    -0.053756
      9 O                    -0.175847
     10 C                     0.219878
     11 C                    -0.075979
     12 C                    -0.079433
     13 C                     0.221059
     14 O                    -0.214633
     15 O                    -0.162800
     16 O                    -0.177874
     17 O                    -0.195113
     18 C                    -0.128617
     19 C                     0.025956
     20 C                    -0.144354
     21 C                    -0.144255
     22 C                     0.026905
     23 O                    -0.186569
     24 H                     0.085118
     25 H                     0.081587
     26 H                     0.084535
     27 H                     0.076258
     28 H                     0.072524
     29 H                     0.076032
     30 H                     0.072157
     31 H                     0.088429
     32 O                    -0.222639
     33 C                    -0.129406
     34 C                     0.028293
     35 C                    -0.143065
     36 C                    -0.144404
     37 C                     0.027356
     38 O                    -0.175908
     39 H                     0.082689
     40 H                     0.082796
     41 H                     0.090197
     42 H                     0.089988
     43 H                     0.078260
     44 H                     0.070167
     45 H                     0.079316
     46 H                     0.068829
     47 H                     0.092811
     48 H                     0.086486
     49 H                     0.090070
     50 H                     0.083554
     51 H                     0.083802
     52 H                     0.091996
     53 H                     0.086223
     54 H                     0.099829
     55 H                     0.101796
     56 H                     0.084591
  ----------------------------------------
  Sum of atomic charges =     0.000000

                    Cartesian Multipole Moments
 -----------------------------------------------------------------
    Charge (ESU x 10^10)
                -0.0000
    Dipole Moment (Debye)
         X       2.3120      Y       0.8278      Z      -1.4699
       Tot       2.8620
    Quadrupole Moments (Debye-Ang)
        XX    -163.8821     XY       0.3951     YY    -148.8427
        XZ       1.6098     YZ       0.4141     ZZ    -154.4164

 Total job time:  106.28s(wall), 5058.72s(cpu)
        *  Thank you very much for using Q-Chem.  Have a nice day.  *
