 Q-Chem 5.0, Q-Chem, Inc., Pleasanton, CA (2017)
 Q-Chem 5.0.1 for Intel X86 EM64T Linux

User input:
--------------------------------------------------------------
$molecule
0  1
O -4.0146680918 1.0395203013 2.2066209753
C -3.3892969019 0.5375050596 1.245835616
C -2.7060142234 -0.8712750498 1.2442091987
C -2.545414307 -1.6399275669 -0.1369499824
C -2.7751169756 -0.778948194 -1.4377245542
O -1.5908589954 -0.0125687243 -1.6602398026
C -1.6336042342 0.7422358172 -2.9303510052
C -0.2622766529 1.5079002314 -2.9428162146
O 0.8222803081 0.554681786 -2.5985223162
C 1.2388627085 0.7627571109 -1.2418214021
C 2.6410183883 0.1063915892 -1.022574271
C 3.2761320346 0.5024523812 0.3715759521
C 2.4060390155 1.5043729841 1.2222747212
O 1.7887302972 1.2597515711 2.2804687083
O -3.1960780868 1.2096615084 -0.0007716376
O 2.6322793775 2.827827412 0.7019633335
O 0.6196269783 1.4802655141 -0.4239587119
C 1.7868879466 3.7955668368 1.4327152905
C 2.5520350969 -1.4743453478 -0.8705496018
C 4.0131176184 -2.0671428811 -0.987209003
C 4.6091207012 -1.6875214835 0.4204092052
C 3.3906405017 -0.917967154 1.0664842634
O 2.2148070022 -1.6615246266 0.5567983649
H 3.2877151809 0.3899945643 -1.8721684684
H 4.2693376145 0.9632492354 0.2236850771
H 1.7934075718 -1.9516166581 -1.5202841681
H 3.9752274885 -3.1588701162 -1.1296778619
H 4.5763254268 -1.6218326552 -1.822927397
H 4.8532700392 -2.5858521221 1.0097538256
H 5.510702405 -1.0585137573 0.3467556512
H 3.3712204993 -0.8828819452 2.1729016021
O -3.7619324241 -0.7986701739 -2.2046000938
C -3.8601829142 2.531677079 0.0195292122
C -1.1842834826 -0.8346352656 1.7484675657
C -0.863299272 -2.2433426354 2.3808423861
C -0.8115222018 -3.1404232972 1.0891456844
C -1.0168862915 -2.0624283693 -0.0463623044
O -0.389839964 -0.8420648393 0.50699183
H -3.3024171328 -1.4875776333 1.9412599982
H -3.2295725697 -2.5060222721 -0.1814185604
H -3.4488450424 3.1820616154 0.8181482628
H -0.9163052172 0.0407856215 2.3716913334
H 0.1161294527 -2.2135954801 2.8841121104
H -1.6292855687 -2.5693053752 3.1027432208
H 0.1726402315 -3.621802649 0.9759796529
H -1.5943199544 -3.9164596199 1.0749573627
H -0.5631611518 -2.3206493884 -1.0219216613
H -4.9552616818 2.4372373259 0.1694583651
H -3.6600813248 2.9856619789 -0.9683723936
H 2.0689944815 4.7978264998 1.060742105
H 1.9541325589 3.7429342155 2.5280010036
H 0.7107304505 3.6142555745 1.2315892575
H -0.0438432309 1.9085128907 -3.9543024707
H -0.2874453346 2.3258849279 -2.1928158408
H -2.4887839943 1.4529178718 -2.962218774
H -1.7154421325 0.0541623423 -3.8004856642
$end

$rem
JOBTYPE                   OPT
METHOD                    B3LYP
DFT_D                     d3_op
BASIS                     STO-3G
GEOM_OPT_MAX_CYCLES       100
GEOM_OPT_TOL_GRADIENT     300
GEOM_OPT_TOL_DISPLACEMENT 1200
GEOM_OPT_TOL_ENERGY       100
SYMMETRY                  False
THRESH                    12
SCF_CONVERGENCE           8
MAX_SUB_FILE_NUM          128
MEM_STATIC                400
MEM_TOTAL                 4000
$end
--------------------------------------------------------------

   16   -1510.2832706522      5.53E-09 Convergence criterion met
 Total energy in the final basis set = -1510.28327065
   14   -1510.2762132030      6.90E-09 Convergence criterion met
 Total energy in the final basis set = -1510.27621320
   14   -1510.2861857017      6.62E-09 Convergence criterion met
 Total energy in the final basis set = -1510.28618570
   15   -1510.2870715068      2.43E-09 Convergence criterion met
 Total energy in the final basis set = -1510.28707151
   14   -1510.2874000109      7.94E-09 Convergence criterion met
 Total energy in the final basis set = -1510.28740001
   13   -1510.2885231501      5.93E-09 Convergence criterion met
 Total energy in the final basis set = -1510.28852315
   13   -1510.2893944568      2.75E-09 Convergence criterion met
 Total energy in the final basis set = -1510.28939446
   14   -1510.2906627956      4.91E-09 Convergence criterion met
   11   -1510.2948656412      3.33E-09 Convergence criterion met
 Total energy in the final basis set = -1510.29486564
   11   -1510.2948656587      5.58E-09 Convergence criterion met
 Total energy in the final basis set = -1510.29486566
   11   -1510.2948638202      3.33E-09 Convergence criterion met
 Total energy in the final basis set = -1510.29486382
    9   -1510.2948677877      7.90E-09 Convergence criterion met
 Total energy in the final basis set = -1510.29486779
    9   -1510.2948669687      4.73E-09 Convergence criterion met
 Total energy in the final basis set = -1510.29486697
    9   -1510.2948663208      3.79E-09 Convergence criterion met
 Total energy in the final basis set = -1510.29486632

             Standard Nuclear Orientation (Angstroms)
    I     Atom           X                Y                Z
 ----------------------------------------------------------------
    1      O      -3.9347328640     0.9027206225     2.1218651886
    2      C      -3.0574798311     0.3953777916     1.3880609133
    3      C      -2.4998199024    -1.0602677011     1.4593303573
    4      C      -2.3075699690    -1.7936225874     0.0609393475
    5      C      -2.6407254417    -0.8754390398    -1.1725224136
    6      O      -1.4369579841    -0.6186561723    -1.9097753105
    7      C      -1.6986330249     0.3111134324    -3.0304784174
    8      C      -0.8436757954     1.6058659822    -2.8049401465
    9      O       0.5900742897     1.2453737247    -2.6858786482
   10      C       0.9765946147     1.1919745137    -1.3063576342
   11      C       2.4521598444     0.6770635563    -1.2340428530
   12      C       3.0212482411     0.6357405708     0.2409747098
   13      C       2.0726212105     1.2544829858     1.3338445461
   14      O       1.4762603370     0.6571233849     2.2537311699
   15      O      -2.3548027348     1.1081056817     0.3623091772
   16      O       2.1281577790     2.6859066741     1.2034121925
   17      O       0.2422058520     1.5276054457    -0.3512565976
   18      C       1.1633566776     3.3017705717     2.1393846126
   19      C       2.5384320353    -0.8599118364    -1.6301233996
   20      C       4.0591079208    -1.2465214608    -1.8287002465
   21      C       4.5505229201    -1.3332463844    -0.3350078296
   22      C       3.2352220085    -0.9237886912     0.4381746255
   23      O       2.1661997919    -1.5469379119    -0.3758355151
   24      H       3.0749521484     1.2993786393    -1.9020280645
   25      H       3.9815078568     1.1806068028     0.2901133024
   26      H       1.8592911539    -1.1513112864    -2.4550408563
   27      H       4.1453627530    -2.2175323936    -2.3417557866
   28      H       4.6062999049    -0.4891137270    -2.4125308424
   29      H       4.8509292412    -2.3595244737    -0.0695262638
   30      H       5.3906491942    -0.6530824820    -0.1226234919
   31      H       3.1618482215    -1.2615868589     1.4900070481
   32      O      -3.7719460987    -0.4736270569    -1.5273583441
   33      C      -2.8660878009     2.4918957815     0.2487104633
   34      C      -1.0013408412    -1.0817285885     2.0106283551
   35      C      -0.7017547955    -2.5350617317     2.5445233259
   36      C      -0.5674656989    -3.3277574084     1.1919604722
   37      C      -0.7702566043    -2.1725009699     0.1345272524
   38      O      -0.1773583401    -0.9859654028     0.7901206125
   39      H      -3.1730340952    -1.6364913025     2.1180246386
   40      H      -2.9592980178    -2.6847629186     0.0032379762
   41      H      -3.5549971532     2.7008539744     1.0921649194
   42      H      -0.7451717458    -0.2585548173     2.7048415911
   43      H       0.2429153634    -2.5416714947     3.1110161489
   44      H      -1.5064495992    -2.9203020977     3.1910559385
   45      H       0.4356849010    -3.7681520323     1.0794362049
   46      H      -1.3203191936    -4.1259094851     1.0889828788
   47      H      -0.2942169001    -2.3461688632    -0.8476600678
   48      H      -3.4087589541     2.6049971782    -0.7113263901
   49      H      -2.0009687715     3.1821829270     0.2697051397
   50      H       1.2722381111     4.3956759514     2.0212236468
   51      H       1.3708230679     3.0189596405     3.1918420034
   52      H       0.1240102142     3.0021151223     1.8912773417
   53      H      -0.9445675692     2.2873523431    -3.6744884328
   54      H      -1.1715581872     2.1104660959    -1.8731847940
   55      H      -2.7864266871     0.5466851623    -3.0545189490
   56      H      -1.3986451148    -0.1884257730    -3.9754761633
 ----------------------------------------------------------------

    8   -1510.2948622440      7.19E-09 Convergence criterion met
 Total energy in the final basis set = -1510.29486224
 Final energy is   -1510.29486224405
 **  OPTIMIZATION CONVERGED  **

                    Orbital Energies (a.u.)
 --------------------------------------------------------------

 Alpha MOs
 -- Occupied --
-18.930 -18.930 -18.926 -18.913 -18.881 -18.881 -18.874 -18.870
-18.865 -18.856 -10.098 -10.096 -10.093 -10.086 -10.069 -10.065
-10.056 -10.054 -10.052 -10.051 -10.045 -10.044 -10.034 -10.030
-10.029 -10.027 -10.017 -10.015 -10.008 -10.006  -1.014  -1.007
 -1.001  -0.992  -0.965  -0.955  -0.937  -0.930  -0.928  -0.918
 -0.758  -0.752  -0.722  -0.714  -0.707  -0.697  -0.688  -0.653
 -0.650  -0.612  -0.591  -0.573  -0.540  -0.534  -0.531  -0.524
 -0.508  -0.502  -0.479  -0.473  -0.461  -0.452  -0.447  -0.431
 -0.427  -0.422  -0.421  -0.411  -0.407  -0.402  -0.399  -0.397
 -0.388  -0.371  -0.369  -0.360  -0.354  -0.351  -0.345  -0.342
 -0.336  -0.335  -0.330  -0.328  -0.320  -0.315  -0.312  -0.307
 -0.301  -0.296  -0.296  -0.293  -0.291  -0.285  -0.270  -0.266
 -0.263  -0.248  -0.243  -0.239  -0.237  -0.227  -0.217  -0.183
 -0.167  -0.162  -0.159  -0.155  -0.151  -0.146  -0.139  -0.137
 -0.124

          Ground-State Mulliken Net Atomic Charges

     Atom                 Charge (a.u.)
  ----------------------------------------
      1 O                    -0.215416
      2 C                     0.211771
      3 C                    -0.080133
      4 C                    -0.078112
      5 C                     0.217666
      6 O                    -0.172163
      7 C                    -0.054984
      8 C                    -0.053748
      9 O                    -0.175598
     10 C                     0.221772
     11 C                    -0.075665
     12 C                    -0.079407
     13 C                     0.221340
     14 O                    -0.217379
     15 O                    -0.163512
     16 O                    -0.177824
     17 O                    -0.196161
     18 C                    -0.128363
     19 C                     0.026149
     20 C                    -0.144476
     21 C                    -0.144092
     22 C                     0.026797
     23 O                    -0.186049
     24 H                     0.085015
     25 H                     0.081653
     26 H                     0.084857
     27 H                     0.076217
     28 H                     0.072390
     29 H                     0.075880
     30 H                     0.072038
     31 H                     0.088069
     32 O                    -0.225092
     33 C                    -0.135558
     34 C                     0.027920
     35 C                    -0.142819
     36 C                    -0.144457
     37 C                     0.028378
     38 O                    -0.176091
     39 H                     0.083879
     40 H                     0.082546
     41 H                     0.101931
     42 H                     0.091937
     43 H                     0.078719
     44 H                     0.070319
     45 H                     0.079265
     46 H                     0.068957
     47 H                     0.091853
     48 H                     0.083032
     49 H                     0.087575
     50 H                     0.084107
     51 H                     0.085126
     52 H                     0.089683
     53 H                     0.085482
     54 H                     0.100978
     55 H                     0.100780
     56 H                     0.083016
  ----------------------------------------
  Sum of atomic charges =     0.000000

                    Cartesian Multipole Moments
 -----------------------------------------------------------------
    Charge (ESU x 10^10)
                -0.0000
    Dipole Moment (Debye)
         X       2.0556      Y       0.2225      Z      -1.7485
       Tot       2.7078
    Quadrupole Moments (Debye-Ang)
        XX    -162.2427     XY       0.0147     YY    -149.5874
        XZ       1.7494     YZ      -2.6469     ZZ    -155.5746

 Total job time:  148.81s(wall), 7099.45s(cpu)
        *  Thank you very much for using Q-Chem.  Have a nice day.  *
