 Q-Chem 5.0, Q-Chem, Inc., Pleasanton, CA (2017)
 Q-Chem 5.0.1 for Intel X86 EM64T Linux

User input:
--------------------------------------------------------------
$molecule
0  1
O -3.94934 -3.66094 2.70899
C -3.26408 -4.56952 2.26188
C -3.36658 -6.02376 2.66595
C -2.94965 -7.07382 1.62317
C -2.30923 -6.54961 0.357
O -1.00239 -6.23198 0.59517
C -0.29219 -5.84655 -0.58649
C 1.14922 -5.48817 -0.24004
O 1.71629 -6.50233 0.60424
C 1.81434 -6.17976 1.91782
C 2.77916 -7.06474 2.67055
C 3.10493 -6.60039 4.09762
C 2.17445 -5.55627 4.68135
O 1.37714 -5.74525 5.58863
O -2.1233 -4.18817 1.62959
O 2.40509 -4.27315 4.28651
O 1.14558 -5.27242 2.38938
C 1.71667 -3.17628 4.76251
C 2.25235 -8.48667 2.91494
C 3.43039 -9.43654 3.11574
C 3.93214 -8.98004 4.471
C 2.8595 -7.94246 4.8275
O 1.69431 -8.42859 4.20342
H 3.71239 -7.09361 2.0627
H 4.14979 -6.24451 4.23572
H 1.58426 -8.85582 2.10621
H 3.00667 -10.46133 3.21905
H 4.18953 -9.43415 2.30419
H 3.89098 -9.84616 5.16829
H 4.94967 -8.53274 4.47637
H 2.80531 -7.81957 5.9318
O -2.81174 -6.6595 -0.75513
C -1.79215 -2.88861 1.304
C -2.38441 -6.38543 3.80505
C -2.90764 -7.59799 4.57394
C -2.68445 -8.69747 3.55432
C -1.95826 -7.91197 2.4566
O -1.25334 -6.91992 3.16239
H -4.4012 -6.17433 3.04953
H -3.83517 -7.66559 1.30006
H -1.71802 -2.26938 2.22327
H -2.19454 -5.54076 4.50338
H -2.21183 -7.76198 5.42823
H -3.94545 -7.51236 4.96158
H -2.01261 -9.46218 4.00365
H -3.60745 -9.18016 3.16636
H -1.34846 -8.59226 1.82199
H -2.55575 -2.4606 0.6201
H -0.80918 -2.88172 0.79078
H 2.10445 -2.26155 4.2693
H 1.86044 -3.07986 5.85986
H 0.63399 -3.27527 4.5322
H 1.75891 -5.37371 -1.16095
H 1.14255 -4.48173 0.2362
H -0.77446 -4.98597 -1.10329
H -0.26036 -6.71905 -1.27792
$end

$opt
CONSTRAINT
tors           1           2           3           4    +152.432
tors           3           4           5           6     +78.413
tors           4           5           6           7    +174.461
tors           5           6           7           8    +179.175
tors           6           7           8           9     +47.443
tors           7           8           9          10    -103.471
tors           8           9          10          11    -162.154
tors           9          10          11          12    +170.267
tors          11          12          13          14    +110.082
ENDCONSTRAINT
$end

$rem
JOBTYPE                   OPT
METHOD                    B3LYP
DFT_D                     d3_op
BASIS                     STO-3G
GEOM_OPT_MAX_CYCLES       100
GEOM_OPT_TOL_GRADIENT     300
GEOM_OPT_TOL_DISPLACEMENT 1200
GEOM_OPT_TOL_ENERGY       100
SYMMETRY                  False
THRESH                    12
SCF_CONVERGENCE           8
MAX_SUB_FILE_NUM          128
MEM_STATIC                400
MEM_TOTAL                 4000
$end
--------------------------------------------------------------

   15   -1510.1488717954      6.57E-09 Convergence criterion met
 Total energy in the final basis set = -1510.14887180
   14   -1510.2191232618      7.70E-09 Convergence criterion met
 Total energy in the final basis set = -1510.21912326
   14   -1510.2564154971      6.90E-09 Convergence criterion met
 Total energy in the final basis set = -1510.25641550
   14   -1510.2725077001      4.50E-09 Convergence criterion met
 Total energy in the final basis set = -1510.27250770
   14   -1510.2769701250      4.58E-09 Convergence criterion met
 Total energy in the final basis set = -1510.27697013
   14   -1510.2779248711      8.35E-09 Convergence criterion met
 Total energy in the final basis set = -1510.27792487
   14   -1510.2801033721      2.01E-09 Convergence criterion met
 Total energy in the final basis set = -1510.28010337
   13   -1510.2815349816      9.57E-09 Convergence criterion met
   11   -1510.2832773924      7.59E-09 Convergence criterion met
 Total energy in the final basis set = -1510.28327739
   11   -1510.2833215379      8.18E-09 Convergence criterion met
 Total energy in the final basis set = -1510.28332154
   11   -1510.2833420475      3.93E-09 Convergence criterion met
 Total energy in the final basis set = -1510.28334205
    9   -1510.2833569916      9.26E-09 Convergence criterion met
 Total energy in the final basis set = -1510.28335699
    9   -1510.2833619171      7.57E-09 Convergence criterion met
 Total energy in the final basis set = -1510.28336192
    9   -1510.2833630021      6.69E-09 Convergence criterion met
 Total energy in the final basis set = -1510.28336300

             Standard Nuclear Orientation (Angstroms)
    I     Atom           X                Y                Z
 ----------------------------------------------------------------
    1      O      -4.0146680918     1.0395203013     2.2066209753
    2      C      -3.3892969019     0.5375050596     1.2458356160
    3      C      -2.7060142234    -0.8712750498     1.2442091987
    4      C      -2.5454143070    -1.6399275669    -0.1369499824
    5      C      -2.7751169756    -0.7789481940    -1.4377245542
    6      O      -1.5908589954    -0.0125687243    -1.6602398026
    7      C      -1.6336042342     0.7422358172    -2.9303510052
    8      C      -0.2622766529     1.5079002314    -2.9428162146
    9      O       0.8222803081     0.5546817860    -2.5985223162
   10      C       1.2388627085     0.7627571109    -1.2418214021
   11      C       2.6410183883     0.1063915892    -1.0225742710
   12      C       3.2761320346     0.5024523812     0.3715759521
   13      C       2.4060390155     1.5043729841     1.2222747212
   14      O       1.7887302972     1.2597515711     2.2804687083
   15      O      -3.1960780868     1.2096615084    -0.0007716376
   16      O       2.6322793775     2.8278274120     0.7019633335
   17      O       0.6196269783     1.4802655141    -0.4239587119
   18      C       1.7868879466     3.7955668368     1.4327152905
   19      C       2.5520350969    -1.4743453478    -0.8705496018
   20      C       4.0131176184    -2.0671428811    -0.9872090030
   21      C       4.6091207012    -1.6875214835     0.4204092052
   22      C       3.3906405017    -0.9179671540     1.0664842634
   23      O       2.2148070022    -1.6615246266     0.5567983649
   24      H       3.2877151809     0.3899945643    -1.8721684684
   25      H       4.2693376145     0.9632492354     0.2236850771
   26      H       1.7934075718    -1.9516166581    -1.5202841681
   27      H       3.9752274885    -3.1588701162    -1.1296778619
   28      H       4.5763254268    -1.6218326552    -1.8229273970
   29      H       4.8532700392    -2.5858521221     1.0097538256
   30      H       5.5107024050    -1.0585137573     0.3467556512
   31      H       3.3712204993    -0.8828819452     2.1729016021
   32      O      -3.7619324241    -0.7986701739    -2.2046000938
   33      C      -3.8601829142     2.5316770790     0.0195292122
   34      C      -1.1842834826    -0.8346352656     1.7484675657
   35      C      -0.8632992720    -2.2433426354     2.3808423861
   36      C      -0.8115222018    -3.1404232972     1.0891456844
   37      C      -1.0168862915    -2.0624283693    -0.0463623044
   38      O      -0.3898399640    -0.8420648393     0.5069918300
   39      H      -3.3024171328    -1.4875776333     1.9412599982
   40      H      -3.2295725697    -2.5060222721    -0.1814185604
   41      H      -3.4488450424     3.1820616154     0.8181482628
   42      H      -0.9163052172     0.0407856215     2.3716913334
   43      H       0.1161294527    -2.2135954801     2.8841121104
   44      H      -1.6292855687    -2.5693053752     3.1027432208
   45      H       0.1726402315    -3.6218026490     0.9759796529
   46      H      -1.5943199544    -3.9164596199     1.0749573627
   47      H      -0.5631611518    -2.3206493884    -1.0219216613
   48      H      -4.9552616818     2.4372373259     0.1694583651
   49      H      -3.6600813248     2.9856619789    -0.9683723936
   50      H       2.0689944815     4.7978264998     1.0607421050
   51      H       1.9541325589     3.7429342155     2.5280010036
   52      H       0.7107304505     3.6142555745     1.2315892575
   53      H      -0.0438432309     1.9085128907    -3.9543024707
   54      H      -0.2874453346     2.3258849279    -2.1928158408
   55      H      -2.4887839943     1.4529178718    -2.9622187740
   56      H      -1.7154421325     0.0541623423    -3.8004856642
 ----------------------------------------------------------------

    9   -1510.2833625975      3.34E-09 Convergence criterion met
 Total energy in the final basis set = -1510.28336260
 Final energy is   -1510.28336259752
 **  OPTIMIZATION CONVERGED  **

                    Orbital Energies (a.u.)
 --------------------------------------------------------------

 Alpha MOs
 -- Occupied --
-18.934 -18.931 -18.921 -18.911 -18.883 -18.882 -18.878 -18.867
-18.860 -18.853 -10.100 -10.094 -10.091 -10.085 -10.072 -10.070
-10.063 -10.057 -10.053 -10.050 -10.049 -10.049 -10.036 -10.030
-10.029 -10.028 -10.018 -10.016 -10.009 -10.007  -1.014  -1.008
 -0.997  -0.990  -0.966  -0.959  -0.937  -0.931  -0.924  -0.917
 -0.758  -0.752  -0.723  -0.715  -0.707  -0.698  -0.690  -0.658
 -0.650  -0.611  -0.592  -0.573  -0.542  -0.535  -0.533  -0.526
 -0.511  -0.503  -0.484  -0.477  -0.462  -0.453  -0.448  -0.429
 -0.426  -0.424  -0.417  -0.410  -0.407  -0.402  -0.399  -0.397
 -0.389  -0.375  -0.368  -0.363  -0.354  -0.347  -0.345  -0.340
 -0.336  -0.330  -0.329  -0.326  -0.324  -0.321  -0.317  -0.307
 -0.303  -0.300  -0.297  -0.292  -0.290  -0.287  -0.271  -0.268
 -0.266  -0.247  -0.241  -0.239  -0.238  -0.229  -0.220  -0.176
 -0.173  -0.164  -0.158  -0.153  -0.148  -0.141  -0.139  -0.135
 -0.126

          Ground-State Mulliken Net Atomic Charges

     Atom                 Charge (a.u.)
  ----------------------------------------
      1 O                    -0.216327
      2 C                     0.208446
      3 C                    -0.080539
      4 C                    -0.079648
      5 C                     0.216787
      6 O                    -0.167091
      7 C                    -0.043552
      8 C                    -0.048694
      9 O                    -0.173693
     10 C                     0.228720
     11 C                    -0.076195
     12 C                    -0.080265
     13 C                     0.218995
     14 O                    -0.221522
     15 O                    -0.165555
     16 O                    -0.179182
     17 O                    -0.195264
     18 C                    -0.128900
     19 C                     0.028053
     20 C                    -0.144337
     21 C                    -0.144282
     22 C                     0.025096
     23 O                    -0.184957
     24 H                     0.085301
     25 H                     0.082263
     26 H                     0.082582
     27 H                     0.076087
     28 H                     0.072551
     29 H                     0.076297
     30 H                     0.072439
     31 H                     0.087339
     32 O                    -0.222484
     33 C                    -0.125582
     34 C                     0.029334
     35 C                    -0.141024
     36 C                    -0.144591
     37 C                     0.028922
     38 O                    -0.178454
     39 H                     0.084095
     40 H                     0.081797
     41 H                     0.090878
     42 H                     0.091193
     43 H                     0.082522
     44 H                     0.070911
     45 H                     0.081376
     46 H                     0.069745
     47 H                     0.078058
     48 H                     0.089918
     49 H                     0.087823
     50 H                     0.083521
     51 H                     0.086324
     52 H                     0.089336
     53 H                     0.085791
     54 H                     0.099708
     55 H                     0.086316
     56 H                     0.083616
  ----------------------------------------
  Sum of atomic charges =     0.000000

                    Cartesian Multipole Moments
 -----------------------------------------------------------------
    Charge (ESU x 10^10)
                 0.0000
    Dipole Moment (Debye)
         X       2.0388      Y       0.2601      Z      -2.0509
       Tot       2.9035
    Quadrupole Moments (Debye-Ang)
        XX    -158.7642     XY      -3.4216     YY    -147.7417
        XZ      -0.8778     YZ      -5.6355     ZZ    -160.3927

 Total job time:  63.06s(wall), 2996.41s(cpu)
        *  Thank you very much for using Q-Chem.  Have a nice day.  *
