 Q-Chem 5.0, Q-Chem, Inc., Pleasanton, CA (2017)
 Q-Chem 5.0.1 for Intel X86 EM64T Linux

User input:
--------------------------------------------------------------
$molecule
0  1
O -4.0529226416 0.9344203445 2.397952486
C -3.4644537188 0.5466441834 1.3635156457
C -2.8829238907 -0.891591978 1.1456419927
C -2.770962435 -1.4642047292 -0.3298438292
C -2.876214286 -0.4095834232 -1.4938038146
O -1.6594724637 0.3378979047 -1.5196222687
C -1.6084782727 1.2765847288 -2.6603422337
C -0.2275650639 1.9981027669 -2.4915377971
O 0.8605103791 0.9910120563 -2.4528479151
C 1.2999022226 0.8238805416 -1.0943732564
C 2.610045236 -0.0252901252 -1.0751599587
C 3.5097149037 0.2704186164 0.1945504086
C 2.8879168737 1.3116907245 1.1991094218
O 2.4109473574 1.0810552899 2.3298059248
O -3.2501248631 1.3831672389 0.2247751378
O 3.0774382414 2.6260882268 0.6493103643
O 0.7616177008 1.3818264726 -0.1116320019
C 2.4358275002 3.6276270236 1.5285294507
C 2.3223212416 -1.5790213313 -0.8808480197
C 3.6365801922 -2.3717975358 -1.2582782179
C 4.5390875149 -2.0774300789 -0.0028587157
C 3.5755156235 -1.1684467537 0.857154352
O 2.231477901 -1.7331827174 0.5862040163
H 3.1540481645 0.1605355986 -2.0183385958
H 4.507085885 0.6337170126 -0.1121444431
H 1.3977700275 -1.9365615468 -1.3715216282
H 3.4206098137 -3.4474446134 -1.3586535976
H 4.0837120131 -2.0120203203 -2.1986842395
H 4.78707913 -3.0018077916 0.5426915478
H 5.4752628826 -1.5588946743 -0.2642981367
H 3.7708259118 -1.1537929048 1.9467172978
O -3.8118789729 -0.2725296952 -2.3113979186
C -3.8276530252 2.7252189298 0.4617035066
C -1.3687008986 -1.0667514232 1.6498405566
C -1.1993088868 -2.5700123001 2.0973493727
C -1.2538107784 -3.2972599588 0.7023408933
C -1.3036980784 -2.0651794455 -0.287361516
O -0.5535370631 -1.004721723 0.4208586458
H -3.5325723914 -1.5554305835 1.744638442
H -3.5423757642 -2.233955783 -0.5091140038
H -3.3490133894 3.2269484208 1.3273214181
H -1.0272010936 -0.3086168401 2.3810087671
H -0.2184258349 -2.7076727845 2.5799690164
H -1.9906824666 -2.9019194287 2.7883350885
H -0.3482071037 -3.898394508 0.5238454523
H -2.1377254726 -3.9465125245 0.5946380255
H -0.8651179118 -2.2500291617 -1.2866273994
H -4.9207153827 2.6741108886 0.6430131616
H -3.6314336698 3.305369438 -0.4587248091
H 2.6328784278 4.6133830771 1.0682748923
H 2.8576835265 3.6054084105 2.5542799486
H 1.3410582913 3.4598538971 1.5940131298
H -0.0313707888 2.6682796998 -3.3539159742
H -0.2270611067 2.5675255054 -1.5381282363
H -2.4430766508 2.0116299518 -2.6255530109
H -1.6592090635 0.7332734728 -3.6296504235
$end

$rem
JOBTYPE                   OPT
METHOD                    B3LYP
DFT_D                     d3_op
BASIS                     STO-3G
GEOM_OPT_MAX_CYCLES       100
GEOM_OPT_TOL_GRADIENT     300
GEOM_OPT_TOL_DISPLACEMENT 1200
GEOM_OPT_TOL_ENERGY       100
SYMMETRY                  False
THRESH                    12
SCF_CONVERGENCE           8
MAX_SUB_FILE_NUM          128
MEM_STATIC                400
MEM_TOTAL                 4000
$end
--------------------------------------------------------------

   16   -1510.2835268356      5.38E-09 Convergence criterion met
 Total energy in the final basis set = -1510.28352684
   14   -1510.2784830593      8.01E-09 Convergence criterion met
 Total energy in the final basis set = -1510.27848306
   14   -1510.2844060587      4.70E-09 Convergence criterion met
 Total energy in the final basis set = -1510.28440606
   14   -1510.2866618632      6.04E-09 Convergence criterion met
 Total energy in the final basis set = -1510.28666186
   14   -1510.2892120855      5.65E-09 Convergence criterion met
 Total energy in the final basis set = -1510.28921209
   14   -1510.2807709704      7.41E-09 Convergence criterion met
 Total energy in the final basis set = -1510.28077097
   15   -1510.2869508937      5.31E-09 Convergence criterion met
 Total energy in the final basis set = -1510.28695089
   15   -1510.2874607883      5.70E-09 Convergence criterion met
   10   -1510.3040165220      5.21E-09 Convergence criterion met
 Total energy in the final basis set = -1510.30401652
    9   -1510.3040179716      6.97E-09 Convergence criterion met
 Total energy in the final basis set = -1510.30401797
    9   -1510.3040175447      8.37E-09 Convergence criterion met
 Total energy in the final basis set = -1510.30401754
    9   -1510.3040168222      7.70E-09 Convergence criterion met
 Total energy in the final basis set = -1510.30401682
    9   -1510.3040179642      3.50E-09 Convergence criterion met
 Total energy in the final basis set = -1510.30401796
    9   -1510.3040191042      5.00E-09 Convergence criterion met
 Total energy in the final basis set = -1510.30401910

             Standard Nuclear Orientation (Angstroms)
    I     Atom           X                Y                Z
 ----------------------------------------------------------------
    1      O      -1.4587096330     1.3479976220     2.2774765945
    2      C      -1.9821723026     0.7417892143     1.3146546570
    3      C      -2.0859890196    -0.8160861876     1.1847196491
    4      C      -2.7263070524    -1.4397244631    -0.1271353305
    5      C      -2.8991964554    -0.4525578876    -1.3352630523
    6      O      -1.5963721659    -0.1918471289    -1.8778303734
    7      C      -1.6654800070     0.7668810371    -2.9994232191
    8      C      -0.6111149668     1.8918668392    -2.7190446328
    9      O       0.7362118496     1.3031756125    -2.5131996785
   10      C       0.9826021593     1.0686330402    -1.1230693937
   11      C       2.4031695446     0.4377156858    -0.9796466933
   12      C       3.0163506308     0.5831344329     0.4730315004
   13      C       1.9794734644     1.0803104761     1.5492798649
   14      O       1.3056952915     0.3652770203     2.3286787016
   15      O      -2.6433093270     1.4031528112     0.2361568859
   16      O       2.0042160914     2.5055887471     1.5868742153
   17      O       0.1992150723     1.3795805343    -0.1979947307
   18      C       0.9866283896     3.0015001868     2.5472332936
   19      C       2.4134911615    -1.1498664612    -1.1560195033
   20      C       3.8883076555    -1.5683042315    -1.5335710755
   21      C       4.6230052517    -1.3329797591    -0.1612741934
   22      C       3.4157594651    -0.9190053734     0.7712786067
   23      O       2.2634985960    -1.6689017060     0.2202970290
   24      H       3.0536968137     0.9082057180    -1.7381438034
   25      H       3.8817006825     1.2692880522     0.4729810253
   26      H       1.6094843577    -1.5457326150    -1.8056110785
   27      H       3.9194988385    -2.6289026817    -1.8303931315
   28      H       4.3029521288    -0.9582138083    -2.3517784204
   29      H       5.0989535439    -2.2549471267     0.2081092596
   30      H       5.3873594230    -0.5415104965    -0.2217637682
   31      H       3.5437735396    -1.1487700275     1.8464984554
   32      O      -3.9651604398    -0.0308395914    -1.8348178213
   33      C      -2.5336116685     2.8706139018     0.3901648552
   34      C      -0.6504620839    -1.5235200635     1.2056379171
   35      C      -0.8506224840    -2.9703533709     1.7975253512
   36      C      -1.6401110171    -3.6668182723     0.6269982382
   37      C      -1.6248759690    -2.5313422143    -0.4742697149
   38      O      -0.3664330733    -1.7993852977    -0.2195196707
   39      H      -2.6667952762    -1.1487215398     2.0653910597
   40      H      -3.7151631956    -1.8818772186     0.0882037508
   41      H      -1.4735591946     3.1947593411     0.3529013056
   42      H       0.1647317371    -0.9079602548     1.6609658470
   43      H       0.1299748753    -3.4468161854     1.9568859570
   44      H      -1.4049288369    -2.9698769581     2.7494633902
   45      H      -1.1202503780    -4.5662852190     0.2614674940
   46      H      -2.6668560356    -3.9453622826     0.9142817244
   47      H      -1.6607938593    -2.8942131126    -1.5198358465
   48      H      -2.9780123636     3.2122916190     1.3470767205
   49      H      -3.0925751086     3.3080642948    -0.4574034931
   50      H       0.8591846172     4.0769786881     2.3256433683
   51      H       1.3421278553     2.8849230791     3.5913927624
   52      H       0.0199568133     2.4553917339     2.4305563516
   53      H      -0.5306208595     2.5689844725    -3.5939935401
   54      H      -0.9098572964     2.4650364856    -1.8182171572
   55      H      -2.6944734217     1.1837134720    -3.0743703120
   56      H      -1.4165227835     0.2369080849    -3.9440383473
 ----------------------------------------------------------------

    9   -1510.3040197832      2.94E-09 Convergence criterion met
 Total energy in the final basis set = -1510.30401978
 Final energy is   -1510.30401978320
 **  OPTIMIZATION CONVERGED  **

                    Orbital Energies (a.u.)
 --------------------------------------------------------------

 Alpha MOs
 -- Occupied --
-18.938 -18.936 -18.920 -18.919 -18.882 -18.880 -18.870 -18.869
-18.861 -18.861 -10.104 -10.099 -10.092 -10.090 -10.073 -10.065
-10.064 -10.054 -10.053 -10.047 -10.034 -10.034 -10.030 -10.028
-10.027 -10.025 -10.016 -10.015 -10.007 -10.001  -1.017  -1.009
 -0.999  -0.995  -0.964  -0.952  -0.940  -0.932  -0.925  -0.921
 -0.759  -0.750  -0.722  -0.714  -0.705  -0.696  -0.686  -0.660
 -0.645  -0.612  -0.590  -0.574  -0.539  -0.533  -0.530  -0.523
 -0.506  -0.502  -0.479  -0.477  -0.462  -0.451  -0.447  -0.430
 -0.428  -0.422  -0.420  -0.411  -0.409  -0.406  -0.397  -0.392
 -0.388  -0.375  -0.373  -0.365  -0.357  -0.347  -0.345  -0.342
 -0.339  -0.332  -0.328  -0.327  -0.322  -0.316  -0.307  -0.307
 -0.301  -0.300  -0.299  -0.289  -0.285  -0.281  -0.268  -0.267
 -0.264  -0.249  -0.244  -0.237  -0.233  -0.226  -0.215  -0.184
 -0.177  -0.162  -0.159  -0.154  -0.150  -0.143  -0.140  -0.137
 -0.125

          Ground-State Mulliken Net Atomic Charges

     Atom                 Charge (a.u.)
  ----------------------------------------
      1 O                    -0.215905
      2 C                     0.227145
      3 C                    -0.080104
      4 C                    -0.079456
      5 C                     0.219697
      6 O                    -0.173347
      7 C                    -0.053401
      8 C                    -0.050881
      9 O                    -0.170709
     10 C                     0.224728
     11 C                    -0.078907
     12 C                    -0.080645
     13 C                     0.221359
     14 O                    -0.218255
     15 O                    -0.166212
     16 O                    -0.174852
     17 O                    -0.213810
     18 C                    -0.144095
     19 C                     0.029499
     20 C                    -0.143189
     21 C                    -0.145234
     22 C                     0.024336
     23 O                    -0.182010
     24 H                     0.085241
     25 H                     0.083523
     26 H                     0.095113
     27 H                     0.077330
     28 H                     0.072391
     29 H                     0.076880
     30 H                     0.072097
     31 H                     0.084708
     32 O                    -0.222831
     33 C                    -0.127369
     34 C                     0.015438
     35 C                    -0.142795
     36 C                    -0.145739
     37 C                     0.026327
     38 O                    -0.188888
     39 H                     0.083524
     40 H                     0.081603
     41 H                     0.094601
     42 H                     0.116540
     43 H                     0.078954
     44 H                     0.069650
     45 H                     0.074511
     46 H                     0.069364
     47 H                     0.077115
     48 H                     0.090287
     49 H                     0.089378
     50 H                     0.077350
     51 H                     0.078043
     52 H                     0.117717
     53 H                     0.087432
     54 H                     0.095165
     55 H                     0.099462
     56 H                     0.082129
  ----------------------------------------
  Sum of atomic charges =    -0.000000

                    Cartesian Multipole Moments
 -----------------------------------------------------------------
    Charge (ESU x 10^10)
                 0.0000
    Dipole Moment (Debye)
         X       1.0780      Y       0.9156      Z      -1.6105
       Tot       2.1434
    Quadrupole Moments (Debye-Ang)
        XX    -155.2948     XY      -0.9095     YY    -150.3697
        XZ      -4.0821     YZ      -2.5454     ZZ    -158.0950

 Total job time:  141.22s(wall), 6729.47s(cpu)
        *  Thank you very much for using Q-Chem.  Have a nice day.  *
