 Q-Chem 5.0, Q-Chem, Inc., Pleasanton, CA (2017)
 Q-Chem 5.0.1 for Intel X86 EM64T Linux

User input:
--------------------------------------------------------------
$molecule
0  1
O -3.94934 -3.66094 2.70899
C -3.26408 -4.56952 2.26188
C -3.36658 -6.02376 2.66595
C -2.94965 -7.07382 1.62317
C -2.30923 -6.54961 0.357
O -1.03892 -6.12334 0.62167
C -0.32403 -5.72107 -0.55151
C 1.07386 -5.24024 -0.17619
O 1.76823 -6.26983 0.54539
C 1.85421 -6.08558 1.88621
C 2.79976 -7.05549 2.55395
C 3.42264 -6.55366 3.86485
C 2.75793 -5.34468 4.49195
O 2.0784 -5.35689 5.50814
O -2.12857 -4.16693 1.63605
O 2.96649 -4.15872 3.86
O 0.98311 -5.48396 2.50244
C 2.43734 -2.95396 4.27305
C 2.09095 -8.33462 3.04626
C 3.10495 -9.47227 3.14103
C 3.93698 -9.00748 4.31888
C 3.12685 -7.77977 4.75645
O 1.80274 -8.09222 4.39962
H 3.56763 -7.35293 1.80291
H 4.51131 -6.34032 3.78919
H 1.23085 -8.63575 2.40894
H 2.53536 -10.38086 3.44254
H 3.67779 -9.69366 2.21495
H 3.91885 -9.80366 5.09572
H 4.98577 -8.72771 4.07921
H 3.30407 -7.56964 5.8345
O -2.78636 -6.69187 -0.76255
C -1.82561 -2.85877 1.31076
C -2.39318 -6.39539 3.80806
C -2.92439 -7.6118 4.56629
C -2.69407 -8.70693 3.54257
C -1.96256 -7.91626 2.45212
O -1.26112 -6.93049 3.16829
H -4.40368 -6.17275 3.04346
H -3.83657 -7.66227 1.29768
H -1.76799 -2.23732 2.22974
H -2.205 -5.55496 4.51172
H -2.23661 -7.78207 5.42577
H -3.9654 -7.52604 4.94526
H -2.02251 -9.47212 3.99153
H -3.61426 -9.19042 3.14894
H -1.35143 -8.59172 1.81405
H -2.59725 -2.44838 0.62497
H -0.84392 -2.82435 0.79922
H 2.76576 -2.15504 3.57718
H 2.79581 -2.70852 5.29555
H 1.3272 -3.00117 4.26448
H 1.65053 -4.98104 -1.08893
H 0.97975 -4.29945 0.41197
H -0.85561 -4.89599 -1.07769
H -0.21739 -6.58971 -1.24017
$end

$opt
CONSTRAINT
tors           1           2           3           4    +152.432
tors           3           4           5           6     +73.164
tors           4           5           6           7    +174.822
tors           5           6           7           8    +179.175
tors           6           7           8           9     +56.340
tors           7           8           9          10    -103.471
tors           8           9          10          11    -169.550
tors           9          10          11          12    +153.880
tors          11          12          13          14    +108.120
ENDCONSTRAINT
$end

$rem
JOBTYPE                   OPT
METHOD                    B3LYP
DFT_D                     d3_op
BASIS                     STO-3G
GEOM_OPT_MAX_CYCLES       100
GEOM_OPT_TOL_GRADIENT     300
GEOM_OPT_TOL_DISPLACEMENT 1200
GEOM_OPT_TOL_ENERGY       100
SYMMETRY                  False
THRESH                    12
SCF_CONVERGENCE           8
MAX_SUB_FILE_NUM          128
MEM_STATIC                400
MEM_TOTAL                 4000
$end
--------------------------------------------------------------

   15   -1510.1445349163      8.62E-09 Convergence criterion met
 Total energy in the final basis set = -1510.14453492
   13   -1510.2150059817      8.92E-09 Convergence criterion met
 Total energy in the final basis set = -1510.21500598
   14   -1510.2529144680      7.86E-09 Convergence criterion met
 Total energy in the final basis set = -1510.25291447
   14   -1510.2699366512      5.77E-09 Convergence criterion met
 Total energy in the final basis set = -1510.26993665
   14   -1510.2761299084      3.58E-09 Convergence criterion met
 Total energy in the final basis set = -1510.27612991
    2   -1510.2761299082      1.91E-09 Convergence criterion met
 Total energy in the final basis set = -1510.27612991
   14   -1510.2793657826      4.06E-09 Convergence criterion met
 Total energy in the final basis set = -1510.27936578
    2   -1510.2793657824      1.78E-09 Convergence criterion met
   11   -1510.2833218365      7.04E-09 Convergence criterion met
 Total energy in the final basis set = -1510.28332184
   11   -1510.2833674389      6.37E-09 Convergence criterion met
 Total energy in the final basis set = -1510.28336744
   11   -1510.2833875635      2.74E-09 Convergence criterion met
 Total energy in the final basis set = -1510.28338756
   10   -1510.2834068912      9.32E-09 Convergence criterion met
 Total energy in the final basis set = -1510.28340689
    9   -1510.2834160095      6.12E-09 Convergence criterion met
 Total energy in the final basis set = -1510.28341601
    9   -1510.2834207620      7.20E-09 Convergence criterion met
 Total energy in the final basis set = -1510.28342076

             Standard Nuclear Orientation (Angstroms)
    I     Atom           X                Y                Z
 ----------------------------------------------------------------
    1      O      -4.0529226416     0.9344203445     2.3979524860
    2      C      -3.4644537188     0.5466441834     1.3635156457
    3      C      -2.8829238907    -0.8915919780     1.1456419927
    4      C      -2.7709624350    -1.4642047292    -0.3298438292
    5      C      -2.8762142860    -0.4095834232    -1.4938038146
    6      O      -1.6594724637     0.3378979047    -1.5196222687
    7      C      -1.6084782727     1.2765847288    -2.6603422337
    8      C      -0.2275650639     1.9981027669    -2.4915377971
    9      O       0.8605103791     0.9910120563    -2.4528479151
   10      C       1.2999022226     0.8238805416    -1.0943732564
   11      C       2.6100452360    -0.0252901252    -1.0751599587
   12      C       3.5097149037     0.2704186164     0.1945504086
   13      C       2.8879168737     1.3116907245     1.1991094218
   14      O       2.4109473574     1.0810552899     2.3298059248
   15      O      -3.2501248631     1.3831672389     0.2247751378
   16      O       3.0774382414     2.6260882268     0.6493103643
   17      O       0.7616177008     1.3818264726    -0.1116320019
   18      C       2.4358275002     3.6276270236     1.5285294507
   19      C       2.3223212416    -1.5790213313    -0.8808480197
   20      C       3.6365801922    -2.3717975358    -1.2582782179
   21      C       4.5390875149    -2.0774300789    -0.0028587157
   22      C       3.5755156235    -1.1684467537     0.8571543520
   23      O       2.2314779010    -1.7331827174     0.5862040163
   24      H       3.1540481645     0.1605355986    -2.0183385958
   25      H       4.5070858850     0.6337170126    -0.1121444431
   26      H       1.3977700275    -1.9365615468    -1.3715216282
   27      H       3.4206098137    -3.4474446134    -1.3586535976
   28      H       4.0837120131    -2.0120203203    -2.1986842395
   29      H       4.7870791300    -3.0018077916     0.5426915478
   30      H       5.4752628826    -1.5588946743    -0.2642981367
   31      H       3.7708259118    -1.1537929048     1.9467172978
   32      O      -3.8118789729    -0.2725296952    -2.3113979186
   33      C      -3.8276530252     2.7252189298     0.4617035066
   34      C      -1.3687008986    -1.0667514232     1.6498405566
   35      C      -1.1993088868    -2.5700123001     2.0973493727
   36      C      -1.2538107784    -3.2972599588     0.7023408933
   37      C      -1.3036980784    -2.0651794455    -0.2873615160
   38      O      -0.5535370631    -1.0047217230     0.4208586458
   39      H      -3.5325723914    -1.5554305835     1.7446384420
   40      H      -3.5423757642    -2.2339557830    -0.5091140038
   41      H      -3.3490133894     3.2269484208     1.3273214181
   42      H      -1.0272010936    -0.3086168401     2.3810087671
   43      H      -0.2184258349    -2.7076727845     2.5799690164
   44      H      -1.9906824666    -2.9019194287     2.7883350885
   45      H      -0.3482071037    -3.8983945080     0.5238454523
   46      H      -2.1377254726    -3.9465125245     0.5946380255
   47      H      -0.8651179118    -2.2500291617    -1.2866273994
   48      H      -4.9207153827     2.6741108886     0.6430131616
   49      H      -3.6314336698     3.3053694380    -0.4587248091
   50      H       2.6328784278     4.6133830771     1.0682748923
   51      H       2.8576835265     3.6054084105     2.5542799486
   52      H       1.3410582913     3.4598538971     1.5940131298
   53      H      -0.0313707888     2.6682796998    -3.3539159742
   54      H      -0.2270611067     2.5675255054    -1.5381282363
   55      H      -2.4430766508     2.0116299518    -2.6255530109
   56      H      -1.6592090635     0.7332734728    -3.6296504235
 ----------------------------------------------------------------

    9   -1510.2834206014      5.93E-09 Convergence criterion met
 Total energy in the final basis set = -1510.28342060
 Final energy is   -1510.28342060143
 **  OPTIMIZATION CONVERGED  **

                    Orbital Energies (a.u.)
 --------------------------------------------------------------

 Alpha MOs
 -- Occupied --
-18.936 -18.930 -18.923 -18.916 -18.883 -18.882 -18.878 -18.868
-18.862 -18.858 -10.097 -10.096 -10.092 -10.087 -10.070 -10.068
-10.064 -10.057 -10.054 -10.052 -10.052 -10.052 -10.034 -10.032
-10.031 -10.029 -10.017 -10.016 -10.013 -10.011  -1.013  -1.009
 -0.999  -0.993  -0.965  -0.962  -0.935  -0.932  -0.925  -0.921
 -0.758  -0.755  -0.723  -0.717  -0.708  -0.698  -0.692  -0.660
 -0.652  -0.611  -0.593  -0.573  -0.542  -0.537  -0.534  -0.529
 -0.512  -0.504  -0.486  -0.475  -0.464  -0.455  -0.446  -0.429
 -0.427  -0.425  -0.417  -0.411  -0.408  -0.403  -0.401  -0.400
 -0.391  -0.373  -0.369  -0.365  -0.356  -0.347  -0.346  -0.343
 -0.337  -0.331  -0.330  -0.328  -0.327  -0.322  -0.320  -0.307
 -0.303  -0.301  -0.299  -0.293  -0.290  -0.288  -0.273  -0.270
 -0.265  -0.247  -0.242  -0.241  -0.240  -0.229  -0.224  -0.177
 -0.173  -0.165  -0.161  -0.152  -0.149  -0.141  -0.140  -0.138
 -0.132

          Ground-State Mulliken Net Atomic Charges

     Atom                 Charge (a.u.)
  ----------------------------------------
      1 O                    -0.216148
      2 C                     0.208064
      3 C                    -0.080620
      4 C                    -0.079351
      5 C                     0.215906
      6 O                    -0.166422
      7 C                    -0.043915
      8 C                    -0.051084
      9 O                    -0.172837
     10 C                     0.223851
     11 C                    -0.077398
     12 C                    -0.079787
     13 C                     0.216995
     14 O                    -0.215547
     15 O                    -0.165565
     16 O                    -0.178308
     17 O                    -0.199309
     18 C                    -0.128816
     19 C                     0.029000
     20 C                    -0.144189
     21 C                    -0.144694
     22 C                     0.024761
     23 O                    -0.183497
     24 H                     0.085042
     25 H                     0.082426
     26 H                     0.082784
     27 H                     0.075844
     28 H                     0.072701
     29 H                     0.076550
     30 H                     0.072408
     31 H                     0.087496
     32 O                    -0.221486
     33 C                    -0.125950
     34 C                     0.029797
     35 C                    -0.141358
     36 C                    -0.144897
     37 C                     0.027143
     38 O                    -0.178048
     39 H                     0.084599
     40 H                     0.082323
     41 H                     0.090956
     42 H                     0.090088
     43 H                     0.083765
     44 H                     0.072088
     45 H                     0.078544
     46 H                     0.071193
     47 H                     0.076637
     48 H                     0.090288
     49 H                     0.088040
     50 H                     0.084625
     51 H                     0.086032
     52 H                     0.091283
     53 H                     0.084822
     54 H                     0.102690
     55 H                     0.086231
     56 H                     0.084254
  ----------------------------------------
  Sum of atomic charges =    -0.000000

                    Cartesian Multipole Moments
 -----------------------------------------------------------------
    Charge (ESU x 10^10)
                -0.0000
    Dipole Moment (Debye)
         X       1.6309      Y       0.2056      Z      -1.9946
       Tot       2.5847
    Quadrupole Moments (Debye-Ang)
        XX    -158.5300     XY      -2.2823     YY    -144.3940
        XZ      -2.5691     YZ      -2.9160     ZZ    -164.1653

 Total job time:  61.41s(wall), 2924.98s(cpu)
        *  Thank you very much for using Q-Chem.  Have a nice day.  *
