 Q-Chem 5.0, Q-Chem, Inc., Pleasanton, CA (2017)
 Q-Chem 5.0.1 for Intel X86 EM64T Linux

User input:
--------------------------------------------------------------
$molecule
0  1
O -4.3512015169 -1.5835158128 1.195712336
C -3.5559194495 -0.858208021 0.5559578184
C -2.7094396599 -1.3320177187 -0.6741406741
C -2.2819055252 -0.2826467961 -1.7861316608
C -2.3952887264 1.240121264 -1.409578111
O -1.3958830154 1.5462989399 -0.4347899038
C -1.4354228658 2.9764056075 -0.0595055137
C -0.3133182669 3.1695402354 1.0214594246
O 1.0127895435 2.8336334223 0.4472946026
C 1.271611845 1.4368024886 0.665687004
C 2.7369010037 1.095832703 0.2504317428
C 3.1961035332 -0.3196983734 0.7913505449
C 2.1251433119 -1.074056961 1.6687796525
O 1.460193223 -2.081646755 1.3486299672
O -3.3321037149 0.517785138 0.8720848853
O 2.16045287 -0.5139947151 2.9939994866
O 0.4774325131 0.664282671 1.247631207
C 1.1103015961 -1.1466357705 3.8207215195
C 2.8567286464 0.8702826438 -1.3203636597
C 4.3878126273 0.8407810693 -1.7106108507
C 4.8062655476 -0.5848703297 -1.1920407246
C 3.4459736242 -1.0924402178 -0.5712289481
O 2.4236805182 -0.5338308754 -1.4877626507
H 3.3990505259 1.9109252445 0.5933280612
H 4.1226621906 -0.2248201002 1.3853875139
H 2.2266906898 1.5508216911 -1.9259065568
H 4.5081195188 0.927197606 -2.8022286724
H 4.9539749509 1.6531934865 -1.227513117
H 5.1190501847 -1.2388442206 -2.021580155
H 5.6167406464 -0.5467363851 -0.4468302426
H 3.3285455084 -2.1905340363 -0.4928281498
O -3.1895278502 2.0786145823 -1.8893835139
C -4.1638788313 0.9113359195 2.0318593426
C -1.2871277385 -1.963102906 -0.2854554989
C -0.9364038866 -3.0394032051 -1.3848664204
C -0.6332102438 -2.1095033907 -2.6180894826
C -0.7490797755 -0.6763151928 -1.9614224608
O -0.316029228 -0.8898394755 -0.5643942281
H -3.3256660185 -2.1197061211 -1.1451057942
H -2.8671629751 -0.4357652825 -2.7104254147
H -3.9159458313 0.3148734138 2.9333936825
H -1.1931554873 -2.3055457288 0.7631082222
H -0.0406401545 -3.6032126448 -1.0790804378
H -1.7605486714 -3.7469834448 -1.5690785892
H 0.3861284764 -2.2666543978 -3.004229008
H -1.3526135601 -2.2464496646 -3.4414698691
H -0.1290131574 0.1054320247 -2.4396917153
H -5.2462263814 0.7941125012 1.8191125659
H -3.9365495872 1.9769207409 2.2186073996
H 1.1870123414 -0.687680788 4.8236147841
H 1.2547332497 -2.2436673929 3.9028478216
H 0.1016105179 -0.9548338596 3.4001293731
H -0.2650793197 4.2335936548 1.3301590399
H -0.5282390196 2.5189308109 1.8950206902
H -2.4273116248 3.2526591418 0.3622538893
H -1.2401394688 3.6266072395 -0.9408634901
$end

$rem
JOBTYPE                   OPT
METHOD                    B3LYP
DFT_D                     d3_op
BASIS                     STO-3G
GEOM_OPT_MAX_CYCLES       100
GEOM_OPT_TOL_GRADIENT     300
GEOM_OPT_TOL_DISPLACEMENT 1200
GEOM_OPT_TOL_ENERGY       100
SYMMETRY                  False
THRESH                    12
SCF_CONVERGENCE           8
MAX_SUB_FILE_NUM          128
MEM_STATIC                400
MEM_TOTAL                 4000
$end
--------------------------------------------------------------

   16   -1510.2842756490      5.63E-09 Convergence criterion met
 Total energy in the final basis set = -1510.28427565
   14   -1510.2789097609      3.26E-09 Convergence criterion met
 Total energy in the final basis set = -1510.27890976
   14   -1510.2848466596      4.57E-09 Convergence criterion met
 Total energy in the final basis set = -1510.28484666
   15   -1510.2868293971      4.38E-09 Convergence criterion met
 Total energy in the final basis set = -1510.28682940
   14   -1510.2881456619      3.93E-09 Convergence criterion met
 Total energy in the final basis set = -1510.28814566
   14   -1510.2891348167      3.63E-09 Convergence criterion met
 Total energy in the final basis set = -1510.28913482
   14   -1510.2920212112      3.99E-09 Convergence criterion met
 Total energy in the final basis set = -1510.29202121
   14   -1510.2914440926      6.03E-09 Convergence criterion met
   13   -1510.2973833814      4.24E-09 Convergence criterion met
 Total energy in the final basis set = -1510.29738338
   12   -1510.2974477735      8.23E-09 Convergence criterion met
 Total energy in the final basis set = -1510.29744777
   11   -1510.2974521156      5.49E-09 Convergence criterion met
 Total energy in the final basis set = -1510.29745212
   11   -1510.2974337332      6.44E-09 Convergence criterion met
 Total energy in the final basis set = -1510.29743373
   11   -1510.2974254457      6.51E-09 Convergence criterion met
 Total energy in the final basis set = -1510.29742545
    9   -1510.2974237296      7.64E-09 Convergence criterion met
 Total energy in the final basis set = -1510.29742373

             Standard Nuclear Orientation (Angstroms)
    I     Atom           X                Y                Z
 ----------------------------------------------------------------
    1      O      -5.1527306177    -0.7718638517     0.2007977826
    2      C      -3.9087446397    -0.6543041192     0.2130159164
    3      C      -2.8402191385    -1.7769921093     0.0103199692
    4      C      -1.7593575990    -1.4544945041    -1.1138219994
    5      C      -2.0141379240    -0.0384256988    -1.7499905804
    6      O      -0.9284883217     0.8390520840    -1.4368153414
    7      C      -1.2606738246     2.2370819343    -1.7951245785
    8      C      -0.5864525923     3.1313407939    -0.6982932391
    9      O       0.8784165965     2.9154583999    -0.7561888522
   10      C       1.2591889754     1.8457185316     0.1222571279
   11      C       2.6879037234     1.3740302850    -0.3148120929
   12      C       3.2527722157     0.1686579494     0.5412280117
   13      C       2.3760685155    -0.2369748115     1.7843498807
   14      O       1.7361865946    -1.3000241691     1.9297874652
   15      O      -3.2245523426     0.5851849592     0.4564562083
   16      O       2.5373634204     0.7620674404     2.7990420209
   17      O       0.5476947152     1.3836637840     1.0394901718
   18      C       1.6268248205     0.4615447322     3.9266654957
   19      C       2.5854430638     0.7006061907    -1.7495814571
   20      C       4.0366770552     0.4803055375    -2.3271090984
   21      C       4.5176233671    -0.7643578402    -1.4908752981
   22      C       3.2788333031    -0.9887085995    -0.5417593173
   23      O       2.1297777804    -0.6720046488    -1.4276180767
   24      H       3.3708603605     2.2424228352    -0.3195452181
   25      H       4.2701581757     0.4031143669     0.9026534165
   26      H       1.8671390287     1.2001727234    -2.4282680769
   27      H       3.9927451007     0.2524429516    -3.4039481686
   28      H       4.6761439407     1.3652202630    -2.1794549233
   29      H       4.6729596737    -1.6448871150    -2.1345586458
   30      H       5.4440741031    -0.5683092417    -0.9279830687
   31      H       3.1649552152    -2.0051865230    -0.1180714000
   32      O      -3.0114816277     0.3070473834    -2.4222970997
   33      C      -4.2044053268     1.6845857877     0.5965124548
   34      C      -1.8987005027    -1.9234265954     1.2873478901
   35      C      -1.1883281506    -3.3289884537     1.2086914288
   36      C      -0.1396107094    -3.0632887196     0.0682475528
   37      C      -0.4158056337    -1.5464953343    -0.2770421783
   38      O      -0.8081298059    -0.9612690549     1.0278441629
   39      H      -3.3802009789    -2.7149196855    -0.2076290811
   40      H      -1.8045992782    -2.2068977266    -1.9227413040
   41      H      -4.9461922008     1.4742568342     1.3933018708
   42      H      -2.3976043744    -1.6984695615     2.2499633378
   43      H      -0.6923938528    -3.5597741534     2.1648762906
   44      H      -1.8935508980    -4.1407963828     0.9680562746
   45      H       0.8895745937    -3.1680449844     0.4461105550
   46      H      -0.2739940438    -3.7246774724    -0.8027808657
   47      H       0.4684504494    -1.0227630532    -0.7164145212
   48      H      -4.7496615604     1.8634420992    -0.3534390389
   49      H      -3.6194272347     2.5841162961     0.8624305900
   50      H       1.7713785687     1.2725941190     4.6638553742
   51      H       1.8643675956    -0.5149667898     4.3964760782
   52      H       0.5707674158     0.4451092394     3.5871824115
   53      H      -0.7713947657     4.2057402659    -0.9015165378
   54      H      -0.9745289948     2.8515312399     0.3045116402
   55      H      -2.3623411077     2.3784848019    -1.8253506264
   56      H      -0.8458935110     2.4843386660    -2.7970913814
 ----------------------------------------------------------------

    9   -1510.2974241459      4.55E-09 Convergence criterion met
 Total energy in the final basis set = -1510.29742415
 Final energy is   -1510.29742414589
 **  OPTIMIZATION CONVERGED  **

                    Orbital Energies (a.u.)
 --------------------------------------------------------------

 Alpha MOs
 -- Occupied --
-18.930 -18.927 -18.926 -18.917 -18.903 -18.886 -18.867 -18.866
-18.861 -18.860 -10.101 -10.091 -10.089 -10.088 -10.073 -10.069
-10.066 -10.063 -10.059 -10.050 -10.043 -10.041 -10.035 -10.025
-10.024 -10.024 -10.023 -10.022 -10.001  -9.995  -1.016  -1.006
 -0.999  -0.995  -0.980  -0.947  -0.940  -0.928  -0.926  -0.922
 -0.766  -0.747  -0.728  -0.716  -0.707  -0.701  -0.683  -0.653
 -0.651  -0.614  -0.591  -0.572  -0.548  -0.541  -0.529  -0.516
 -0.511  -0.501  -0.480  -0.479  -0.462  -0.455  -0.452  -0.435
 -0.427  -0.423  -0.415  -0.408  -0.407  -0.404  -0.398  -0.392
 -0.386  -0.374  -0.368  -0.362  -0.355  -0.351  -0.346  -0.343
 -0.340  -0.337  -0.333  -0.332  -0.326  -0.317  -0.314  -0.309
 -0.305  -0.300  -0.290  -0.287  -0.284  -0.280  -0.274  -0.271
 -0.262  -0.252  -0.246  -0.242  -0.241  -0.234  -0.210  -0.180
 -0.170  -0.164  -0.163  -0.156  -0.154  -0.148  -0.140  -0.140
 -0.120

          Ground-State Mulliken Net Atomic Charges

     Atom                 Charge (a.u.)
  ----------------------------------------
      1 O                    -0.212808
      2 C                     0.208658
      3 C                    -0.080498
      4 C                    -0.078645
      5 C                     0.214911
      6 O                    -0.172195
      7 C                    -0.049857
      8 C                    -0.050809
      9 O                    -0.178522
     10 C                     0.218892
     11 C                    -0.077258
     12 C                    -0.081925
     13 C                     0.217362
     14 O                    -0.211290
     15 O                    -0.168833
     16 O                    -0.175239
     17 O                    -0.189580
     18 C                    -0.128172
     19 C                     0.027542
     20 C                    -0.143823
     21 C                    -0.143144
     22 C                     0.025819
     23 O                    -0.186701
     24 H                     0.087705
     25 H                     0.084042
     26 H                     0.090071
     27 H                     0.079290
     28 H                     0.075494
     29 H                     0.079159
     30 H                     0.075154
     31 H                     0.090968
     32 O                    -0.226363
     33 C                    -0.129248
     34 C                     0.026587
     35 C                    -0.143314
     36 C                    -0.145121
     37 C                     0.010852
     38 O                    -0.182678
     39 H                     0.082728
     40 H                     0.081459
     41 H                     0.090021
     42 H                     0.076784
     43 H                     0.076812
     44 H                     0.068136
     45 H                     0.080296
     46 H                     0.065642
     47 H                     0.110302
     48 H                     0.088468
     49 H                     0.085769
     50 H                     0.084698
     51 H                     0.084235
     52 H                     0.099313
     53 H                     0.087440
     54 H                     0.103081
     55 H                     0.096505
     56 H                     0.081830
  ----------------------------------------
  Sum of atomic charges =    -0.000000

                    Cartesian Multipole Moments
 -----------------------------------------------------------------
    Charge (ESU x 10^10)
                -0.0000
    Dipole Moment (Debye)
         X       3.0822      Y       1.7083      Z      -0.2833
       Tot       3.5353
    Quadrupole Moments (Debye-Ang)
        XX    -160.7260     XY      -4.8777     YY    -150.2045
        XZ      -7.3894     YZ      -0.7486     ZZ    -156.9222

 Total job time:  120.46s(wall), 5738.22s(cpu)
        *  Thank you very much for using Q-Chem.  Have a nice day.  *
