 Q-Chem 5.0, Q-Chem, Inc., Pleasanton, CA (2017)
 Q-Chem 5.0.1 for Intel X86 EM64T Linux

User input:
--------------------------------------------------------------
$molecule
0  1
O -3.94934 -3.66094 2.70899
C -3.26408 -4.56952 2.26188
C -3.36658 -6.02376 2.66595
C -2.96254 -7.07421 1.61849
C -2.33296 -6.55084 0.34656
O -1.08764 -6.05781 0.61403
C -0.41501 -5.56546 -0.54977
C 0.95582 -5.01457 -0.17096
O 1.76215 -6.05776 0.39866
C 1.67088 -6.19618 1.74464
C 2.674 -7.17636 2.30467
C 2.84956 -7.12291 3.82933
C 1.77267 -6.3785 4.59278
O 0.92044 -6.89481 5.3011
O -2.13533 -4.14556 1.6396
O 1.90326 -5.02321 4.62813
O 0.91191 -5.49261 2.39254
C 1.06577 -4.17826 5.32676
C 2.28774 -8.64547 2.08191
C 3.54416 -9.51186 2.11865
C 3.89758 -9.4324 3.59016
C 2.69797 -8.63563 4.11949
O 1.63794 -9.01255 3.2724
H 3.64506 -6.94905 1.80777
H 3.83866 -6.74218 4.1672
H 1.72138 -8.81481 1.13996
H 3.2273 -10.55338 1.88369
H 4.35352 -9.2087 1.4201
H 3.89934 -10.46489 4.00493
H 4.85894 -8.92524 3.82262
H 2.55364 -8.84566 5.2024
O -2.80941 -6.70131 -0.77208
C -1.86414 -2.8269 1.31964
C -2.38451 -6.3993 3.79836
C -2.90806 -7.61832 4.55764
C -2.68303 -8.711 3.52993
C -1.96465 -7.91612 2.43412
O -1.25876 -6.93166 3.14641
H -4.40062 -6.17052 3.05248
H -3.85185 -7.66379 1.30183
H -1.81902 -2.20843 2.24141
H -2.19112 -5.56125 4.50304
H -2.21413 -7.78952 5.412
H -3.94663 -7.5344 4.94359
H -2.00326 -9.47357 3.97099
H -3.60478 -9.1984 3.14493
H -1.35676 -8.58786 1.78874
H -2.64782 -2.43177 0.6384
H -0.88853 -2.75819 0.80452
H 1.40001 -3.13105 5.17879
H 1.09948 -4.41534 6.41155
H 0.02453 -4.277 4.95228
H 1.44908 -4.674 -1.10583
H 0.89574 -4.11572 0.47882
H -1.00433 -4.7491 -1.02531
H -0.27116 -6.39129 -1.28324
$end

$opt
CONSTRAINT
tors           1           2           3           4    +151.857
tors           3           4           5           6     +69.712
tors           4           5           6           7    +178.869
tors           5           6           7           8    +179.175
tors           6           7           8           9     +61.148
tors           7           8           9          10     -90.178
tors           8           9          10          11    -172.235
tors           9          10          11          12    +165.875
tors          11          12          13          14    +108.120
ENDCONSTRAINT
$end

$rem
JOBTYPE                   OPT
METHOD                    B3LYP
DFT_D                     d3_op
BASIS                     STO-3G
GEOM_OPT_MAX_CYCLES       100
GEOM_OPT_TOL_GRADIENT     300
GEOM_OPT_TOL_DISPLACEMENT 1200
GEOM_OPT_TOL_ENERGY       100
SYMMETRY                  False
THRESH                    12
SCF_CONVERGENCE           8
MAX_SUB_FILE_NUM          128
MEM_STATIC                400
MEM_TOTAL                 4000
$end
--------------------------------------------------------------

   15   -1510.1492107215      6.70E-09 Convergence criterion met
 Total energy in the final basis set = -1510.14921072
   14   -1510.2205055841      3.19E-09 Convergence criterion met
 Total energy in the final basis set = -1510.22050558
   14   -1510.2576982138      6.80E-09 Convergence criterion met
 Total energy in the final basis set = -1510.25769821
   14   -1510.2717033778      7.85E-09 Convergence criterion met
 Total energy in the final basis set = -1510.27170338
   14   -1510.2786112122      6.65E-09 Convergence criterion met
 Total energy in the final basis set = -1510.27861121
   14   -1510.2786769966      8.20E-09 Convergence criterion met
 Total energy in the final basis set = -1510.27867700
   13   -1510.2816532572      9.26E-09 Convergence criterion met
 Total energy in the final basis set = -1510.28165326
   13   -1510.2825919334      4.60E-09 Convergence criterion met
   11   -1510.2842283151      3.96E-09 Convergence criterion met
 Total energy in the final basis set = -1510.28422832
   11   -1510.2842494442      3.76E-09 Convergence criterion met
 Total energy in the final basis set = -1510.28424944
    9   -1510.2842607422      9.79E-09 Convergence criterion met
 Total energy in the final basis set = -1510.28426074
   10   -1510.2842675968      4.44E-09 Convergence criterion met
 Total energy in the final basis set = -1510.28426760
    9   -1510.2842706421      5.10E-09 Convergence criterion met
 Total energy in the final basis set = -1510.28427064
    9   -1510.2842726905      4.97E-09 Convergence criterion met
 Total energy in the final basis set = -1510.28427269

             Standard Nuclear Orientation (Angstroms)
    I     Atom           X                Y                Z
 ----------------------------------------------------------------
    1      O      -4.3512015169    -1.5835158128     1.1957123360
    2      C      -3.5559194495    -0.8582080210     0.5559578184
    3      C      -2.7094396599    -1.3320177187    -0.6741406741
    4      C      -2.2819055252    -0.2826467961    -1.7861316608
    5      C      -2.3952887264     1.2401212640    -1.4095781110
    6      O      -1.3958830154     1.5462989399    -0.4347899038
    7      C      -1.4354228658     2.9764056075    -0.0595055137
    8      C      -0.3133182669     3.1695402354     1.0214594246
    9      O       1.0127895435     2.8336334223     0.4472946026
   10      C       1.2716118450     1.4368024886     0.6656870040
   11      C       2.7369010037     1.0958327030     0.2504317428
   12      C       3.1961035332    -0.3196983734     0.7913505449
   13      C       2.1251433119    -1.0740569610     1.6687796525
   14      O       1.4601932230    -2.0816467550     1.3486299672
   15      O      -3.3321037149     0.5177851380     0.8720848853
   16      O       2.1604528700    -0.5139947151     2.9939994866
   17      O       0.4774325131     0.6642826710     1.2476312070
   18      C       1.1103015961    -1.1466357705     3.8207215195
   19      C       2.8567286464     0.8702826438    -1.3203636597
   20      C       4.3878126273     0.8407810693    -1.7106108507
   21      C       4.8062655476    -0.5848703297    -1.1920407246
   22      C       3.4459736242    -1.0924402178    -0.5712289481
   23      O       2.4236805182    -0.5338308754    -1.4877626507
   24      H       3.3990505259     1.9109252445     0.5933280612
   25      H       4.1226621906    -0.2248201002     1.3853875139
   26      H       2.2266906898     1.5508216911    -1.9259065568
   27      H       4.5081195188     0.9271976060    -2.8022286724
   28      H       4.9539749509     1.6531934865    -1.2275131170
   29      H       5.1190501847    -1.2388442206    -2.0215801550
   30      H       5.6167406464    -0.5467363851    -0.4468302426
   31      H       3.3285455084    -2.1905340363    -0.4928281498
   32      O      -3.1895278502     2.0786145823    -1.8893835139
   33      C      -4.1638788313     0.9113359195     2.0318593426
   34      C      -1.2871277385    -1.9631029060    -0.2854554989
   35      C      -0.9364038866    -3.0394032051    -1.3848664204
   36      C      -0.6332102438    -2.1095033907    -2.6180894826
   37      C      -0.7490797755    -0.6763151928    -1.9614224608
   38      O      -0.3160292280    -0.8898394755    -0.5643942281
   39      H      -3.3256660185    -2.1197061211    -1.1451057942
   40      H      -2.8671629751    -0.4357652825    -2.7104254147
   41      H      -3.9159458313     0.3148734138     2.9333936825
   42      H      -1.1931554873    -2.3055457288     0.7631082222
   43      H      -0.0406401545    -3.6032126448    -1.0790804378
   44      H      -1.7605486714    -3.7469834448    -1.5690785892
   45      H       0.3861284764    -2.2666543978    -3.0042290080
   46      H      -1.3526135601    -2.2464496646    -3.4414698691
   47      H      -0.1290131574     0.1054320247    -2.4396917153
   48      H      -5.2462263814     0.7941125012     1.8191125659
   49      H      -3.9365495872     1.9769207409     2.2186073996
   50      H       1.1870123414    -0.6876807880     4.8236147841
   51      H       1.2547332497    -2.2436673929     3.9028478216
   52      H       0.1016105179    -0.9548338596     3.4001293731
   53      H      -0.2650793197     4.2335936548     1.3301590399
   54      H      -0.5282390196     2.5189308109     1.8950206902
   55      H      -2.4273116248     3.2526591418     0.3622538893
   56      H      -1.2401394688     3.6266072395    -0.9408634901
 ----------------------------------------------------------------

    9   -1510.2842701216      2.08E-09 Convergence criterion met
 Total energy in the final basis set = -1510.28427012
 Final energy is   -1510.28427012160
 **  OPTIMIZATION CONVERGED  **

                    Orbital Energies (a.u.)
 --------------------------------------------------------------

 Alpha MOs
 -- Occupied --
-18.934 -18.932 -18.923 -18.911 -18.883 -18.883 -18.877 -18.865
-18.861 -18.853 -10.097 -10.094 -10.090 -10.084 -10.073 -10.069
-10.063 -10.058 -10.052 -10.050 -10.048 -10.047 -10.035 -10.029
-10.028 -10.028 -10.018 -10.016 -10.007 -10.006  -1.014  -1.008
 -0.998  -0.990  -0.966  -0.957  -0.935  -0.930  -0.925  -0.916
 -0.758  -0.751  -0.723  -0.714  -0.706  -0.697  -0.689  -0.659
 -0.650  -0.611  -0.591  -0.573  -0.541  -0.534  -0.532  -0.525
 -0.509  -0.504  -0.485  -0.473  -0.460  -0.453  -0.448  -0.428
 -0.424  -0.423  -0.417  -0.410  -0.407  -0.401  -0.398  -0.397
 -0.390  -0.374  -0.367  -0.364  -0.354  -0.347  -0.343  -0.340
 -0.337  -0.330  -0.329  -0.327  -0.324  -0.321  -0.315  -0.307
 -0.302  -0.300  -0.297  -0.291  -0.288  -0.284  -0.271  -0.267
 -0.265  -0.249  -0.243  -0.239  -0.237  -0.230  -0.218  -0.175
 -0.172  -0.164  -0.157  -0.152  -0.146  -0.140  -0.138  -0.135
 -0.126

          Ground-State Mulliken Net Atomic Charges

     Atom                 Charge (a.u.)
  ----------------------------------------
      1 O                    -0.218284
      2 C                     0.206862
      3 C                    -0.080730
      4 C                    -0.079934
      5 C                     0.213877
      6 O                    -0.163685
      7 C                    -0.044641
      8 C                    -0.049328
      9 O                    -0.173527
     10 C                     0.218975
     11 C                    -0.077024
     12 C                    -0.079762
     13 C                     0.220150
     14 O                    -0.218912
     15 O                    -0.165658
     16 O                    -0.179149
     17 O                    -0.187129
     18 C                    -0.128517
     19 C                     0.026189
     20 C                    -0.144182
     21 C                    -0.144468
     22 C                     0.026076
     23 O                    -0.187233
     24 H                     0.085489
     25 H                     0.081882
     26 H                     0.081362
     27 H                     0.076532
     28 H                     0.072957
     29 H                     0.076415
     30 H                     0.072651
     31 H                     0.087739
     32 O                    -0.221618
     33 C                    -0.126512
     34 C                     0.030554
     35 C                    -0.141541
     36 C                    -0.144567
     37 C                     0.029712
     38 O                    -0.173430
     39 H                     0.084008
     40 H                     0.081876
     41 H                     0.089746
     42 H                     0.089262
     43 H                     0.082112
     44 H                     0.070430
     45 H                     0.081200
     46 H                     0.069447
     47 H                     0.080945
     48 H                     0.089785
     49 H                     0.086709
     50 H                     0.083739
     51 H                     0.084367
     52 H                     0.090309
     53 H                     0.087417
     54 H                     0.099839
     55 H                     0.086380
     56 H                     0.084836
  ----------------------------------------
  Sum of atomic charges =    -0.000000

                    Cartesian Multipole Moments
 -----------------------------------------------------------------
    Charge (ESU x 10^10)
                -0.0000
    Dipole Moment (Debye)
         X       1.8900      Y       1.6443      Z       0.5274
       Tot       2.5600
    Quadrupole Moments (Debye-Ang)
        XX    -156.6550     XY      -1.0641     YY    -156.3557
        XZ      -4.3255     YZ       7.0975     ZZ    -153.3972

 Total job time:  64.70s(wall), 3081.70s(cpu)
        *  Thank you very much for using Q-Chem.  Have a nice day.  *
