 Q-Chem 5.0, Q-Chem, Inc., Pleasanton, CA (2017)
 Q-Chem 5.0.1 for Intel X86 EM64T Linux

User input:
--------------------------------------------------------------
$molecule
0  1
O -3.94934 -3.66094 2.70899
C -3.26408 -4.56952 2.26188
C -3.36658 -6.02376 2.66595
C -2.94965 -7.07382 1.62317
C -2.30923 -6.54961 0.357
O -1.00239 -6.23198 0.59517
C -0.27666 -5.90446 -0.59449
C 1.16508 -5.54652 -0.24892
O 1.74696 -6.58312 0.55714
C 1.71198 -6.36965 1.89592
C 2.55278 -7.35592 2.67115
C 2.8364 -6.96046 4.12767
C 1.96811 -5.85458 4.69318
O 1.17107 -5.97879 5.6118
O -2.12074 -4.18957 1.63354
O 2.26022 -4.59566 4.26342
O 0.91914 -5.57765 2.38427
C 1.6296 -3.45366 4.71247
C 1.88026 -8.72675 2.85681
C 2.95201 -9.79039 3.08118
C 3.44009 -9.41054 4.46499
C 2.44801 -8.29168 4.80933
O 1.27293 -8.65173 4.12256
H 3.50661 -7.47486 2.10747
H 3.89739 -6.68265 4.31282
H 1.21857 -9.01217 2.01009
H 2.42417 -10.76909 3.14539
H 3.74105 -9.85182 2.30112
H 3.30328 -10.28706 5.13647
H 4.48972 -9.04829 4.51646
H 2.35667 -8.19214 5.91339
O -2.81059 -6.66424 -0.75526
C -1.78478 -2.89085 1.31037
C -2.40066 -6.39832 3.81302
C -2.94126 -7.61068 4.57061
C -2.71541 -8.70781 3.54793
C -1.97346 -7.92298 2.46018
O -1.26998 -6.94132 3.17921
H -4.40572 -6.17117 3.03858
H -3.838 -7.65939 1.29623
H -1.71117 -2.27301 2.23062
H -2.20992 -5.55774 4.51586
H -2.25594 -7.78417 5.4315
H -3.98246 -7.51871 4.94756
H -2.05191 -9.4782 4.00006
H -3.63769 -9.18379 3.15015
H -1.36353 -8.60392 1.82701
H -2.54517 -2.45964 0.62492
H -0.80021 -2.88726 0.79977
H 2.05969 -2.57285 4.19329
H 1.78359 -3.33529 5.80628
H 0.54218 -3.50489 4.48887
H 1.75963 -5.41971 -1.17807
H 1.18224 -4.55664 0.26298
H -0.74323 -5.05007 -1.13524
H -0.25368 -6.79585 -1.2618
$end

$opt
CONSTRAINT
tors           1           2           3           4    +152.432
tors           3           4           5           6     +78.413
tors           4           5           6           7    +171.827
tors           5           6           7           8    +179.346
tors           6           7           8           9     +51.983
tors           7           8           9          10     -96.068
tors           8           9          10          11    -169.465
tors           9          10          11          12    +165.309
tors          11          12          13          14    +115.296
ENDCONSTRAINT
$end

$rem
JOBTYPE                   OPT
METHOD                    B3LYP
DFT_D                     d3_op
BASIS                     STO-3G
GEOM_OPT_MAX_CYCLES       100
GEOM_OPT_TOL_GRADIENT     300
GEOM_OPT_TOL_DISPLACEMENT 1200
GEOM_OPT_TOL_ENERGY       100
SYMMETRY                  False
THRESH                    12
SCF_CONVERGENCE           8
MAX_SUB_FILE_NUM          128
MEM_STATIC                400
MEM_TOTAL                 4000
$end
--------------------------------------------------------------

   15   -1510.1502259503      6.49E-09 Convergence criterion met
 Total energy in the final basis set = -1510.15022595
   14   -1510.2202625762      5.61E-09 Convergence criterion met
 Total energy in the final basis set = -1510.22026258
   14   -1510.2574066799      5.95E-09 Convergence criterion met
 Total energy in the final basis set = -1510.25740668
   14   -1510.2735172712      4.21E-09 Convergence criterion met
 Total energy in the final basis set = -1510.27351727
   14   -1510.2783324235      5.25E-09 Convergence criterion met
 Total energy in the final basis set = -1510.27833242
   14   -1510.2799773975      5.50E-09 Convergence criterion met
 Total energy in the final basis set = -1510.27997740
    2   -1510.2799773974      1.92E-09 Convergence criterion met
 Total energy in the final basis set = -1510.27997740
   13   -1510.2817007263      4.12E-09 Convergence criterion met
   11   -1510.2846729318      7.41E-09 Convergence criterion met
 Total energy in the final basis set = -1510.28467293
   11   -1510.2847045378      8.92E-09 Convergence criterion met
 Total energy in the final basis set = -1510.28470454
   11   -1510.2847335673      3.67E-09 Convergence criterion met
 Total energy in the final basis set = -1510.28473357
   10   -1510.2847494781      8.57E-09 Convergence criterion met
 Total energy in the final basis set = -1510.28474948
   10   -1510.2847557729      9.47E-09 Convergence criterion met
 Total energy in the final basis set = -1510.28475577
    9   -1510.2847535241      3.93E-09 Convergence criterion met
 Total energy in the final basis set = -1510.28475352

             Standard Nuclear Orientation (Angstroms)
    I     Atom           X                Y                Z
 ----------------------------------------------------------------
    1      O      -4.1647469400     0.3124121057     2.3141156707
    2      C      -3.4717450389     0.0705640470     1.3003749856
    3      C      -2.6978747219    -1.2629744717     1.0298102359
    4      C      -2.4340658908    -1.7007524936    -0.4748302705
    5      C      -2.6727967596    -0.5926663027    -1.5683557822
    6      O      -1.5433952648     0.2861494867    -1.5770388519
    7      C      -1.6097172472     1.2343478642    -2.7094871188
    8      C      -0.3265310580     2.1276460115    -2.5699571244
    9      O       0.8865811836     1.2837174596    -2.4475682969
   10      C       1.2341419632     1.1102688308    -1.0675638837
   11      C       2.6506953568     0.4526823661    -0.9844720739
   12      C       3.2777945028     0.5580298922     0.4636956224
   13      C       2.3978680850     1.3532593814     1.5005356831
   14      O       1.8569002673     0.9020309582     2.5318973206
   15      O      -3.2792674153     1.0075384381     0.2386349530
   16      O       2.5132361203     2.7538875348     1.1891283955
   17      O       0.5429026029     1.5212467364    -0.1092188611
   18      C       1.6497375036     3.5359348653     2.0991409866
   19      C       2.5939908453    -1.1274860941    -1.1663189458
   20      C       4.0685715413    -1.6542905865    -1.3931034132
   21      C       4.6518472037    -1.5658416338     0.0665278634
   22      C       3.4154452746    -0.9725047397     0.8498755051
   23      O       2.2566356596    -1.6158087007     0.1875265084
   24      H       3.2934087258     0.9181591008    -1.7528210585
   25      H       4.2649038619     1.0521850905     0.4154957239
   26      H       1.8491053743    -1.4749989692    -1.9080560355
   27      H       4.0535028170    -2.6922472362    -1.7620686053
   28      H       4.6246384666    -1.0319887649    -2.1123463207
   29      H       4.9142108801    -2.5622170673     0.4563601345
   30      H       5.5384102287    -0.9153671829     0.1312937182
   31      H       3.3909285621    -1.1664302827     1.9396256655
   32      O      -3.6288206979    -0.5170129980    -2.3705254611
   33      C      -4.0240366750     2.2560773443     0.5136876075
   34      C      -1.2046005981    -1.2530111435     1.6099813006
   35      C      -0.8184491661    -2.7469864143     1.9389193474
   36      C      -0.6574793550    -3.3342956747     0.4882273221
   37      C      -0.8849654266    -2.0452189810    -0.3956977962
   38      O      -0.3632763779    -0.9419513956     0.4405162647
   39      H      -3.2798597139    -2.0485254935     1.5449094585
   40      H      -3.0565273923    -2.5731352146    -0.7424654595
   41      H      -3.6682392949     2.7451104470     1.4432969146
   42      H      -1.0230169605    -0.5228330989     2.4223478629
   43      H       0.1347355557    -2.7764261557     2.4905419464
   44      H      -1.5912524216    -3.2634543908     2.5305361889
   45      H       0.3579086197    -3.7276772620     0.3234963322
   46      H      -1.3910394182    -4.1254880553     0.2641934943
   47      H      -0.3766864330    -2.0605111805    -1.3780353461
   48      H      -5.1137289361     2.0706248352     0.6063559232
   49      H      -3.8325446918     2.9181425836    -0.3506507153
   50      H       1.8510997055     4.6006632842     1.8795146642
   51      H       1.8758493417     3.3252034291     3.1643651971
   52      H       0.5776908692     3.3157767405     1.9156634274
   53      H      -0.1950158961     2.7521616672    -3.4773645050
   54      H      -0.4260943383     2.7688959583    -1.6689508080
   55      H      -2.5258432039     1.8640191572    -2.6647671521
   56      H      -1.6086233665     0.6913778698    -3.6803238447
 ----------------------------------------------------------------

    9   -1510.2847541243      4.29E-09 Convergence criterion met
 Total energy in the final basis set = -1510.28475412
 Final energy is   -1510.28475412429
 **  OPTIMIZATION CONVERGED  **

                    Orbital Energies (a.u.)
 --------------------------------------------------------------

 Alpha MOs
 -- Occupied --
-18.935 -18.932 -18.922 -18.912 -18.883 -18.881 -18.878 -18.867
-18.861 -18.855 -10.098 -10.094 -10.091 -10.085 -10.073 -10.070
-10.063 -10.057 -10.052 -10.050 -10.050 -10.049 -10.035 -10.030
-10.029 -10.028 -10.018 -10.016 -10.009 -10.008  -1.014  -1.008
 -0.998  -0.991  -0.966  -0.959  -0.936  -0.931  -0.924  -0.918
 -0.759  -0.753  -0.723  -0.715  -0.708  -0.698  -0.691  -0.659
 -0.650  -0.611  -0.592  -0.573  -0.542  -0.535  -0.533  -0.526
 -0.511  -0.503  -0.484  -0.476  -0.462  -0.453  -0.447  -0.428
 -0.425  -0.425  -0.418  -0.410  -0.407  -0.402  -0.399  -0.398
 -0.389  -0.375  -0.368  -0.364  -0.355  -0.347  -0.345  -0.341
 -0.336  -0.330  -0.330  -0.328  -0.324  -0.321  -0.318  -0.307
 -0.302  -0.300  -0.298  -0.293  -0.289  -0.287  -0.272  -0.268
 -0.266  -0.247  -0.242  -0.239  -0.238  -0.229  -0.220  -0.176
 -0.174  -0.165  -0.158  -0.152  -0.148  -0.141  -0.139  -0.136
 -0.126

          Ground-State Mulliken Net Atomic Charges

     Atom                 Charge (a.u.)
  ----------------------------------------
      1 O                    -0.216558
      2 C                     0.208314
      3 C                    -0.080514
      4 C                    -0.079820
      5 C                     0.216073
      6 O                    -0.166241
      7 C                    -0.044737
      8 C                    -0.048602
      9 O                    -0.174291
     10 C                     0.224883
     11 C                    -0.076608
     12 C                    -0.079924
     13 C                     0.219164
     14 O                    -0.219351
     15 O                    -0.165040
     16 O                    -0.179195
     17 O                    -0.193130
     18 C                    -0.128998
     19 C                     0.027705
     20 C                    -0.144268
     21 C                    -0.144282
     22 C                     0.025128
     23 O                    -0.184831
     24 H                     0.085187
     25 H                     0.082120
     26 H                     0.081084
     27 H                     0.076008
     28 H                     0.072687
     29 H                     0.076273
     30 H                     0.072476
     31 H                     0.088189
     32 O                    -0.222535
     33 C                    -0.125522
     34 C                     0.029194
     35 C                    -0.141144
     36 C                    -0.144590
     37 C                     0.029557
     38 O                    -0.175948
     39 H                     0.084021
     40 H                     0.082212
     41 H                     0.090654
     42 H                     0.089310
     43 H                     0.081505
     44 H                     0.071071
     45 H                     0.081910
     46 H                     0.069770
     47 H                     0.077587
     48 H                     0.090123
     49 H                     0.088200
     50 H                     0.083778
     51 H                     0.086599
     52 H                     0.089798
     53 H                     0.087063
     54 H                     0.098195
     55 H                     0.086871
     56 H                     0.083420
  ----------------------------------------
  Sum of atomic charges =     0.000000

                    Cartesian Multipole Moments
 -----------------------------------------------------------------
    Charge (ESU x 10^10)
                -0.0000
    Dipole Moment (Debye)
         X       1.9109      Y       0.6950      Z      -1.9223
       Tot       2.7981
    Quadrupole Moments (Debye-Ang)
        XX    -158.3935     XY      -3.9965     YY    -145.9855
        XZ      -1.2473     YZ      -2.4203     ZZ    -162.4380

 Total job time:  61.13s(wall), 2908.93s(cpu)
        *  Thank you very much for using Q-Chem.  Have a nice day.  *
