 Q-Chem 5.0, Q-Chem, Inc., Pleasanton, CA (2017)
 Q-Chem 5.0.1 for Intel X86 EM64T Linux

User input:
--------------------------------------------------------------
$molecule
0  1
O -4.16474694 0.3124121057 2.3141156707
C -3.4717450389 0.070564047 1.3003749856
C -2.6978747219 -1.2629744717 1.0298102359
C -2.4340658908 -1.7007524936 -0.4748302705
C -2.6727967596 -0.5926663027 -1.5683557822
O -1.5433952648 0.2861494867 -1.5770388519
C -1.6097172472 1.2343478642 -2.7094871188
C -0.326531058 2.1276460115 -2.5699571244
O 0.8865811836 1.2837174596 -2.4475682969
C 1.2341419632 1.1102688308 -1.0675638837
C 2.6506953568 0.4526823661 -0.9844720739
C 3.2777945028 0.5580298922 0.4636956224
C 2.397868085 1.3532593814 1.5005356831
O 1.8569002673 0.9020309582 2.5318973206
O -3.2792674153 1.0075384381 0.238634953
O 2.5132361203 2.7538875348 1.1891283955
O 0.5429026029 1.5212467364 -0.1092188611
C 1.6497375036 3.5359348653 2.0991409866
C 2.5939908453 -1.1274860941 -1.1663189458
C 4.0685715413 -1.6542905865 -1.3931034132
C 4.6518472037 -1.5658416338 0.0665278634
C 3.4154452746 -0.9725047397 0.8498755051
O 2.2566356596 -1.6158087007 0.1875265084
H 3.2934087258 0.9181591008 -1.7528210585
H 4.2649038619 1.0521850905 0.4154957239
H 1.8491053743 -1.4749989692 -1.9080560355
H 4.053502817 -2.6922472362 -1.7620686053
H 4.6246384666 -1.0319887649 -2.1123463207
H 4.9142108801 -2.5622170673 0.4563601345
H 5.5384102287 -0.9153671829 0.1312937182
H 3.3909285621 -1.1664302827 1.9396256655
O -3.6288206979 -0.517012998 -2.3705254611
C -4.024036675 2.2560773443 0.5136876075
C -1.2046005981 -1.2530111435 1.6099813006
C -0.8184491661 -2.7469864143 1.9389193474
C -0.657479355 -3.3342956747 0.4882273221
C -0.8849654266 -2.045218981 -0.3956977962
O -0.3632763779 -0.9419513956 0.4405162647
H -3.2798597139 -2.0485254935 1.5449094585
H -3.0565273923 -2.5731352146 -0.7424654595
H -3.6682392949 2.745110447 1.4432969146
H -1.0230169605 -0.5228330989 2.4223478629
H 0.1347355557 -2.7764261557 2.4905419464
H -1.5912524216 -3.2634543908 2.5305361889
H 0.3579086197 -3.727677262 0.3234963322
H -1.3910394182 -4.1254880553 0.2641934943
H -0.376686433 -2.0605111805 -1.3780353461
H -5.1137289361 2.0706248352 0.6063559232
H -3.8325446918 2.9181425836 -0.3506507153
H 1.8510997055 4.6006632842 1.8795146642
H 1.8758493417 3.3252034291 3.1643651971
H 0.5776908692 3.3157767405 1.9156634274
H -0.1950158961 2.7521616672 -3.477364505
H -0.4260943383 2.7688959583 -1.668950808
H -2.5258432039 1.8640191572 -2.6647671521
H -1.6086233665 0.6913778698 -3.6803238447
$end

$rem
JOBTYPE                   OPT
METHOD                    B3LYP
DFT_D                     d3_op
BASIS                     STO-3G
GEOM_OPT_MAX_CYCLES       100
GEOM_OPT_TOL_GRADIENT     300
GEOM_OPT_TOL_DISPLACEMENT 1200
GEOM_OPT_TOL_ENERGY       100
SYMMETRY                  False
THRESH                    12
SCF_CONVERGENCE           8
MAX_SUB_FILE_NUM          128
MEM_STATIC                400
MEM_TOTAL                 4000
$end
--------------------------------------------------------------

   16   -1510.2847747034      5.36E-09 Convergence criterion met
 Total energy in the final basis set = -1510.28477470
   14   -1510.2832807441      4.58E-09 Convergence criterion met
 Total energy in the final basis set = -1510.28328074
   13   -1510.2869085732      9.50E-09 Convergence criterion met
 Total energy in the final basis set = -1510.28690857
   15   -1510.2877447965      3.77E-09 Convergence criterion met
 Total energy in the final basis set = -1510.28774480
   15   -1510.2853553188      2.49E-09 Convergence criterion met
 Total energy in the final basis set = -1510.28535532
   14   -1510.2888217976      4.21E-09 Convergence criterion met
 Total energy in the final basis set = -1510.28882180
   14   -1510.2884385392      6.15E-09 Convergence criterion met
 Total energy in the final basis set = -1510.28843854
   13   -1510.2898043890      4.20E-09 Convergence criterion met
   12   -1510.3001127667      3.97E-09 Convergence criterion met
 Total energy in the final basis set = -1510.30011277
   12   -1510.3001416329      2.57E-09 Convergence criterion met
 Total energy in the final basis set = -1510.30014163
   11   -1510.3001481185      7.07E-09 Convergence criterion met
 Total energy in the final basis set = -1510.30014812
   10   -1510.3001526904      3.93E-09 Convergence criterion met
 Total energy in the final basis set = -1510.30015269
   10   -1510.3001456490      7.58E-09 Convergence criterion met
 Total energy in the final basis set = -1510.30014565
    9   -1510.3001451347      5.84E-09 Convergence criterion met
 Total energy in the final basis set = -1510.30014513

             Standard Nuclear Orientation (Angstroms)
    I     Atom           X                Y                Z
 ----------------------------------------------------------------
    1      O      -4.5722589205     0.6405289836     1.2005153381
    2      C      -3.3530082398     0.3698476558     1.2578775272
    3      C      -2.7210460865    -1.0717237788     1.2389331715
    4      C      -1.8973374200    -1.4147559683    -0.0726710466
    5      C      -2.0285544438    -0.2931537553    -1.1538794410
    6      O      -1.2121696640    -0.6073593104    -2.2904184171
    7      C      -1.3809847014     0.4329423800    -3.3358530869
    8      C      -0.6835857559     1.7957122377    -2.9644995925
    9      O       0.7689327410     1.6096713961    -2.7459156116
   10      C       1.0173049021     1.1707437399    -1.4011144355
   11      C       2.5193720501     0.7382812611    -1.3365915043
   12      C       3.0947744889     0.4630012201     0.1127881870
   13      C       2.1755418192     0.8225304064     1.3395076247
   14      O       1.9270551650     0.0517467787     2.2918006768
   15      O      -2.3281551185     1.3508453250     1.5094682850
   16      O       1.7317324502     2.1767576948     1.2551675920
   17      O       0.1421081138     1.0890003375    -0.5142225621
   18      C       0.6405615353     2.3879534272     2.2388269672
   19      C       2.6213838937    -0.7172011214    -1.9740890268
   20      C       4.1376584065    -1.0787914415    -2.2205657351
   21      C       4.6173555706    -1.4172359560    -0.7596962929
   22      C       3.3118625630    -1.1079188706     0.0632148997
   23      O       2.2303045373    -1.5841416696    -0.8382593965
   24      H       3.1263836853     1.4722931208    -1.8952030512
   25      H       4.0576320741     0.9922992527     0.2371546355
   26      H       1.9475977421    -0.8794689914    -2.8379651281
   27      H       4.2228643587    -1.9503758576    -2.8886884946
   28      H       4.6911639431    -0.2366003357    -2.6657551437
   29      H       4.8921278185    -2.4797405159    -0.6629261689
   30      H       5.4702064895    -0.7995845478    -0.4362999011
   31      H       3.2227569082    -1.5905604307     1.0562491169
   32      O      -2.7912815582     0.6996137920    -1.1095522279
   33      C      -2.9292087364     2.7007992163     1.4432827083
   34      C      -1.5942648810    -1.2343761258     2.3425066278
   35      C      -1.2704757505    -2.7704371926     2.5166356329
   36      C      -0.4173891503    -3.0468251421     1.2247204746
   37      C      -0.4347306147    -1.6295316864     0.5253115886
   38      O      -0.3953481517    -0.6923871855     1.6697941514
   39      H      -3.5497050601    -1.7877094330     1.3804386153
   40      H      -2.2619809376    -2.3528202338    -0.5315301663
   41      H      -3.7524030063     2.8216547088     2.1768436310
   42      H      -1.7919597783    -0.6847834450     3.2827749712
   43      H      -0.6848529951    -2.9389694686     3.4342782890
   44      H      -2.1847915988    -3.3833773620     2.5626123002
   45      H       0.6179702593    -3.3255537335     1.4772598234
   46      H      -0.8494984840    -3.8347327164     0.5873742433
   47      H       0.4314355569    -1.4550273130    -0.1583834942
   48      H      -3.3272534726     2.9096180140     0.4292201395
   49      H      -2.1171725796     3.4127907315     1.6756546901
   50      H       0.3706623194     3.4572978866     2.1645531410
   51      H       0.9734818580     2.1598378590     3.2714334540
   52      H      -0.2382380084     1.7502499232     1.9867510684
   53      H      -0.7848557640     2.4982482893    -3.8162452430
   54      H      -1.1706105196     2.2221511655    -2.0620977024
   55      H      -2.4583045505     0.6287418124    -3.5294452528
   56      H      -0.9149015640     0.0052746773    -4.2463167598
 ----------------------------------------------------------------

   10   -1510.3001448583      7.74E-09 Convergence criterion met
 Total energy in the final basis set = -1510.30014486
 Final energy is   -1510.30014485829
 **  OPTIMIZATION CONVERGED  **

                    Orbital Energies (a.u.)
 --------------------------------------------------------------

 Alpha MOs
 -- Occupied --
-18.935 -18.933 -18.913 -18.913 -18.899 -18.882 -18.878 -18.871
-18.860 -18.849 -10.102 -10.102 -10.084 -10.081 -10.077 -10.073
-10.066 -10.059 -10.047 -10.045 -10.040 -10.036 -10.033 -10.033
-10.028 -10.025 -10.023 -10.022 -10.006 -10.003  -1.021  -1.008
 -0.992  -0.988  -0.977  -0.953  -0.942  -0.936  -0.918  -0.914
 -0.764  -0.749  -0.728  -0.716  -0.708  -0.702  -0.687  -0.645
 -0.642  -0.619  -0.593  -0.575  -0.545  -0.539  -0.530  -0.523
 -0.512  -0.498  -0.481  -0.470  -0.457  -0.452  -0.448  -0.435
 -0.433  -0.423  -0.418  -0.415  -0.401  -0.399  -0.396  -0.390
 -0.387  -0.378  -0.367  -0.359  -0.354  -0.351  -0.347  -0.342
 -0.338  -0.335  -0.329  -0.324  -0.322  -0.318  -0.313  -0.311
 -0.305  -0.302  -0.299  -0.291  -0.288  -0.276  -0.270  -0.268
 -0.265  -0.253  -0.252  -0.240  -0.237  -0.232  -0.215  -0.194
 -0.167  -0.161  -0.156  -0.154  -0.151  -0.148  -0.136  -0.131
 -0.125

          Ground-State Mulliken Net Atomic Charges

     Atom                 Charge (a.u.)
  ----------------------------------------
      1 O                    -0.223332
      2 C                     0.214572
      3 C                    -0.081152
      4 C                    -0.078666
      5 C                     0.222556
      6 O                    -0.173498
      7 C                    -0.051315
      8 C                    -0.055100
      9 O                    -0.176626
     10 C                     0.216187
     11 C                    -0.077718
     12 C                    -0.081572
     13 C                     0.215583
     14 O                    -0.205529
     15 O                    -0.170229
     16 O                    -0.175540
     17 O                    -0.201388
     18 C                    -0.135410
     19 C                     0.025977
     20 C                    -0.143756
     21 C                    -0.143366
     22 C                     0.024308
     23 O                    -0.189401
     24 H                     0.087753
     25 H                     0.082798
     26 H                     0.086601
     27 H                     0.078959
     28 H                     0.075356
     29 H                     0.078898
     30 H                     0.075250
     31 H                     0.095316
     32 O                    -0.212533
     33 C                    -0.127620
     34 C                     0.026730
     35 C                    -0.144918
     36 C                    -0.143353
     37 C                     0.015726
     38 O                    -0.182515
     39 H                     0.080629
     40 H                     0.083247
     41 H                     0.085132
     42 H                     0.080930
     43 H                     0.076147
     44 H                     0.069658
     45 H                     0.076297
     46 H                     0.068474
     47 H                     0.106070
     48 H                     0.089141
     49 H                     0.084314
     50 H                     0.077216
     51 H                     0.082926
     52 H                     0.116857
     53 H                     0.089509
     54 H                     0.104094
     55 H                     0.092516
     56 H                     0.088808
  ----------------------------------------
  Sum of atomic charges =    -0.000000

                    Cartesian Multipole Moments
 -----------------------------------------------------------------
    Charge (ESU x 10^10)
                -0.0000
    Dipole Moment (Debye)
         X       2.3377      Y      -0.0942      Z      -2.5457
       Tot       3.4575
    Quadrupole Moments (Debye-Ang)
        XX    -160.7140     XY       1.4554     YY    -153.1878
        XZ      -1.5493     YZ      -0.7850     ZZ    -151.4753

 Total job time:  223.14s(wall), 10642.90s(cpu)
        *  Thank you very much for using Q-Chem.  Have a nice day.  *
