 Q-Chem 5.0, Q-Chem, Inc., Pleasanton, CA (2017)
 Q-Chem 5.0.1 for Intel X86 EM64T Linux

User input:
--------------------------------------------------------------
$molecule
0  1
O -3.94934 -3.66094 2.70899
C -3.26408 -4.56952 2.26188
C -3.36658 -6.02376 2.66595
C -2.85763 -7.06987 1.66072
C -2.14046 -6.5386 0.43945
O -0.87869 -6.14079 0.77874
C -0.12149 -5.6582 -0.33615
C 1.26557 -5.21884 0.12118
O 1.77532 -6.1431 1.09523
C 1.7878 -5.6939 2.37476
C 2.42131 -6.67181 3.33549
C 2.90476 -6.05901 4.658
C 2.37785 -4.67416 4.9762
O 1.63012 -4.39582 5.90248
O -2.12183 -4.16481 1.64892
O 2.85708 -3.66387 4.20148
O 0.94132 -4.89247 2.75542
C 2.51126 -2.33719 4.3514
C 1.51311 -7.79673 3.84975
C 2.36066 -8.98738 4.29746
C 2.98807 -8.43141 5.55746
C 2.28065 -7.07478 5.64002
O 1.01409 -7.31316 5.07181
H 3.26841 -7.14076 2.78362
H 4.01296 -6.01331 4.74166
H 0.78243 -8.13841 3.09408
H 1.65413 -9.80049 4.58113
H 3.07812 -9.37543 3.54273
H 2.69431 -9.08133 6.41156
H 4.09314 -8.31524 5.52781
H 2.28491 -6.71033 6.69089
O -2.55126 -6.67023 -0.70733
C -1.81054 -2.85569 1.33578
C -2.48052 -6.36321 3.87927
C -3.03734 -7.58653 4.60645
C -2.71223 -8.68206 3.61018
C -1.92265 -7.88276 2.56773
O -1.29806 -6.87149 3.32188
H -4.42777 -6.19039 2.96003
H -3.70788 -7.67787 1.27821
H -1.75973 -2.24091 2.25967
H -2.36182 -5.51355 4.58705
H -2.40885 -7.73632 5.51385
H -4.10449 -7.52077 4.90895
H -2.05691 -9.42895 4.11108
H -3.59168 -9.18829 3.15664
H -1.25808 -8.55174 1.97854
H -2.5734 -2.43745 0.64489
H -0.82273 -2.82248 0.83541
H 3.04502 -1.73403 3.58872
H 2.80241 -1.97699 5.36121
H 1.41702 -2.20905 4.20696
H 1.96303 -5.12009 -0.73718
H 1.16241 -4.19191 0.53942
H -0.62728 -4.827 -0.87764
H 0.02558 -6.51073 -1.03751
$end

$opt
CONSTRAINT
tors           1           2           3           4    +156.600
tors           3           4           5           6     +75.818
tors           4           5           6           7    +178.374
tors           5           6           7           8    +179.346
tors           6           7           8           9     +40.127
tors           7           8           9          10    -106.438
tors           8           9          10          11    -176.029
tors           9          10          11          12    +159.719
tors          11          12          13          14    +113.981
ENDCONSTRAINT
$end

$rem
JOBTYPE                   OPT
METHOD                    B3LYP
DFT_D                     d3_op
BASIS                     STO-3G
GEOM_OPT_MAX_CYCLES       100
GEOM_OPT_TOL_GRADIENT     300
GEOM_OPT_TOL_DISPLACEMENT 1200
GEOM_OPT_TOL_ENERGY       100
SYMMETRY                  False
THRESH                    12
SCF_CONVERGENCE           8
MAX_SUB_FILE_NUM          128
MEM_STATIC                400
MEM_TOTAL                 4000
$end
--------------------------------------------------------------

   15   -1510.1371727683      6.68E-09 Convergence criterion met
 Total energy in the final basis set = -1510.13717277
   13   -1510.2089047593      9.90E-09 Convergence criterion met
 Total energy in the final basis set = -1510.20890476
   14   -1510.2482537973      8.81E-09 Convergence criterion met
 Total energy in the final basis set = -1510.24825380
   14   -1510.2652686781      6.83E-09 Convergence criterion met
 Total energy in the final basis set = -1510.26526868
   15   -1510.2730717511      2.04E-09 Convergence criterion met
 Total energy in the final basis set = -1510.27307175
   13   -1510.2784099208      4.70E-09 Convergence criterion met
 Total energy in the final basis set = -1510.27840992
   13   -1510.2814525517      4.78E-09 Convergence criterion met
 Total energy in the final basis set = -1510.28145255
   13   -1510.2824047618      2.63E-09 Convergence criterion met
   11   -1510.2835530437      9.53E-09 Convergence criterion met
 Total energy in the final basis set = -1510.28355304
   11   -1510.2835728444      5.77E-09 Convergence criterion met
 Total energy in the final basis set = -1510.28357284
   11   -1510.2836007744      4.57E-09 Convergence criterion met
 Total energy in the final basis set = -1510.28360077
   10   -1510.2836088483      9.75E-09 Convergence criterion met
 Total energy in the final basis set = -1510.28360885
    9   -1510.2836125893      5.18E-09 Convergence criterion met
 Total energy in the final basis set = -1510.28361259
    9   -1510.2836147526      8.37E-09 Convergence criterion met
 Total energy in the final basis set = -1510.28361475

             Standard Nuclear Orientation (Angstroms)
    I     Atom           X                Y                Z
 ----------------------------------------------------------------
    1      O      -3.5949639486     0.8127943615     2.8547926425
    2      C      -3.2337637387     0.4924689247     1.7001569338
    3      C      -2.9481058889    -0.9722496755     1.2210923721
    4      C      -3.0477821204    -1.3156804186    -0.3264597920
    5      C      -3.0666225539    -0.0803623517    -1.2998966506
    6      O      -1.7378184292     0.4490521292    -1.4016131788
    7      C      -1.7233823264     1.5891808413    -2.3435685789
    8      C      -0.2498768140     2.1287927084    -2.3943335408
    9      O       0.7571690973     1.0393756321    -2.3904627796
   10      C       1.4010503708     0.9737380548    -1.1098244206
   11      C       2.5260960156    -0.1105420223    -1.1588161062
   12      C       3.6087639919     0.0807735502    -0.0163496055
   13      C       3.3735507252     1.3418062805     0.8953764785
   14      O       3.0848164945     1.3560385854     2.1101387789
   15      O      -3.0234870963     1.4412418422     0.6531734868
   16      O       3.6988979686     2.5100479339     0.1236056380
   17      O       1.1000119632     1.6989528293    -0.1347022782
   18      C       3.4163797675     3.7244558166     0.9189037624
   19      C       1.9694567684    -1.5544854871    -0.7900362778
   20      C       3.0642550282    -2.6249398076    -1.1815915348
   21      C       4.1086919160    -2.4354228879    -0.0197159922
   22      C       3.4370317004    -1.2657932626     0.8010707409
   23      O       1.9883417222    -1.5563965039     0.6887259608
   24      H       2.9783688213    -0.1011014094    -2.1662759711
   25      H       4.6184840369     0.1646678183    -0.4575752246
   26      H       0.9458288022    -1.7528930552    -1.1546997069
   27      H       2.6303872079    -3.6375224239    -1.1753133833
   28      H       3.4954376100    -2.4319097806    -2.1768050374
   29      H       4.1920354866    -3.3425100058     0.5999577245
   30      H       5.1116836209    -2.1658563136    -0.3873529544
   31      H       3.7336277636    -1.1864700858     1.8648180705
   32      O      -4.0453943440     0.3493158192    -1.9481865361
   33      C      -3.3001727224     2.8113349578     1.1400665747
   34      C      -1.4541795950    -1.4587407439     1.5391739535
   35      C      -1.5020176816    -3.0218229189     1.7399106605
   36      C      -1.7740221214    -3.4980130145     0.2646770762
   37      C      -1.7038944252    -2.1287339071    -0.5229113758
   38      O      -0.7415338297    -1.3152645206     0.2547452740
   39      H      -3.6577334359    -1.6055861781     1.7839213206
   40      H      -3.9495487831    -1.9187883031    -0.5349201758
   41      H      -2.6214880387     3.0905757733     1.9714687657
   42      H      -0.9360326976    -0.8903369295     2.3355530197
   43      H      -0.5270062756    -3.3832308080     2.1048430409
   44      H      -2.2874466599    -3.3355371036     2.4458661183
   45      H      -0.9917676074    -4.1873703387    -0.0904356608
   46      H      -2.7541310597    -3.9886283015     0.1509188228
   47      H      -1.3783884460    -2.2136912865    -1.5775456148
   48      H      -4.3484300356     2.9179174990     1.4866540773
   49      H      -3.1249679023     3.4799149277     0.2773746371
   50      H       3.7493552829     4.5811184415     0.3044075804
   51      H       3.9641172862     3.7218368167     1.8833044361
   52      H       2.3311347032     3.8185571711     1.1301052476
   53      H      -0.1013513990     2.7161768047    -3.3240240824
   54      H      -0.0622307056     2.7666962920    -1.5038326783
   55      H      -2.4078789182     2.3985471258    -2.0074170740
   56      H      -2.0561175207     1.2586095076    -3.3523215891
 ----------------------------------------------------------------

    9   -1510.2836146339      5.87E-09 Convergence criterion met
 Total energy in the final basis set = -1510.28361463
 Final energy is   -1510.28361463390
 **  OPTIMIZATION CONVERGED  **

                    Orbital Energies (a.u.)
 --------------------------------------------------------------

 Alpha MOs
 -- Occupied --
-18.938 -18.933 -18.925 -18.916 -18.886 -18.879 -18.878 -18.870
-18.863 -18.859 -10.099 -10.098 -10.094 -10.087 -10.069 -10.068
-10.065 -10.058 -10.056 -10.052 -10.052 -10.050 -10.035 -10.034
-10.033 -10.028 -10.018 -10.015 -10.015 -10.014  -1.014  -1.011
 -1.000  -0.994  -0.968  -0.961  -0.937  -0.934  -0.926  -0.921
 -0.759  -0.756  -0.725  -0.718  -0.709  -0.700  -0.692  -0.661
 -0.652  -0.612  -0.595  -0.572  -0.541  -0.539  -0.534  -0.530
 -0.513  -0.501  -0.485  -0.476  -0.466  -0.454  -0.445  -0.432
 -0.431  -0.426  -0.419  -0.412  -0.410  -0.404  -0.403  -0.400
 -0.391  -0.373  -0.372  -0.366  -0.356  -0.349  -0.347  -0.345
 -0.336  -0.333  -0.331  -0.328  -0.325  -0.324  -0.319  -0.310
 -0.305  -0.302  -0.298  -0.296  -0.291  -0.291  -0.274  -0.272
 -0.264  -0.247  -0.244  -0.241  -0.240  -0.228  -0.225  -0.179
 -0.175  -0.165  -0.161  -0.155  -0.151  -0.143  -0.139  -0.139
 -0.135

          Ground-State Mulliken Net Atomic Charges

     Atom                 Charge (a.u.)
  ----------------------------------------
      1 O                    -0.215017
      2 C                     0.209020
      3 C                    -0.080251
      4 C                    -0.079162
      5 C                     0.216464
      6 O                    -0.165194
      7 C                    -0.044779
      8 C                    -0.053190
      9 O                    -0.169742
     10 C                     0.224353
     11 C                    -0.077160
     12 C                    -0.080307
     13 C                     0.216256
     14 O                    -0.215681
     15 O                    -0.166180
     16 O                    -0.178321
     17 O                    -0.207235
     18 C                    -0.128897
     19 C                     0.027404
     20 C                    -0.144764
     21 C                    -0.144257
     22 C                     0.023488
     23 O                    -0.184791
     24 H                     0.085102
     25 H                     0.081953
     26 H                     0.093152
     27 H                     0.075141
     28 H                     0.072016
     29 H                     0.075976
     30 H                     0.071820
     31 H                     0.087567
     32 O                    -0.221018
     33 C                    -0.125370
     34 C                     0.029855
     35 C                    -0.141898
     36 C                    -0.145346
     37 C                     0.025344
     38 O                    -0.181019
     39 H                     0.085063
     40 H                     0.083378
     41 H                     0.093118
     42 H                     0.091374
     43 H                     0.082408
     44 H                     0.073590
     45 H                     0.076704
     46 H                     0.072869
     47 H                     0.079871
     48 H                     0.090643
     49 H                     0.088624
     50 H                     0.084820
     51 H                     0.087054
     52 H                     0.090245
     53 H                     0.085137
     54 H                     0.099572
     55 H                     0.087048
     56 H                     0.083152
  ----------------------------------------
  Sum of atomic charges =    -0.000000

                    Cartesian Multipole Moments
 -----------------------------------------------------------------
    Charge (ESU x 10^10)
                -0.0000
    Dipole Moment (Debye)
         X       0.9451      Y      -0.4588      Z      -2.2552
       Tot       2.4879
    Quadrupole Moments (Debye-Ang)
        XX    -158.9627     XY       0.0025     YY    -142.4699
        XZ      -3.6335     YZ      -2.3948     ZZ    -165.5473

 Total job time:  61.80s(wall), 2941.17s(cpu)
        *  Thank you very much for using Q-Chem.  Have a nice day.  *
