 Q-Chem 5.0, Q-Chem, Inc., Pleasanton, CA (2017)
 Q-Chem 5.0.1 for Intel X86 EM64T Linux

User input:
--------------------------------------------------------------
$molecule
0  1
O -3.5949639486 0.8127943615 2.8547926425
C -3.2337637387 0.4924689247 1.7001569338
C -2.9481058889 -0.9722496755 1.2210923721
C -3.0477821204 -1.3156804186 -0.326459792
C -3.0666225539 -0.0803623517 -1.2998966506
O -1.7378184292 0.4490521292 -1.4016131788
C -1.7233823264 1.5891808413 -2.3435685789
C -0.249876814 2.1287927084 -2.3943335408
O 0.7571690973 1.0393756321 -2.3904627796
C 1.4010503708 0.9737380548 -1.1098244206
C 2.5260960156 -0.1105420223 -1.1588161062
C 3.6087639919 0.0807735502 -0.0163496055
C 3.3735507252 1.3418062805 0.8953764785
O 3.0848164945 1.3560385854 2.1101387789
O -3.0234870963 1.4412418422 0.6531734868
O 3.6988979686 2.5100479339 0.123605638
O 1.1000119632 1.6989528293 -0.1347022782
C 3.4163797675 3.7244558166 0.9189037624
C 1.9694567684 -1.5544854871 -0.7900362778
C 3.0642550282 -2.6249398076 -1.1815915348
C 4.108691916 -2.4354228879 -0.0197159922
C 3.4370317004 -1.2657932626 0.8010707409
O 1.9883417222 -1.5563965039 0.6887259608
H 2.9783688213 -0.1011014094 -2.1662759711
H 4.6184840369 0.1646678183 -0.4575752246
H 0.9458288022 -1.7528930552 -1.1546997069
H 2.6303872079 -3.6375224239 -1.1753133833
H 3.49543761 -2.4319097806 -2.1768050374
H 4.1920354866 -3.3425100058 0.5999577245
H 5.1116836209 -2.1658563136 -0.3873529544
H 3.7336277636 -1.1864700858 1.8648180705
O -4.045394344 0.3493158192 -1.9481865361
C -3.3001727224 2.8113349578 1.1400665747
C -1.454179595 -1.4587407439 1.5391739535
C -1.5020176816 -3.0218229189 1.7399106605
C -1.7740221214 -3.4980130145 0.2646770762
C -1.7038944252 -2.1287339071 -0.5229113758
O -0.7415338297 -1.3152645206 0.254745274
H -3.6577334359 -1.6055861781 1.7839213206
H -3.9495487831 -1.9187883031 -0.5349201758
H -2.6214880387 3.0905757733 1.9714687657
H -0.9360326976 -0.8903369295 2.3355530197
H -0.5270062756 -3.383230808 2.1048430409
H -2.2874466599 -3.3355371036 2.4458661183
H -0.9917676074 -4.1873703387 -0.0904356608
H -2.7541310597 -3.9886283015 0.1509188228
H -1.378388446 -2.2136912865 -1.5775456148
H -4.3484300356 2.917917499 1.4866540773
H -3.1249679023 3.4799149277 0.2773746371
H 3.7493552829 4.5811184415 0.3044075804
H 3.9641172862 3.7218368167 1.8833044361
H 2.3311347032 3.8185571711 1.1301052476
H -0.101351399 2.7161768047 -3.3240240824
H -0.0622307056 2.766696292 -1.5038326783
H -2.4078789182 2.3985471258 -2.007417074
H -2.0561175207 1.2586095076 -3.3523215891
$end

$rem
JOBTYPE                   OPT
METHOD                    B3LYP
DFT_D                     d3_op
BASIS                     STO-3G
GEOM_OPT_MAX_CYCLES       100
GEOM_OPT_TOL_GRADIENT     300
GEOM_OPT_TOL_DISPLACEMENT 1200
GEOM_OPT_TOL_ENERGY       100
SYMMETRY                  False
THRESH                    12
SCF_CONVERGENCE           8
MAX_SUB_FILE_NUM          128
MEM_STATIC                400
MEM_TOTAL                 4000
$end
--------------------------------------------------------------

   16   -1510.2838282481      5.12E-09 Convergence criterion met
 Total energy in the final basis set = -1510.28382825
   14   -1510.2839071085      7.74E-09 Convergence criterion met
 Total energy in the final basis set = -1510.28390711
   15   -1510.2871705584      3.34E-09 Convergence criterion met
 Total energy in the final basis set = -1510.28717056
   15   -1510.2862596885      4.06E-09 Convergence criterion met
 Total energy in the final basis set = -1510.28625969
   15   -1510.2229452768      6.74E-09 Convergence criterion met
 Total energy in the final basis set = -1510.22294528
   14   -1510.2899944981      5.47E-09 Convergence criterion met
 Total energy in the final basis set = -1510.28999450
   13   -1510.2855525586      8.37E-09 Convergence criterion met
 Total energy in the final basis set = -1510.28555256
   15   -1510.2886072010      3.18E-09 Convergence criterion met
   11   -1510.3021797657      9.03E-09 Convergence criterion met
 Total energy in the final basis set = -1510.30217977
   12   -1510.3021690135      3.28E-09 Convergence criterion met
 Total energy in the final basis set = -1510.30216901
   11   -1510.3021840955      6.61E-09 Convergence criterion met
 Total energy in the final basis set = -1510.30218410
    9   -1510.3021846201      5.75E-09 Convergence criterion met
 Total energy in the final basis set = -1510.30218462
   10   -1510.3021826503      9.74E-09 Convergence criterion met
 Total energy in the final basis set = -1510.30218265
   11   -1510.3021839215      4.42E-09 Convergence criterion met
 Total energy in the final basis set = -1510.30218392

             Standard Nuclear Orientation (Angstroms)
    I     Atom           X                Y                Z
 ----------------------------------------------------------------
    1      O      -0.3866663869     0.4661133421     1.7762588521
    2      C      -1.5282702068     0.3144314957     1.2954064963
    3      C      -2.2663506487    -1.0425905820     1.0263457634
    4      C      -3.1751408197    -1.0678761784    -0.2713090936
    5      C      -3.0701022449     0.2078272457    -1.1767874514
    6      O      -1.7062893748     0.3536682889    -1.6145521135
    7      C      -1.6145746466     1.4132583465    -2.6468081681
    8      C      -0.3073136683     2.2377911073    -2.4048429832
    9      O       0.8359373840     1.2985907055    -2.2910407798
   10      C       1.3283178898     1.2574332904    -0.9506581604
   11      C       2.3738416354     0.1051130304    -0.8553740958
   12      C       3.3105566202     0.1910962863     0.4202647409
   13      C       2.9888501181     1.3979551640     1.3773636559
   14      O       2.4568661898     1.3522197009     2.5054268525
   15      O      -2.4064835697     1.3886325507     0.9363667375
   16      O       3.5294508239     2.5887893526     0.7809357802
   17      O       0.9634788520     2.0313559733    -0.0343717782
   18      C       3.1709869857     3.7612760586     1.6078098128
   19      C       1.6579742936    -1.3001140595    -0.6143467661
   20      C       2.7001379458    -2.4372331357    -0.9505835146
   21      C       3.6661219738    -2.3496547819     0.2898638812
   22      C       2.9906016498    -1.1907600009     1.1235105964
   23      O       1.5461412380    -1.3736740000     0.8584722223
   24      H       2.9565583197     0.0914814434    -1.7934230583
   25      H       4.3698351110     0.2647965725     0.1147557350
   26      H       0.6463925512    -1.4206391288    -1.0654911794
   27      H       2.1918440179    -3.4135450963    -0.9975458188
   28      H       3.2166631728    -2.2625275814    -1.9078754758
   29      H       3.6713684398    -3.2888917314     0.8652951558
   30      H       4.7016309537    -2.1038113815     0.0053638097
   31      H       3.1861018074    -1.1998324297     2.2131561130
   32      O      -4.0090983242     0.9374455300    -1.5639099109
   33      C      -1.7193716294     2.6882982689     1.1289924470
   34      C      -1.2453011682    -2.2200530850     0.7288107061
   35      C      -1.9815292896    -3.5859746401     1.0008396208
   36      C      -2.9773199470    -3.6401400994    -0.2201056863
   37      C      -2.5691519403    -2.3357936303    -1.0152506893
   38      O      -1.1203579836    -2.2090309604    -0.7501165792
   39      H      -2.8774466937    -1.2714507725     1.9195570007
   40      H      -4.2405891740    -1.2060064184    -0.0176140049
   41      H      -0.6750033648     2.6349422410     0.7461356890
   42      H      -0.2378604673    -2.0735758109     1.1809138410
   43      H      -1.2651843159    -4.4225707413     0.9723038952
   44      H      -2.4992091856    -3.5970139988     1.9731582967
   45      H      -2.8125122243    -4.5362050338    -0.8395256996
   46      H      -4.0334907511    -3.6167924523     0.0928985394
   47      H      -2.7661707361    -2.3681630119    -2.1045480959
   48      H      -1.6999459774     2.9695597850     2.2015761609
   49      H      -2.3099763367     3.4340356930     0.5660091602
   50      H       3.6558636224     4.6344438889     1.1335718848
   51      H       3.5324566985     3.6550550477     2.6511247314
   52      H       2.0720402157     3.9123822182     1.6300402473
   53      H      -0.1180093027     2.9046401413    -3.2717491024
   54      H      -0.3779563457     2.8398478106    -1.4758282991
   55      H      -2.5194628341     2.0584489443    -2.5967034050
   56      H      -1.5731804291     0.9324599929    -3.6485073031
 ----------------------------------------------------------------

   10   -1510.3021847320      4.95E-09 Convergence criterion met
 Total energy in the final basis set = -1510.30218473
 Final energy is   -1510.30218473204
 **  OPTIMIZATION CONVERGED  **

                    Orbital Energies (a.u.)
 --------------------------------------------------------------

 Alpha MOs
 -- Occupied --
-18.939 -18.924 -18.922 -18.914 -18.887 -18.885 -18.884 -18.868
-18.868 -18.859 -10.107 -10.095 -10.087 -10.084 -10.074 -10.068
-10.059 -10.052 -10.051 -10.045 -10.042 -10.042 -10.034 -10.033
-10.029 -10.028 -10.017 -10.014 -10.014 -10.012  -1.019  -1.006
 -0.997  -0.993  -0.968  -0.963  -0.944  -0.929  -0.925  -0.919
 -0.759  -0.757  -0.725  -0.716  -0.708  -0.700  -0.690  -0.650
 -0.648  -0.613  -0.593  -0.575  -0.541  -0.537  -0.534  -0.529
 -0.509  -0.501  -0.480  -0.478  -0.462  -0.451  -0.447  -0.433
 -0.429  -0.427  -0.421  -0.412  -0.406  -0.403  -0.398  -0.397
 -0.393  -0.373  -0.366  -0.363  -0.356  -0.350  -0.345  -0.344
 -0.338  -0.338  -0.331  -0.327  -0.323  -0.318  -0.316  -0.308
 -0.305  -0.301  -0.296  -0.292  -0.289  -0.283  -0.272  -0.269
 -0.265  -0.252  -0.243  -0.240  -0.237  -0.235  -0.217  -0.185
 -0.169  -0.164  -0.160  -0.158  -0.151  -0.143  -0.141  -0.136
 -0.135

          Ground-State Mulliken Net Atomic Charges

     Atom                 Charge (a.u.)
  ----------------------------------------
      1 O                    -0.195605
      2 C                     0.209904
      3 C                    -0.079752
      4 C                    -0.078393
      5 C                     0.216289
      6 O                    -0.176931
      7 C                    -0.054318
      8 C                    -0.053712
      9 O                    -0.168108
     10 C                     0.225714
     11 C                    -0.077624
     12 C                    -0.079393
     13 C                     0.216519
     14 O                    -0.207814
     15 O                    -0.175615
     16 O                    -0.178239
     17 O                    -0.210192
     18 C                    -0.128436
     19 C                     0.016151
     20 C                    -0.144040
     21 C                    -0.145177
     22 C                     0.027678
     23 O                    -0.188516
     24 H                     0.086682
     25 H                     0.082539
     26 H                     0.111527
     27 H                     0.077514
     28 H                     0.071957
     29 H                     0.075890
     30 H                     0.071854
     31 H                     0.088946
     32 O                    -0.218714
     33 C                    -0.143849
     34 C                     0.013139
     35 C                    -0.143820
     36 C                    -0.144343
     37 C                     0.027062
     38 O                    -0.194532
     39 H                     0.083729
     40 H                     0.084773
     41 H                     0.111519
     42 H                     0.114735
     43 H                     0.076404
     44 H                     0.073049
     45 H                     0.076240
     46 H                     0.073201
     47 H                     0.080380
     48 H                     0.081884
     49 H                     0.080934
     50 H                     0.084494
     51 H                     0.086541
     52 H                     0.089876
     53 H                     0.087790
     54 H                     0.099182
     55 H                     0.100645
     56 H                     0.082384
  ----------------------------------------
  Sum of atomic charges =     0.000000

                    Cartesian Multipole Moments
 -----------------------------------------------------------------
    Charge (ESU x 10^10)
                 0.0000
    Dipole Moment (Debye)
         X       0.5607      Y      -0.5652      Z      -1.7541
       Tot       1.9263
    Quadrupole Moments (Debye-Ang)
        XX    -156.6022     XY       3.9323     YY    -147.0309
        XZ      -3.7437     YZ      -2.5563     ZZ    -159.6458

 Total job time:  125.50s(wall), 5989.02s(cpu)
        *  Thank you very much for using Q-Chem.  Have a nice day.  *
