 Q-Chem 5.0, Q-Chem, Inc., Pleasanton, CA (2017)
 Q-Chem 5.0.1 for Intel X86 EM64T Linux

User input:
--------------------------------------------------------------
$molecule
0  1
O -4.2877323393 -0.1366785934 2.2433450608
C -3.5346429168 -0.2303584402 1.2489780883
C -2.7590100916 -1.5109829535 0.7931144522
C -2.400347967 -1.643365363 -0.7520846396
C -2.6878459621 -0.355388742 -1.6165802472
O -1.5048637492 0.4545264148 -1.6236046388
C -1.5428289086 1.4617523328 -2.7031662503
C -0.2370233644 2.3091280788 -2.4984842257
O 0.9410338481 1.4282597397 -2.311862408
C 1.2770826309 1.2799001709 -0.9286681916
C 2.6729708521 0.5688692233 -0.850834068
C 3.2443230628 0.4967753056 0.6212661116
C 2.396182982 1.2676589191 1.6996040288
O 1.845488587 0.7855795449 2.7117248579
O -3.2020713951 0.8732186333 0.4037456899
O 2.5721902454 2.6766094652 1.4679227063
O 0.5773385776 1.6923447737 0.021581112
C 1.7597735658 3.4430134761 2.4365061379
C 2.5885530067 -0.9780247572 -1.2063893857
C 4.0597141676 -1.5289597228 -1.3971378618
C 4.5423082648 -1.6420797417 0.0973957591
C 3.2835009052 -1.0701310912 0.8612734103
O 2.15007376 -1.5926994245 0.0643253412
H 3.3614069883 1.095881218 -1.535772243
H 4.2643081938 0.9214828642 0.6478940484
H 1.8848880414 -1.2191081107 -2.0261401162
H 4.0400771145 -2.5123545659 -1.8930985744
H 4.6827495543 -0.8446884323 -1.9949975633
H 4.7215339139 -2.690920694 0.3830570725
H 5.4559252698 -1.0596990912 0.2974125654
H 3.17889806 -1.3694860559 1.9222409597
O -3.7039459534 -0.1222625428 -2.306631732
C -3.9268547374 2.0914128587 0.8255262484
C -1.3001621394 -1.5669254069 1.4459231367
C -0.8387998643 -3.0750790361 1.4760767489
C -0.5560349047 -3.3269379085 -0.0501745027
C -0.8379373246 -1.8977953814 -0.6578236935
O -0.4329954184 -0.9626878986 0.4174002706
H -3.3578995646 -2.3772885815 1.126445591
H -2.9519429437 -2.4839608869 -1.2099736417
H -3.6604829151 2.3833768144 1.8618829922
H -1.202504793 -1.022001216 2.4049814861
H 0.0802679846 -3.1761144285 2.0749932126
H -1.6107316331 -3.7440926272 1.8890887689
H 0.4963828251 -3.6029216811 -0.2215040025
H -1.2091300918 -4.1007760595 -0.4850440256
H -0.2921119188 -1.6714747811 -1.5919275543
H -5.0259324471 1.9533368196 0.7670613606
H -3.6147285431 2.8866420642 0.1239731633
H 1.9908120609 4.5094796196 2.2585726187
H 2.0088575896 3.177015108 3.4842236129
H 0.6762214053 3.2668430984 2.275496743
H -0.0383349101 2.9308110625 -3.3958654335
H -0.3605468841 2.9561263702 -1.6042432719
H -2.4430206834 2.1119970162 -2.6368150271
H -1.5429144189 0.9678109984 -3.700007536
$end

$rem
JOBTYPE                   OPT
METHOD                    B3LYP
DFT_D                     d3_op
BASIS                     STO-3G
GEOM_OPT_MAX_CYCLES       100
GEOM_OPT_TOL_GRADIENT     300
GEOM_OPT_TOL_DISPLACEMENT 1200
GEOM_OPT_TOL_ENERGY       100
SYMMETRY                  False
THRESH                    12
SCF_CONVERGENCE           8
MAX_SUB_FILE_NUM          128
MEM_STATIC                400
MEM_TOTAL                 4000
$end
--------------------------------------------------------------

   16   -1510.2834181255      5.19E-09 Convergence criterion met
 Total energy in the final basis set = -1510.28341813
   14   -1510.2860329546      4.24E-09 Convergence criterion met
 Total energy in the final basis set = -1510.28603295
   14   -1510.2840936415      5.56E-09 Convergence criterion met
 Total energy in the final basis set = -1510.28409364
   14   -1510.2875825199      1.59E-09 Convergence criterion met
 Total energy in the final basis set = -1510.28758252
   14   -1510.2891269278      6.51E-09 Convergence criterion met
 Total energy in the final basis set = -1510.28912693
   13   -1510.2899601942      9.57E-09 Convergence criterion met
 Total energy in the final basis set = -1510.28996019
   13   -1510.2908749878      7.63E-09 Convergence criterion met
 Total energy in the final basis set = -1510.29087499
   13   -1510.2904532717      5.15E-09 Convergence criterion met
   12   -1510.3001074376      8.18E-09 Convergence criterion met
 Total energy in the final basis set = -1510.30010744
   12   -1510.3001815975      2.60E-09 Convergence criterion met
 Total energy in the final basis set = -1510.30018160
   11   -1510.3001692891      8.97E-09 Convergence criterion met
 Total energy in the final basis set = -1510.30016929
   11   -1510.3001840437      6.59E-09 Convergence criterion met
 Total energy in the final basis set = -1510.30018404
   11   -1510.3001867934      4.92E-09 Convergence criterion met
 Total energy in the final basis set = -1510.30018679
   11   -1510.3001834574      2.86E-09 Convergence criterion met
 Total energy in the final basis set = -1510.30018346

             Standard Nuclear Orientation (Angstroms)
    I     Atom           X                Y                Z
 ----------------------------------------------------------------
    1      O      -4.5401056849     0.7755601650     1.1741708127
    2      C      -3.3318120930     0.4602036369     1.2350444065
    3      C      -2.7518967599    -1.0028082682     1.1926139300
    4      C      -1.9371864981    -1.3520972627    -0.1227796626
    5      C      -2.0200886638    -0.2061764619    -1.1830783569
    6      O      -1.2120256230    -0.5314474117    -2.3226467592
    7      C      -1.3355436656     0.5335716864    -3.3493014581
    8      C      -0.5858432653     1.8604975929    -2.9510941114
    9      O       0.8570522747     1.6126725488    -2.7299187998
   10      C       1.0810172720     1.1444779206    -1.3908105229
   11      C       2.5650909752     0.6533523631    -1.3251160615
   12      C       3.1206563997     0.3323020690     0.1223320399
   13      C       2.2078297334     0.7045673037     1.3501759243
   14      O       1.9238624492    -0.0740480635     2.2860771691
   15      O      -2.2746150837     1.3988923743     1.5127331172
   16      O       1.8174343821     2.0763325596     1.2888900322
   17      O       0.1982689230     1.0837464478    -0.5097010867
   18      C       0.7278428647     2.3113911315     2.2689794211
   19      C       2.6160972613    -0.7940320112    -1.9872244096
   20      C       4.1190105085    -1.2084496624    -2.2313335400
   21      C       4.5765229281    -1.5899224765    -0.7738866218
   22      C       3.2788997541    -1.2445799155     0.0470049511
   23      O       2.1857318109    -1.6646020339    -0.8685369903
   24      H       3.2031776810     1.3728637859    -1.8677010899
   25      H       4.1014828106     0.8236471171     0.2612618295
   26      H       1.9419501747    -0.9157894861    -2.8574114966
   27      H       4.1752777071    -2.0711773919    -2.9138757596
   28      H       4.7069844250    -0.3807576180    -2.6590732592
   29      H       4.8092154629    -2.6638346513    -0.6941464889
   30      H       5.4505878049    -1.0115429457    -0.4352181427
   31      H       3.1651038636    -1.7400356952     1.0312284804
   32      O      -2.7422511367     0.8155739712    -1.1220102572
   33      C      -2.8266324026     2.7704619928     1.4672188613
   34      C      -1.6352724615    -1.2254679663     2.2963140534
   35      C      -1.3682239889    -2.7745499638     2.4463700117
   36      C      -0.5258883675    -3.0624989982     1.1499394023
   37      C      -0.4860979613    -1.6336443770     0.4752177669
   38      O      -0.4146011294    -0.7182290673     1.6356264133
   39      H      -3.6067303423    -1.6904042911     1.3184276568
   40      H      -2.3359366561    -2.2665608563    -0.6004936875
   41      H      -3.6608393728     2.9026823167     2.1861861495
   42      H      -1.8151693143    -0.6841895339     3.2449119914
   43      H      -0.7886537473    -2.9777745240     3.3608786050
   44      H      -2.3038308902    -3.3551898493     2.4846789532
   45      H       0.4971210697    -3.3878245692     1.3970944188
   46      H      -0.9894994043    -3.8207199080     0.4988052513
   47      H       0.3882961645    -1.4808055358    -0.2030737030
   48      H      -3.1952304614     3.0166575073     0.4503573118
   49      H      -1.9956616602     3.4479408659     1.7333981783
   50      H       0.5030296081     3.3923568492     2.2159732178
   51      H       1.0426992294     2.0474209865     3.2986974816
   52      H      -0.1745789831     1.7162774326     1.9967244571
   53      H      -0.6548173664     2.5819304126    -3.7902355337
   54      H      -1.0596508648     2.2895119318    -2.0428540852
   55      H      -2.4034799238     0.7754846931    -3.5426030912
   56      H      -0.8834660502     0.1042050586    -4.2660082564
 ----------------------------------------------------------------

    9   -1510.3001838700      6.65E-09 Convergence criterion met
 Total energy in the final basis set = -1510.30018387
 Final energy is   -1510.30018386999
 **  OPTIMIZATION CONVERGED  **

                    Orbital Energies (a.u.)
 --------------------------------------------------------------

 Alpha MOs
 -- Occupied --
-18.935 -18.933 -18.913 -18.913 -18.899 -18.882 -18.878 -18.871
-18.860 -18.849 -10.102 -10.102 -10.084 -10.081 -10.077 -10.073
-10.066 -10.059 -10.047 -10.045 -10.040 -10.036 -10.033 -10.033
-10.028 -10.025 -10.023 -10.022 -10.006 -10.003  -1.021  -1.008
 -0.992  -0.988  -0.977  -0.953  -0.942  -0.936  -0.918  -0.914
 -0.764  -0.749  -0.728  -0.716  -0.708  -0.702  -0.687  -0.645
 -0.642  -0.619  -0.593  -0.575  -0.545  -0.539  -0.530  -0.523
 -0.512  -0.498  -0.481  -0.470  -0.457  -0.452  -0.448  -0.436
 -0.433  -0.423  -0.418  -0.415  -0.401  -0.399  -0.396  -0.390
 -0.387  -0.378  -0.367  -0.359  -0.354  -0.351  -0.347  -0.342
 -0.338  -0.335  -0.329  -0.324  -0.322  -0.318  -0.313  -0.311
 -0.305  -0.302  -0.299  -0.291  -0.288  -0.276  -0.270  -0.268
 -0.265  -0.253  -0.252  -0.240  -0.237  -0.232  -0.215  -0.194
 -0.167  -0.161  -0.156  -0.154  -0.152  -0.148  -0.136  -0.131
 -0.125

          Ground-State Mulliken Net Atomic Charges

     Atom                 Charge (a.u.)
  ----------------------------------------
      1 O                    -0.223354
      2 C                     0.214598
      3 C                    -0.081188
      4 C                    -0.078668
      5 C                     0.222491
      6 O                    -0.173481
      7 C                    -0.051315
      8 C                    -0.055136
      9 O                    -0.176611
     10 C                     0.216135
     11 C                    -0.077701
     12 C                    -0.081606
     13 C                     0.215595
     14 O                    -0.205448
     15 O                    -0.170269
     16 O                    -0.175534
     17 O                    -0.201439
     18 C                    -0.135429
     19 C                     0.025957
     20 C                    -0.143761
     21 C                    -0.143388
     22 C                     0.024328
     23 O                    -0.189390
     24 H                     0.087708
     25 H                     0.082790
     26 H                     0.086627
     27 H                     0.078943
     28 H                     0.075362
     29 H                     0.078912
     30 H                     0.075280
     31 H                     0.095342
     32 O                    -0.212433
     33 C                    -0.127636
     34 C                     0.026751
     35 C                    -0.144887
     36 C                    -0.143363
     37 C                     0.015586
     38 O                    -0.182495
     39 H                     0.080653
     40 H                     0.083239
     41 H                     0.085421
     42 H                     0.081005
     43 H                     0.076176
     44 H                     0.069646
     45 H                     0.076276
     46 H                     0.068423
     47 H                     0.106108
     48 H                     0.089013
     49 H                     0.084270
     50 H                     0.077216
     51 H                     0.082972
     52 H                     0.116785
     53 H                     0.089483
     54 H                     0.104129
     55 H                     0.092509
     56 H                     0.088805
  ----------------------------------------
  Sum of atomic charges =    -0.000000

                    Cartesian Multipole Moments
 -----------------------------------------------------------------
    Charge (ESU x 10^10)
                -0.0000
    Dipole Moment (Debye)
         X       2.3410      Y      -0.1355      Z      -2.5298
       Tot       3.4494
    Quadrupole Moments (Debye-Ang)
        XX    -160.4945     XY       1.7064     YY    -153.2817
        XZ      -1.6611     YZ      -0.7167     ZZ    -151.4330

 Total job time:  222.49s(wall), 10618.37s(cpu)
        *  Thank you very much for using Q-Chem.  Have a nice day.  *
