 Q-Chem 5.0, Q-Chem, Inc., Pleasanton, CA (2017)
 Q-Chem 5.0.1 for Intel X86 EM64T Linux

User input:
--------------------------------------------------------------
$molecule
0  1
O -3.94934 -3.66094 2.70899
C -3.26408 -4.56952 2.26188
C -3.36658 -6.02376 2.66595
C -2.9251 -7.07297 1.63245
C -2.26411 -6.54706 0.37762
O -0.91192 -6.48092 0.55828
C -0.18515 -6.35865 -0.66895
C 1.3042 -6.19534 -0.3838
O 1.73167 -7.1833 0.56702
C 1.82375 -6.75574 1.85071
C 2.51245 -7.75068 2.75428
C 2.78918 -7.24805 4.17872
C 2.03969 -5.99865 4.59584
O 1.25815 -5.92049 5.53267
O -2.11586 -4.20292 1.6304
O 2.53644 -4.83046 4.09876
O 1.31377 -5.69937 2.18943
C 2.08356 -3.57554 4.45172
C 1.69503 -9.02222 3.03139
C 2.63939 -10.1605 3.40965
C 3.10157 -9.70096 4.77798
C 2.22518 -8.45522 4.96187
O 1.04759 -8.75853 4.25148
H 3.47151 -8.01162 2.25101
H 3.86892 -7.07595 4.38411
H 1.04452 -9.32366 2.18233
H 2.01224 -11.07261 3.53321
H 3.45185 -10.37139 2.68142
H 2.83448 -10.48687 5.51894
H 4.18206 -9.45217 4.85673
H 2.09925 -8.23868 6.04547
O -2.86863 -6.08002 -0.57941
C -1.77376 -2.9097 1.29459
C -2.41559 -6.35351 3.8362
C -2.93797 -7.56568 4.60419
C -2.66482 -8.66846 3.60433
C -1.93344 -7.87559 2.51516
O -1.26109 -6.86559 3.22474
H -4.41226 -6.17873 3.01556
H -3.7468 -7.7448 1.30027
H -1.69911 -2.28254 2.2084
H -2.26092 -5.49797 4.53016
H -2.26691 -7.70846 5.48176
H -3.98956 -7.4923 4.9556
H -1.98036 -9.40811 4.07648
H -3.56519 -9.18268 3.20429
H -1.29795 -8.5601 1.91193
H -2.53143 -2.48236 0.60364
H -0.7883 -2.91709 0.78504
H 2.65919 -2.81054 3.89158
H 2.22905 -3.40679 5.54006
H 1.00716 -3.47242 4.1954
H 1.89202 -6.2916 -1.32087
H 1.48256 -5.15344 -0.03232
H -0.52453 -5.49028 -1.27805
H -0.32861 -7.29513 -1.25349
$end

$opt
CONSTRAINT
tors           1           2           3           4    +153.532
tors           3           4           5           6     +90.738
tors           4           5           6           7    +163.499
tors           5           6           7           8    +176.166
tors           6           7           8           9     +47.819
tors           7           8           9          10     -98.846
tors           8           9          10          11    -169.465
tors           9          10          11          12    +173.157
tors          11          12          13          14    +119.740
ENDCONSTRAINT
$end

$rem
JOBTYPE                   OPT
METHOD                    B3LYP
DFT_D                     d3_op
BASIS                     STO-3G
GEOM_OPT_MAX_CYCLES       100
GEOM_OPT_TOL_GRADIENT     300
GEOM_OPT_TOL_DISPLACEMENT 1200
GEOM_OPT_TOL_ENERGY       100
SYMMETRY                  False
THRESH                    12
SCF_CONVERGENCE           8
MAX_SUB_FILE_NUM          128
MEM_STATIC                400
MEM_TOTAL                 4000
$end
--------------------------------------------------------------

   15   -1510.1475754822      7.04E-09 Convergence criterion met
 Total energy in the final basis set = -1510.14757548
   14   -1510.2184680910      5.92E-09 Convergence criterion met
 Total energy in the final basis set = -1510.21846809
   14   -1510.2549278472      6.22E-09 Convergence criterion met
 Total energy in the final basis set = -1510.25492785
   15   -1510.2682061587      2.14E-09 Convergence criterion met
 Total energy in the final basis set = -1510.26820616
   14   -1510.2756064648      3.55E-09 Convergence criterion met
 Total energy in the final basis set = -1510.27560646
   14   -1510.2788746332      5.21E-09 Convergence criterion met
 Total energy in the final basis set = -1510.27887463
   13   -1510.2797300656      4.10E-09 Convergence criterion met
 Total energy in the final basis set = -1510.27973007
   13   -1510.2813209530      4.94E-09 Convergence criterion met
   11   -1510.2833758356      9.49E-09 Convergence criterion met
 Total energy in the final basis set = -1510.28337584
   11   -1510.2834326699      7.64E-09 Convergence criterion met
 Total energy in the final basis set = -1510.28343267
   11   -1510.2834497791      3.86E-09 Convergence criterion met
 Total energy in the final basis set = -1510.28344978
   10   -1510.2834673849      7.00E-09 Convergence criterion met
 Total energy in the final basis set = -1510.28346738
   11   -1510.2834702041      2.91E-09 Convergence criterion met
 Total energy in the final basis set = -1510.28347020
    9   -1510.2834830827      8.80E-09 Convergence criterion met
 Total energy in the final basis set = -1510.28348308

             Standard Nuclear Orientation (Angstroms)
    I     Atom           X                Y                Z
 ----------------------------------------------------------------
    1      O      -4.2877323393    -0.1366785934     2.2433450608
    2      C      -3.5346429168    -0.2303584402     1.2489780883
    3      C      -2.7590100916    -1.5109829535     0.7931144522
    4      C      -2.4003479670    -1.6433653630    -0.7520846396
    5      C      -2.6878459621    -0.3553887420    -1.6165802472
    6      O      -1.5048637492     0.4545264148    -1.6236046388
    7      C      -1.5428289086     1.4617523328    -2.7031662503
    8      C      -0.2370233644     2.3091280788    -2.4984842257
    9      O       0.9410338481     1.4282597397    -2.3118624080
   10      C       1.2770826309     1.2799001709    -0.9286681916
   11      C       2.6729708521     0.5688692233    -0.8508340680
   12      C       3.2443230628     0.4967753056     0.6212661116
   13      C       2.3961829820     1.2676589191     1.6996040288
   14      O       1.8454885870     0.7855795449     2.7117248579
   15      O      -3.2020713951     0.8732186333     0.4037456899
   16      O       2.5721902454     2.6766094652     1.4679227063
   17      O       0.5773385776     1.6923447737     0.0215811120
   18      C       1.7597735658     3.4430134761     2.4365061379
   19      C       2.5885530067    -0.9780247572    -1.2063893857
   20      C       4.0597141676    -1.5289597228    -1.3971378618
   21      C       4.5423082648    -1.6420797417     0.0973957591
   22      C       3.2835009052    -1.0701310912     0.8612734103
   23      O       2.1500737600    -1.5926994245     0.0643253412
   24      H       3.3614069883     1.0958812180    -1.5357722430
   25      H       4.2643081938     0.9214828642     0.6478940484
   26      H       1.8848880414    -1.2191081107    -2.0261401162
   27      H       4.0400771145    -2.5123545659    -1.8930985744
   28      H       4.6827495543    -0.8446884323    -1.9949975633
   29      H       4.7215339139    -2.6909206940     0.3830570725
   30      H       5.4559252698    -1.0596990912     0.2974125654
   31      H       3.1788980600    -1.3694860559     1.9222409597
   32      O      -3.7039459534    -0.1222625428    -2.3066317320
   33      C      -3.9268547374     2.0914128587     0.8255262484
   34      C      -1.3001621394    -1.5669254069     1.4459231367
   35      C      -0.8387998643    -3.0750790361     1.4760767489
   36      C      -0.5560349047    -3.3269379085    -0.0501745027
   37      C      -0.8379373246    -1.8977953814    -0.6578236935
   38      O      -0.4329954184    -0.9626878986     0.4174002706
   39      H      -3.3578995646    -2.3772885815     1.1264455910
   40      H      -2.9519429437    -2.4839608869    -1.2099736417
   41      H      -3.6604829151     2.3833768144     1.8618829922
   42      H      -1.2025047930    -1.0220012160     2.4049814861
   43      H       0.0802679846    -3.1761144285     2.0749932126
   44      H      -1.6107316331    -3.7440926272     1.8890887689
   45      H       0.4963828251    -3.6029216811    -0.2215040025
   46      H      -1.2091300918    -4.1007760595    -0.4850440256
   47      H      -0.2921119188    -1.6714747811    -1.5919275543
   48      H      -5.0259324471     1.9533368196     0.7670613606
   49      H      -3.6147285431     2.8866420642     0.1239731633
   50      H       1.9908120609     4.5094796196     2.2585726187
   51      H       2.0088575896     3.1770151080     3.4842236129
   52      H       0.6762214053     3.2668430984     2.2754967430
   53      H      -0.0383349101     2.9308110625    -3.3958654335
   54      H      -0.3605468841     2.9561263702    -1.6042432719
   55      H      -2.4430206834     2.1119970162    -2.6368150271
   56      H      -1.5429144189     0.9678109984    -3.7000075360
 ----------------------------------------------------------------

    9   -1510.2834838330      6.43E-09 Convergence criterion met
 Total energy in the final basis set = -1510.28348383
 Final energy is   -1510.28348383300
 **  OPTIMIZATION CONVERGED  **

                    Orbital Energies (a.u.)
 --------------------------------------------------------------

 Alpha MOs
 -- Occupied --
-18.935 -18.930 -18.920 -18.913 -18.883 -18.881 -18.877 -18.868
-18.859 -18.857 -10.099 -10.094 -10.091 -10.086 -10.074 -10.070
-10.063 -10.058 -10.053 -10.050 -10.049 -10.048 -10.035 -10.030
-10.028 -10.028 -10.018 -10.016 -10.009 -10.008  -1.013  -1.008
 -0.997  -0.992  -0.967  -0.958  -0.937  -0.931  -0.924  -0.919
 -0.759  -0.752  -0.724  -0.715  -0.708  -0.698  -0.690  -0.658
 -0.650  -0.611  -0.592  -0.573  -0.542  -0.536  -0.533  -0.525
 -0.511  -0.503  -0.483  -0.477  -0.462  -0.453  -0.447  -0.429
 -0.426  -0.424  -0.419  -0.409  -0.407  -0.402  -0.399  -0.397
 -0.388  -0.376  -0.368  -0.364  -0.355  -0.347  -0.346  -0.341
 -0.336  -0.332  -0.330  -0.329  -0.322  -0.320  -0.317  -0.308
 -0.303  -0.299  -0.297  -0.294  -0.289  -0.287  -0.272  -0.268
 -0.266  -0.246  -0.241  -0.240  -0.236  -0.230  -0.220  -0.176
 -0.174  -0.163  -0.160  -0.151  -0.149  -0.142  -0.138  -0.137
 -0.125

          Ground-State Mulliken Net Atomic Charges

     Atom                 Charge (a.u.)
  ----------------------------------------
      1 O                    -0.215430
      2 C                     0.209442
      3 C                    -0.080329
      4 C                    -0.079974
      5 C                     0.218037
      6 O                    -0.169757
      7 C                    -0.045248
      8 C                    -0.047791
      9 O                    -0.176154
     10 C                     0.225184
     11 C                    -0.075741
     12 C                    -0.080027
     13 C                     0.219157
     14 O                    -0.217734
     15 O                    -0.163566
     16 O                    -0.177992
     17 O                    -0.194926
     18 C                    -0.128487
     19 C                     0.027109
     20 C                    -0.144557
     21 C                    -0.143873
     22 C                     0.025180
     23 O                    -0.185652
     24 H                     0.084822
     25 H                     0.082096
     26 H                     0.081897
     27 H                     0.075967
     28 H                     0.072711
     29 H                     0.076148
     30 H                     0.072463
     31 H                     0.088802
     32 O                    -0.224252
     33 C                    -0.124778
     34 C                     0.028170
     35 C                    -0.141470
     36 C                    -0.144923
     37 C                     0.030200
     38 O                    -0.176483
     39 H                     0.083744
     40 H                     0.082074
     41 H                     0.091418
     42 H                     0.086615
     43 H                     0.080315
     44 H                     0.070958
     45 H                     0.083136
     46 H                     0.069042
     47 H                     0.080182
     48 H                     0.090040
     49 H                     0.089899
     50 H                     0.084058
     51 H                     0.086132
     52 H                     0.090768
     53 H                     0.086756
     54 H                     0.096744
     55 H                     0.088349
     56 H                     0.081529
  ----------------------------------------
  Sum of atomic charges =     0.000000

                    Cartesian Multipole Moments
 -----------------------------------------------------------------
    Charge (ESU x 10^10)
                -0.0000
    Dipole Moment (Debye)
         X       2.2034      Y       0.7121      Z      -2.0580
       Tot       3.0980
    Quadrupole Moments (Debye-Ang)
        XX    -159.7247     XY      -3.5179     YY    -145.4550
        XZ      -0.9366     YZ      -0.5011     ZZ    -161.3303

 Total job time:  60.32s(wall), 2868.72s(cpu)
        *  Thank you very much for using Q-Chem.  Have a nice day.  *
