 Q-Chem 5.0, Q-Chem, Inc., Pleasanton, CA (2017)
 Q-Chem 5.0.1 for Intel X86 EM64T Linux

User input:
--------------------------------------------------------------
$molecule
0  1
O 3.2964323571 -1.2187650414 2.4861165522
C 2.9451288523 -0.6684319464 1.4179280731
C 2.4074815236 0.797822812 1.304679983
C 2.6044642051 1.6104790159 -0.0451037155
C 2.8975008342 0.7497184104 -1.3300369714
O 1.7158462442 -0.000545476 -1.6066376944
C 1.8242521731 -0.8194495578 -2.8295801432
C 0.4454955523 -1.5705937639 -2.9011237491
O -0.6871025049 -0.6398755055 -2.6667167866
C -1.0854431387 -0.7282516439 -1.2893690349
C -2.5000979833 -0.0917753663 -1.0875444872
C -3.1237654789 -0.497836936 0.3105701445
C -2.1844386336 -1.4154966249 1.1859811671
O -1.6208004642 -1.1148297994 2.2616829521
O 2.9918417098 -1.3278813287 0.1500778043
O -2.3468155138 -2.7679796153 0.7133383968
O -0.4483506306 -1.3711838738 -0.4218850531
C -1.4696446444 -3.6713001999 1.4870571928
C -2.4778279968 1.4948425065 -0.9468445882
C -3.9596624472 2.0168414123 -1.1266149699
C -4.5989437436 1.5980415242 0.2510211794
C -3.3631923312 0.9215527738 0.9666622908
O -2.2132846895 1.7223260102 0.4904166289
H -3.1382100429 -0.402216365 -1.9340992977
H -4.0730232856 -1.0443522592 0.1645472416
H -1.715726149 2.0001804682 -1.5703752716
H -3.9668729586 3.1106275563 -1.2582842527
H -4.4645436918 1.5543694362 -1.9899794768
H -4.9397112858 2.476779362 0.8211915568
H -5.4454912832 0.9028852039 0.1339149125
H -3.3919908736 0.9103118217 2.0734180506
O 3.9332509616 0.7341677084 -2.0290961814
C 3.4796406125 -2.7150395268 0.3165314814
C 0.8126766385 0.9249446539 1.4960656252
C 0.5412630768 2.3205568077 2.1758599967
C 0.9266743642 3.2970058453 1.0026921372
C 1.1731210213 2.2778323828 -0.1813341829
O 0.2894074725 1.1402508216 0.1337971073
H 2.9019666309 1.3453133494 2.1275037092
H 3.4173735756 2.3512377631 0.0580555529
H 2.8086418362 -3.3067197532 0.9722558568
H 0.2999417918 0.0572725443 1.9628253752
H -0.5297589966 2.4038031958 2.4206878166
H 1.138861904 2.4808643863 3.08765881
H 0.0983690084 3.9797264512 0.7565539728
H 1.8257451085 3.8951849425 1.2235407833
H 0.9518714794 2.6716329504 -1.1921853648
H 4.5033141763 -2.7431534512 0.7428897239
H 3.4888385054 -3.1554286134 -0.697566948
H -1.7199941491 -4.6990937607 1.1653248412
H -1.6362452739 -3.5701146415 2.579007485
H -0.3999181888 -3.4667232827 1.2737347079
H 0.2975463606 -2.0042835199 -3.9116072556
H 0.429578102 -2.3701779195 -2.1313813496
H 2.6623231661 -1.5481735052 -2.7674265995
H 1.9790762286 -0.1801770945 -3.7267817388
$end

$rem
JOBTYPE                   OPT
METHOD                    B3LYP
DFT_D                     d3_op
BASIS                     STO-3G
GEOM_OPT_MAX_CYCLES       100
GEOM_OPT_TOL_GRADIENT     300
GEOM_OPT_TOL_DISPLACEMENT 1200
GEOM_OPT_TOL_ENERGY       100
SYMMETRY                  False
THRESH                    12
SCF_CONVERGENCE           8
MAX_SUB_FILE_NUM          128
MEM_STATIC                400
MEM_TOTAL                 4000
$end
--------------------------------------------------------------

   16   -1510.2843826374      5.84E-09 Convergence criterion met
 Total energy in the final basis set = -1510.28438264
   15   -1510.2847063255      2.70E-09 Convergence criterion met
 Total energy in the final basis set = -1510.28470633
   15   -1510.2802845423      3.47E-09 Convergence criterion met
 Total energy in the final basis set = -1510.28028454
   15   -1510.2737996893      7.08E-09 Convergence criterion met
 Total energy in the final basis set = -1510.27379969
   14   -1510.2828109726      9.17E-09 Convergence criterion met
 Total energy in the final basis set = -1510.28281097
   15   -1510.2501259769      9.07E-09 Convergence criterion met
 Total energy in the final basis set = -1510.25012598
   15   -1510.2840715883      4.97E-09 Convergence criterion met
 Total energy in the final basis set = -1510.28407159
   14   -1510.2874106174      3.89E-09 Convergence criterion met
   12   -1510.3040599349      2.19E-09 Convergence criterion met
 Total energy in the final basis set = -1510.30405993
    9   -1510.3040580250      8.00E-09 Convergence criterion met
 Total energy in the final basis set = -1510.30405803
    9   -1510.3040609717      6.02E-09 Convergence criterion met
 Total energy in the final basis set = -1510.30406097
    9   -1510.3040600915      9.73E-09 Convergence criterion met
 Total energy in the final basis set = -1510.30406009
    9   -1510.3040620612      6.11E-09 Convergence criterion met
 Total energy in the final basis set = -1510.30406206
    9   -1510.3040609774      3.71E-09 Convergence criterion met
 Total energy in the final basis set = -1510.30406098

             Standard Nuclear Orientation (Angstroms)
    I     Atom           X                Y                Z
 ----------------------------------------------------------------
    1      O      -1.5712391126     1.5282227860     2.0963783730
    2      C      -2.0126961518     0.6834846436     1.2839385929
    3      C      -1.8719529542    -0.8694156681     1.4322298670
    4      C      -2.4621800364    -1.8033976603     0.2944527976
    5      C      -2.8115796760    -1.0920383179    -1.0606326767
    6      O      -1.5762705766    -0.7445200753    -1.7038154961
    7      C      -1.8177489353    -0.0484401648    -2.9837690364
    8      C      -0.9375336967     1.2481678565    -2.9871387639
    9      O       0.4872086964     0.9119144755    -2.7389498042
   10      C       0.7934608625     0.9947539329    -1.3434230405
   11      C       2.2984671730     0.6259432863    -1.1510522875
   12      C       2.9067566498     1.1419754512     0.2163376605
   13      C       1.8236977135     1.6686840454     1.2311945442
   14      O       1.2819919657     1.0137717570     2.1534136287
   15      O      -2.8010703061     1.0276393052     0.1445500385
   16      O       1.6284326845     3.0646567940     1.0156695742
   17      O      -0.0110838046     1.3644110488    -0.4587501349
   18      C       0.5653285889     3.5700605673     1.9205293310
   19      C       2.5576540506    -0.9457294223    -1.0237544400
   20      C       4.0730538035    -1.1995947149    -1.3862899686
   21      C       4.7858433889    -0.5972822505    -0.1184374406
   22      C       3.5451422032    -0.1947681777     0.7740842253
   23      O       2.5156920126    -1.2028286303     0.4312696141
   24      H       2.8533576955     1.0330223020    -2.0149676817
   25      H       3.6508272460     1.9399162235     0.0457007421
   26      H       1.8151316699    -1.5787405442    -1.5463547776
   27      H       4.2661066151    -2.2802034034    -1.4810566524
   28      H       4.3711872072    -0.7028178040    -2.3230961281
   29      H       5.4036973187    -1.3503643439     0.3954903067
   30      H       5.4185380475     0.2716630510    -0.3609344772
   31      H       3.7261357819    -0.1883285992     1.8660656585
   32      O      -3.9394194695    -0.9381181144    -1.5784561146
   33      C      -2.9171663446     2.4972769809     0.0226376035
   34      C      -0.3453202600    -1.3493637971     1.4794302603
   35      C      -0.3026492100    -2.6717886448     2.3348142159
   36      C      -1.0320914164    -3.6780687761     1.3680840008
   37      C      -1.2279284891    -2.7822145529     0.0795238646
   38      O      -0.0819886783    -1.8484067140     0.1118749158
   39      H      -2.3569086594    -1.1204796428     2.3942023717
   40      H      -3.3700187521    -2.3271360830     0.6423584399
   41      H      -1.9258928237     2.9561931489    -0.1698884905
   42      H       0.3832896344    -0.5489266030     1.7610287341
   43      H       0.7434744579    -2.9710507406     2.5078680852
   44      H      -0.8092795873    -2.5678396668     3.3074581051
   45      H      -0.4043438804    -4.5534680331     1.1382046663
   46      H      -1.9946169714    -4.0319271037     1.7713222483
   47      H      -1.2524681212    -3.3376801700    -0.8779858853
   48      H      -3.3479138888     2.9479403458     0.9397220605
   49      H      -3.5904680314     2.6793847765    -0.8351161907
   50      H       0.2540924502     4.5472359092     1.5079744182
   51      H       0.9614037264     3.7178475057     2.9459744059
   52      H      -0.2983336819     2.8641296917     1.9640599580
   53      H      -0.9783325761     1.7361390822    -3.9824394696
   54      H      -1.2983693737     1.9461625170    -2.2046278672
   55      H      -2.8994463274     0.1934543251    -3.0812461099
   56      H      -1.5171625935    -0.7151759761    -3.8207204543
 ----------------------------------------------------------------

    8   -1510.3040614094      7.27E-09 Convergence criterion met
 Total energy in the final basis set = -1510.30406141
 Final energy is   -1510.30406140936
 **  OPTIMIZATION CONVERGED  **

                    Orbital Energies (a.u.)
 --------------------------------------------------------------

 Alpha MOs
 -- Occupied --
-18.937 -18.936 -18.920 -18.919 -18.882 -18.880 -18.870 -18.870
-18.860 -18.860 -10.104 -10.099 -10.092 -10.090 -10.073 -10.065
-10.064 -10.054 -10.053 -10.047 -10.035 -10.034 -10.030 -10.028
-10.027 -10.025 -10.016 -10.015 -10.007 -10.001  -1.017  -1.009
 -0.999  -0.995  -0.965  -0.953  -0.940  -0.932  -0.925  -0.921
 -0.759  -0.750  -0.722  -0.714  -0.705  -0.696  -0.686  -0.660
 -0.645  -0.612  -0.590  -0.574  -0.539  -0.533  -0.530  -0.523
 -0.506  -0.502  -0.479  -0.477  -0.462  -0.451  -0.447  -0.430
 -0.428  -0.422  -0.420  -0.411  -0.408  -0.406  -0.397  -0.392
 -0.388  -0.375  -0.372  -0.365  -0.357  -0.347  -0.345  -0.342
 -0.339  -0.332  -0.328  -0.327  -0.322  -0.316  -0.307  -0.307
 -0.301  -0.300  -0.299  -0.290  -0.285  -0.281  -0.268  -0.268
 -0.264  -0.250  -0.243  -0.237  -0.233  -0.227  -0.215  -0.184
 -0.177  -0.162  -0.158  -0.154  -0.150  -0.142  -0.140  -0.138
 -0.125

          Ground-State Mulliken Net Atomic Charges

     Atom                 Charge (a.u.)
  ----------------------------------------
      1 O                    -0.215501
      2 C                     0.227133
      3 C                    -0.080082
      4 C                    -0.079363
      5 C                     0.219846
      6 O                    -0.173127
      7 C                    -0.053471
      8 C                    -0.050701
      9 O                    -0.170537
     10 C                     0.224539
     11 C                    -0.078971
     12 C                    -0.080808
     13 C                     0.220901
     14 O                    -0.218162
     15 O                    -0.166129
     16 O                    -0.174808
     17 O                    -0.213855
     18 C                    -0.144386
     19 C                     0.029223
     20 C                    -0.143233
     21 C                    -0.145262
     22 C                     0.024450
     23 O                    -0.182702
     24 H                     0.085261
     25 H                     0.083583
     26 H                     0.095626
     27 H                     0.077353
     28 H                     0.072500
     29 H                     0.076986
     30 H                     0.072224
     31 H                     0.084735
     32 O                    -0.223289
     33 C                    -0.127387
     34 C                     0.015716
     35 C                    -0.142620
     36 C                    -0.145797
     37 C                     0.026193
     38 O                    -0.189091
     39 H                     0.083559
     40 H                     0.081601
     41 H                     0.094375
     42 H                     0.116677
     43 H                     0.078999
     44 H                     0.069779
     45 H                     0.074435
     46 H                     0.069487
     47 H                     0.077158
     48 H                     0.090615
     49 H                     0.089485
     50 H                     0.077261
     51 H                     0.077759
     52 H                     0.118123
     53 H                     0.087555
     54 H                     0.094823
     55 H                     0.099407
     56 H                     0.081914
  ----------------------------------------
  Sum of atomic charges =    -0.000000

                    Cartesian Multipole Moments
 -----------------------------------------------------------------
    Charge (ESU x 10^10)
                 0.0000
    Dipole Moment (Debye)
         X       0.9143      Y       0.7282      Z      -1.7848
       Tot       2.1335
    Quadrupole Moments (Debye-Ang)
        XX    -155.0377     XY      -2.2792     YY    -152.1425
        XZ      -3.3151     YZ      -4.2738     ZZ    -156.5619

 Total job time:  120.93s(wall), 5770.57s(cpu)
        *  Thank you very much for using Q-Chem.  Have a nice day.  *
