 Q-Chem 5.0, Q-Chem, Inc., Pleasanton, CA (2017)
 Q-Chem 5.0.1 for Intel X86 EM64T Linux

User input:
--------------------------------------------------------------
$molecule
0  1
O -3.94934 -3.66094 2.70899
C -3.26408 -4.56952 2.26188
C -3.36658 -6.02376 2.66595
C -2.94965 -7.07382 1.62317
C -2.30923 -6.54961 0.357
O -1.09216 -6.00097 0.6454
C -0.39729 -5.53086 -0.51451
C 0.93111 -4.8992 -0.11139
O 1.61638 -5.75234 0.81889
C 1.46183 -5.43133 2.1274
C 2.48215 -6.09585 3.02072
C 2.58432 -5.50791 4.4357
C 1.44003 -4.61067 4.86265
O 0.62197 -4.87095 5.73305
O -2.16254 -4.11864 1.61203
O 1.45488 -3.34843 4.35136
O 0.51968 -4.74863 2.49997
C 0.53803 -2.3686 4.67195
C 2.17411 -7.57115 3.32022
C 3.4679 -8.29528 3.6835
C 3.76181 -7.68354 5.03887
C 2.50244 -6.82905 5.235
O 1.49743 -7.54048 4.55198
H 3.46374 -6.00279 2.50162
H 3.53395 -4.96225 4.63005
H 1.65383 -8.09155 2.48637
H 3.20778 -9.36887 3.82564
H 4.28869 -8.21332 2.93886
H 3.80635 -8.50344 5.78972
H 4.68386 -7.06507 5.09222
H 2.32644 -6.65732 6.31984
O -2.76017 -6.72332 -0.7688
C -1.94234 -2.78948 1.28484
C -2.37798 -6.38308 3.79995
C -2.88863 -7.60273 4.56638
C -2.6552 -8.69785 3.5437
C -1.9436 -7.90148 2.44436
O -1.24567 -6.90644 3.15093
H -4.39873 -6.17561 3.05529
H -3.82965 -7.67474 1.3022
H -1.88787 -2.16971 2.2053
H -2.19158 -5.53927 4.50035
H -2.19111 -7.76261 5.42004
H -3.92717 -7.52703 4.95412
H -1.97026 -9.4536 3.98838
H -3.57327 -9.19345 3.1603
H -1.32963 -8.57111 1.80265
H -2.75931 -2.41844 0.62965
H -0.99121 -2.68034 0.73851
H 0.78013 -1.44509 4.10729
H 0.57976 -2.14555 5.75942
H -0.48625 -2.69905 4.39555
H 1.56345 -4.72972 -1.00822
H 0.76385 -3.8898 0.31419
H -0.99508 -4.79119 -1.09366
H -0.16901 -6.40705 -1.16288
$end

$opt
CONSTRAINT
tors           1           2           3           4    +152.432
tors           3           4           5           6     +67.115
tors           4           5           6           7    +177.558
tors           5           6           7           8    +178.446
tors           6           7           8           9     +46.661
tors           7           8           9          10     -97.262
tors           8           9          10          11    -164.014
tors           9          10          11          12    +165.309
tors          11          12          13          14    +112.212
ENDCONSTRAINT
$end

$rem
JOBTYPE                   OPT
METHOD                    B3LYP
DFT_D                     d3_op
BASIS                     STO-3G
GEOM_OPT_MAX_CYCLES       100
GEOM_OPT_TOL_GRADIENT     300
GEOM_OPT_TOL_DISPLACEMENT 1200
GEOM_OPT_TOL_ENERGY       100
SYMMETRY                  False
THRESH                    12
SCF_CONVERGENCE           8
MAX_SUB_FILE_NUM          128
MEM_STATIC                400
MEM_TOTAL                 4000
$end
--------------------------------------------------------------

   15   -1510.1458298587      6.69E-09 Convergence criterion met
 Total energy in the final basis set = -1510.14582986
   14   -1510.2177288523      8.07E-09 Convergence criterion met
 Total energy in the final basis set = -1510.21772885
   14   -1510.2537285457      8.77E-09 Convergence criterion met
 Total energy in the final basis set = -1510.25372855
   15   -1510.2698640517      2.12E-09 Convergence criterion met
 Total energy in the final basis set = -1510.26986405
   14   -1510.2773396744      4.97E-09 Convergence criterion met
 Total energy in the final basis set = -1510.27733967
   14   -1510.2803364608      5.96E-09 Convergence criterion met
 Total energy in the final basis set = -1510.28033646
   13   -1510.2811800157      8.22E-09 Convergence criterion met
 Total energy in the final basis set = -1510.28118002
   14   -1510.2820388828      3.57E-09 Convergence criterion met
   11   -1510.2841107192      5.64E-09 Convergence criterion met
 Total energy in the final basis set = -1510.28411072
   11   -1510.2841627489      4.91E-09 Convergence criterion met
 Total energy in the final basis set = -1510.28416275
   11   -1510.2841887670      5.76E-09 Convergence criterion met
 Total energy in the final basis set = -1510.28418877
   11   -1510.2842078027      4.75E-09 Convergence criterion met
 Total energy in the final basis set = -1510.28420780
    9   -1510.2842166576      9.92E-09 Convergence criterion met
 Total energy in the final basis set = -1510.28421666
    9   -1510.2842191279      8.97E-09 Convergence criterion met
 Total energy in the final basis set = -1510.28421913

             Standard Nuclear Orientation (Angstroms)
    I     Atom           X                Y                Z
 ----------------------------------------------------------------
    1      O       3.2964323571    -1.2187650414     2.4861165522
    2      C       2.9451288523    -0.6684319464     1.4179280731
    3      C       2.4074815236     0.7978228120     1.3046799830
    4      C       2.6044642051     1.6104790159    -0.0451037155
    5      C       2.8975008342     0.7497184104    -1.3300369714
    6      O       1.7158462442    -0.0005454760    -1.6066376944
    7      C       1.8242521731    -0.8194495578    -2.8295801432
    8      C       0.4454955523    -1.5705937639    -2.9011237491
    9      O      -0.6871025049    -0.6398755055    -2.6667167866
   10      C      -1.0854431387    -0.7282516439    -1.2893690349
   11      C      -2.5000979833    -0.0917753663    -1.0875444872
   12      C      -3.1237654789    -0.4978369360     0.3105701445
   13      C      -2.1844386336    -1.4154966249     1.1859811671
   14      O      -1.6208004642    -1.1148297994     2.2616829521
   15      O       2.9918417098    -1.3278813287     0.1500778043
   16      O      -2.3468155138    -2.7679796153     0.7133383968
   17      O      -0.4483506306    -1.3711838738    -0.4218850531
   18      C      -1.4696446444    -3.6713001999     1.4870571928
   19      C      -2.4778279968     1.4948425065    -0.9468445882
   20      C      -3.9596624472     2.0168414123    -1.1266149699
   21      C      -4.5989437436     1.5980415242     0.2510211794
   22      C      -3.3631923312     0.9215527738     0.9666622908
   23      O      -2.2132846895     1.7223260102     0.4904166289
   24      H      -3.1382100429    -0.4022163650    -1.9340992977
   25      H      -4.0730232856    -1.0443522592     0.1645472416
   26      H      -1.7157261490     2.0001804682    -1.5703752716
   27      H      -3.9668729586     3.1106275563    -1.2582842527
   28      H      -4.4645436918     1.5543694362    -1.9899794768
   29      H      -4.9397112858     2.4767793620     0.8211915568
   30      H      -5.4454912832     0.9028852039     0.1339149125
   31      H      -3.3919908736     0.9103118217     2.0734180506
   32      O       3.9332509616     0.7341677084    -2.0290961814
   33      C       3.4796406125    -2.7150395268     0.3165314814
   34      C       0.8126766385     0.9249446539     1.4960656252
   35      C       0.5412630768     2.3205568077     2.1758599967
   36      C       0.9266743642     3.2970058453     1.0026921372
   37      C       1.1731210213     2.2778323828    -0.1813341829
   38      O       0.2894074725     1.1402508216     0.1337971073
   39      H       2.9019666309     1.3453133494     2.1275037092
   40      H       3.4173735756     2.3512377631     0.0580555529
   41      H       2.8086418362    -3.3067197532     0.9722558568
   42      H       0.2999417918     0.0572725443     1.9628253752
   43      H      -0.5297589966     2.4038031958     2.4206878166
   44      H       1.1388619040     2.4808643863     3.0876588100
   45      H       0.0983690084     3.9797264512     0.7565539728
   46      H       1.8257451085     3.8951849425     1.2235407833
   47      H       0.9518714794     2.6716329504    -1.1921853648
   48      H       4.5033141763    -2.7431534512     0.7428897239
   49      H       3.4888385054    -3.1554286134    -0.6975669480
   50      H      -1.7199941491    -4.6990937607     1.1653248412
   51      H      -1.6362452739    -3.5701146415     2.5790074850
   52      H      -0.3999181888    -3.4667232827     1.2737347079
   53      H       0.2975463606    -2.0042835199    -3.9116072556
   54      H       0.4295781020    -2.3701779195    -2.1313813496
   55      H       2.6623231661    -1.5481735052    -2.7674265995
   56      H       1.9790762286    -0.1801770945    -3.7267817388
 ----------------------------------------------------------------

    9   -1510.2842188200      6.24E-09 Convergence criterion met
 Total energy in the final basis set = -1510.28421882
 Final energy is   -1510.28421882002
 **  OPTIMIZATION CONVERGED  **

                    Orbital Energies (a.u.)
 --------------------------------------------------------------

 Alpha MOs
 -- Occupied --
-18.936 -18.932 -18.922 -18.912 -18.883 -18.883 -18.877 -18.864
-18.862 -18.853 -10.103 -10.092 -10.091 -10.087 -10.073 -10.070
-10.062 -10.057 -10.053 -10.051 -10.050 -10.044 -10.036 -10.029
-10.029 -10.027 -10.018 -10.016 -10.009 -10.005  -1.016  -1.007
 -0.998  -0.991  -0.967  -0.959  -0.938  -0.929  -0.925  -0.918
 -0.759  -0.752  -0.723  -0.715  -0.706  -0.697  -0.690  -0.657
 -0.651  -0.611  -0.592  -0.573  -0.542  -0.534  -0.532  -0.526
 -0.508  -0.503  -0.484  -0.478  -0.461  -0.454  -0.448  -0.429
 -0.425  -0.424  -0.417  -0.409  -0.406  -0.403  -0.399  -0.397
 -0.389  -0.377  -0.367  -0.365  -0.354  -0.348  -0.343  -0.340
 -0.339  -0.329  -0.328  -0.327  -0.325  -0.322  -0.316  -0.308
 -0.303  -0.300  -0.298  -0.291  -0.289  -0.286  -0.271  -0.268
 -0.265  -0.250  -0.241  -0.240  -0.237  -0.229  -0.220  -0.178
 -0.174  -0.163  -0.159  -0.153  -0.146  -0.142  -0.139  -0.137
 -0.123

          Ground-State Mulliken Net Atomic Charges

     Atom                 Charge (a.u.)
  ----------------------------------------
      1 O                    -0.217193
      2 C                     0.208298
      3 C                    -0.080956
      4 C                    -0.078809
      5 C                     0.216000
      6 O                    -0.165093
      7 C                    -0.043350
      8 C                    -0.048456
      9 O                    -0.169353
     10 C                     0.232831
     11 C                    -0.076419
     12 C                    -0.080254
     13 C                     0.219896
     14 O                    -0.227500
     15 O                    -0.166226
     16 O                    -0.179516
     17 O                    -0.198651
     18 C                    -0.129126
     19 C                     0.030969
     20 C                    -0.144162
     21 C                    -0.144473
     22 C                     0.024064
     23 O                    -0.184226
     24 H                     0.085219
     25 H                     0.082792
     26 H                     0.085568
     27 H                     0.076251
     28 H                     0.072387
     29 H                     0.076457
     30 H                     0.072397
     31 H                     0.086631
     32 O                    -0.220553
     33 C                    -0.125827
     34 C                     0.027490
     35 C                    -0.140759
     36 C                    -0.144610
     37 C                     0.027312
     38 O                    -0.183444
     39 H                     0.084117
     40 H                     0.081383
     41 H                     0.089418
     42 H                     0.099953
     43 H                     0.085342
     44 H                     0.070829
     45 H                     0.077460
     46 H                     0.070111
     47 H                     0.076675
     48 H                     0.089642
     49 H                     0.086432
     50 H                     0.083693
     51 H                     0.087490
     52 H                     0.087200
     53 H                     0.086084
     54 H                     0.098190
     55 H                     0.087087
     56 H                     0.083284
  ----------------------------------------
  Sum of atomic charges =     0.000000

                    Cartesian Multipole Moments
 -----------------------------------------------------------------
    Charge (ESU x 10^10)
                -0.0000
    Dipole Moment (Debye)
         X      -1.9523      Y      -0.4337      Z      -2.1160
       Tot       2.9115
    Quadrupole Moments (Debye-Ang)
        XX    -158.1729     XY      -3.2793     YY    -147.7045
        XZ       1.2911     YZ       5.2353     ZZ    -161.7526

 Total job time:  64.42s(wall), 3065.20s(cpu)
        *  Thank you very much for using Q-Chem.  Have a nice day.  *
