 Q-Chem 5.0, Q-Chem, Inc., Pleasanton, CA (2017)
 Q-Chem 5.0.1 for Intel X86 EM64T Linux

User input:
--------------------------------------------------------------
$molecule
0  1
O -3.94934 -3.66094 2.70899
C -3.26408 -4.56952 2.26188
C -3.36658 -6.02376 2.66595
C -2.83571 -7.06861 1.6708
C -2.10041 -6.53537 0.46123
O -0.82715 -6.18477 0.80954
C 0.01209 -5.91773 -0.31901
C 1.40835 -5.5185 0.14705
O 1.83844 -6.38878 1.2056
C 1.78475 -5.86006 2.45328
C 2.47873 -6.71646 3.48557
C 2.76224 -6.01646 4.8227
C 2.01391 -4.7205 5.06181
O 1.17991 -4.53453 5.93613
O -2.11646 -4.17584 1.65041
O 2.40732 -3.65955 4.3058
O 0.86952 -5.09985 2.74532
C 1.86931 -2.39311 4.40206
C 1.64735 -7.92229 3.96285
C 2.58172 -9.00874 4.49033
C 3.07875 -8.35791 5.76517
C 2.21161 -7.0925 5.78276
O 1.02084 -7.48157 5.14194
H 3.41493 -7.09376 3.01354
H 3.84267 -5.80856 4.98481
H 0.98444 -8.33891 3.17532
H 1.93977 -9.87799 4.76077
H 3.37594 -9.34702 3.79061
H 2.83145 -9.02704 6.61894
H 4.16064 -8.10295 5.77827
H 2.10576 -6.7177 6.82463
O -2.49687 -6.67885 -0.68942
C -1.7842 -2.8737 1.33587
C -2.49298 -6.35986 3.89377
C -3.05903 -7.58256 4.61467
C -2.71471 -8.67931 3.62603
C -1.9093 -7.87989 2.5958
O -1.29752 -6.86939 3.35939
H -4.4312 -6.19575 2.94384
H -3.67514 -7.68353 1.27559
H -1.72522 -2.25853 2.25894
H -2.38768 -5.50902 4.60224
H -2.44487 -7.72887 5.53241
H -4.13102 -7.51895 4.90004
H -2.0669 -9.42419 4.13952
H -3.58525 -9.18792 3.1582
H -1.23003 -8.54765 2.02187
H -2.53862 -2.44465 0.64248
H -0.79334 -2.86284 0.83747
H 2.37171 -1.72818 3.67008
H 2.02749 -1.98596 5.42353
H 0.78249 -2.42136 4.17206
H 2.1357 -5.5284 -0.69181
H 1.34775 -4.45872 0.48951
H -0.40295 -5.12223 -0.97874
H 0.11678 -6.86057 -0.90242
$end

$opt
CONSTRAINT
tors           1           2           3           4    +157.613
tors           3           4           5           6     +78.413
tors           4           5           6           7    +168.556
tors           5           6           7           8    +179.346
tors           6           7           8           9     +43.900
tors           7           8           9          10    -103.659
tors           8           9          10          11    -169.465
tors           9          10          11          12    +165.145
tors          11          12          13          14    +115.296
ENDCONSTRAINT
$end

$rem
JOBTYPE                   OPT
METHOD                    B3LYP
DFT_D                     d3_op
BASIS                     STO-3G
GEOM_OPT_MAX_CYCLES       100
GEOM_OPT_TOL_GRADIENT     300
GEOM_OPT_TOL_DISPLACEMENT 1200
GEOM_OPT_TOL_ENERGY       100
SYMMETRY                  False
THRESH                    12
SCF_CONVERGENCE           8
MAX_SUB_FILE_NUM          128
MEM_STATIC                400
MEM_TOTAL                 4000
$end
--------------------------------------------------------------

   15   -1510.1388120078      6.56E-09 Convergence criterion met
 Total energy in the final basis set = -1510.13881201
   14   -1510.2100292295      4.66E-09 Convergence criterion met
 Total energy in the final basis set = -1510.21002923
   14   -1510.2482591557      9.70E-09 Convergence criterion met
 Total energy in the final basis set = -1510.24825916
   14   -1510.2624885258      7.19E-09 Convergence criterion met
 Total energy in the final basis set = -1510.26248853
   14   -1510.2725490482      9.94E-09 Convergence criterion met
 Total energy in the final basis set = -1510.27254905
   13   -1510.2772529683      4.85E-09 Convergence criterion met
 Total energy in the final basis set = -1510.27725297
   13   -1510.2802413823      4.39E-09 Convergence criterion met
 Total energy in the final basis set = -1510.28024138
   13   -1510.2816607891      6.47E-09 Convergence criterion met
   11   -1510.2832937096      3.63E-09 Convergence criterion met
 Total energy in the final basis set = -1510.28329371
   11   -1510.2833446821      2.24E-09 Convergence criterion met
 Total energy in the final basis set = -1510.28334468
   10   -1510.2833747249      5.57E-09 Convergence criterion met
 Total energy in the final basis set = -1510.28337472
    9   -1510.2833889998      7.34E-09 Convergence criterion met
 Total energy in the final basis set = -1510.28338900
    9   -1510.2833861989      7.95E-09 Convergence criterion met
 Total energy in the final basis set = -1510.28338620
    9   -1510.2833875624      6.16E-09 Convergence criterion met
 Total energy in the final basis set = -1510.28338756

             Standard Nuclear Orientation (Angstroms)
    I     Atom           X                Y                Z
 ----------------------------------------------------------------
    1      O      -3.5818359558     0.8110306554     2.7555162983
    2      C      -3.2089565361     0.4347888369     1.6218560344
    3      C      -2.7489539910    -1.0162106137     1.2533775553
    4      C      -2.8223336958    -1.4792835513    -0.2631170458
    5      C      -3.0102280148    -0.3280472991    -1.3212664929
    6      O      -1.7376547269     0.2996195611    -1.5148378101
    7      C      -1.7527847281     1.2051171580    -2.6796950625
    8      C      -0.3085619414     1.8174328815    -2.7422485471
    9      O       0.7391912405     0.7884276778    -2.5258880092
   10      C       1.2753896342     0.8925221661    -1.1995329599
   11      C       2.5484046781    -0.0151171900    -1.0951870637
   12      C       3.4218722725     0.3087964790     0.1848135097
   13      C       2.8800481639     1.4992552587     1.0616813109
   14      O       2.4525972185     1.4432232687     2.2338520821
   15      O      -3.1329896840     1.3039749370     0.4909232009
   16      O       3.1613598930     2.7228502830     0.3590583031
   17      O       0.8073341268     1.6332727515    -0.3060166345
   18      C       2.6212804910     3.8674398037     1.1234412074
   19      C       2.1901523171    -1.5416815517    -0.8190955229
   20      C       3.4896575834    -2.4064793322    -1.0767574446
   21      C       4.3330162470    -2.0844867076     0.2130771603
   22      C       3.3734359539    -1.0729871889     0.9548198133
   23      O       2.0220414781    -1.5968235000     0.6491406174
   24      H       3.1272267568     0.0927772601    -2.0297125058
   25      H       4.4537305797     0.5657298980    -0.1164108877
   26      H       1.2772946965    -1.8951104143    -1.3325821226
   27      H       3.2334638060    -3.4761432912    -1.1373519503
   28      H       4.0032367918    -2.1130242322    -2.0060538982
   29      H       4.4936550329    -2.9858442121     0.8260692278
   30      H       5.3124889573    -1.6369100226    -0.0195682368
   31      H       3.5136983871    -0.9846646912     2.0495350185
   32      O      -4.0365818182    -0.0681657155    -1.9855358691
   33      C      -3.5662210160     2.6703228963     0.8566856700
   34      C      -1.1956056776    -1.2700857012     1.5664861682
   35      C      -1.0188235119    -2.8054961320     1.8761935438
   36      C      -1.2547675863    -3.4208358166     0.4472832058
   37      C      -1.3827262160    -2.1155240207    -0.4353363397
   38      O      -0.5308885974    -1.1231314688     0.2573867550
   39      H      -3.3597030370    -1.6915504272     1.8795860664
   40      H      -3.6399625597    -2.2067549884    -0.4113488701
   41      H      -2.9022422988     3.1128828328     1.6270502332
   42      H      -0.7491605853    -0.5793483974     2.3077394167
   43      H       0.0084533713    -2.9967948744     2.2259196188
   44      H      -1.7329839093    -3.1744518473     2.6297333607
   45      H      -0.3954176752    -4.0264773839     0.1191052409
   46      H      -2.1646111442    -4.0402631666     0.3953642816
   47      H      -1.0663607022    -2.2307466819    -1.4895862455
   48      H      -4.6078740260     2.6805009498     1.2377391606
   49      H      -3.5045451781     3.2655779406    -0.0728134772
   50      H       2.9063206321     4.7764192917     0.5622464358
   51      H       3.0440219061     3.9148191739     2.1479952277
   52      H       1.5159268678     3.8102891013     1.2002527209
   53      H      -0.1292759045     2.2618554006    -3.7431845487
   54      H      -0.2117576683     2.5950477298    -1.9549987223
   55      H      -2.5063514232     2.0160348255    -2.5677218441
   56      H      -1.9873631413     0.6419711728    -3.6100670872
 ----------------------------------------------------------------

    9   -1510.2833878320      3.19E-09 Convergence criterion met
 Total energy in the final basis set = -1510.28338783
 Final energy is   -1510.28338783198
 **  OPTIMIZATION CONVERGED  **

                    Orbital Energies (a.u.)
 --------------------------------------------------------------

 Alpha MOs
 -- Occupied --
-18.936 -18.932 -18.921 -18.914 -18.882 -18.881 -18.879 -18.868
-18.861 -18.857 -10.100 -10.096 -10.093 -10.086 -10.071 -10.069
-10.064 -10.055 -10.054 -10.052 -10.051 -10.051 -10.034 -10.032
-10.031 -10.028 -10.016 -10.015 -10.014 -10.011  -1.013  -1.009
 -0.998  -0.992  -0.966  -0.961  -0.937  -0.932  -0.925  -0.920
 -0.758  -0.755  -0.724  -0.716  -0.709  -0.698  -0.692  -0.659
 -0.651  -0.611  -0.594  -0.573  -0.541  -0.537  -0.533  -0.529
 -0.512  -0.502  -0.484  -0.476  -0.464  -0.453  -0.446  -0.429
 -0.428  -0.426  -0.419  -0.410  -0.408  -0.402  -0.401  -0.399
 -0.390  -0.374  -0.371  -0.365  -0.356  -0.347  -0.346  -0.342
 -0.336  -0.331  -0.328  -0.327  -0.327  -0.321  -0.320  -0.308
 -0.304  -0.301  -0.298  -0.294  -0.291  -0.289  -0.272  -0.270
 -0.265  -0.247  -0.242  -0.240  -0.237  -0.229  -0.224  -0.177
 -0.175  -0.164  -0.160  -0.153  -0.149  -0.141  -0.140  -0.137
 -0.130

          Ground-State Mulliken Net Atomic Charges

     Atom                 Charge (a.u.)
  ----------------------------------------
      1 O                    -0.215421
      2 C                     0.209485
      3 C                    -0.080588
      4 C                    -0.079395
      5 C                     0.218325
      6 O                    -0.167631
      7 C                    -0.044460
      8 C                    -0.050052
      9 O                    -0.171718
     10 C                     0.227197
     11 C                    -0.076425
     12 C                    -0.080379
     13 C                     0.217290
     14 O                    -0.218380
     15 O                    -0.165240
     16 O                    -0.178639
     17 O                    -0.202796
     18 C                    -0.128649
     19 C                     0.029979
     20 C                    -0.144686
     21 C                    -0.144256
     22 C                     0.023502
     23 O                    -0.183767
     24 H                     0.084731
     25 H                     0.081945
     26 H                     0.086443
     27 H                     0.075311
     28 H                     0.072227
     29 H                     0.075986
     30 H                     0.072099
     31 H                     0.087537
     32 O                    -0.222236
     33 C                    -0.124862
     34 C                     0.030296
     35 C                    -0.141663
     36 C                    -0.145122
     37 C                     0.026509
     38 O                    -0.179328
     39 H                     0.084463
     40 H                     0.082446
     41 H                     0.092087
     42 H                     0.091001
     43 H                     0.084658
     44 H                     0.072238
     45 H                     0.076553
     46 H                     0.071596
     47 H                     0.078502
     48 H                     0.090531
     49 H                     0.089552
     50 H                     0.084224
     51 H                     0.086122
     52 H                     0.090319
     53 H                     0.085454
     54 H                     0.098130
     55 H                     0.087029
     56 H                     0.081924
  ----------------------------------------
  Sum of atomic charges =     0.000000

                    Cartesian Multipole Moments
 -----------------------------------------------------------------
    Charge (ESU x 10^10)
                -0.0000
    Dipole Moment (Debye)
         X       1.4903      Y      -0.2649      Z      -2.3289
       Tot       2.7776
    Quadrupole Moments (Debye-Ang)
        XX    -158.8253     XY      -1.8594     YY    -144.2667
        XZ      -2.2308     YZ      -3.6727     ZZ    -163.5655

 Total job time:  59.65s(wall), 2836.84s(cpu)
        *  Thank you very much for using Q-Chem.  Have a nice day.  *
