 Q-Chem 5.0, Q-Chem, Inc., Pleasanton, CA (2017)
 Q-Chem 5.0.1 for Intel X86 EM64T Linux

User input:
--------------------------------------------------------------
$molecule
0  1
O -3.5818359558 0.8110306554 2.7555162983
C -3.2089565361 0.4347888369 1.6218560344
C -2.748953991 -1.0162106137 1.2533775553
C -2.8223336958 -1.4792835513 -0.2631170458
C -3.0102280148 -0.3280472991 -1.3212664929
O -1.7376547269 0.2996195611 -1.5148378101
C -1.7527847281 1.205117158 -2.6796950625
C -0.3085619414 1.8174328815 -2.7422485471
O 0.7391912405 0.7884276778 -2.5258880092
C 1.2753896342 0.8925221661 -1.1995329599
C 2.5484046781 -0.01511719 -1.0951870637
C 3.4218722725 0.308796479 0.1848135097
C 2.8800481639 1.4992552587 1.0616813109
O 2.4525972185 1.4432232687 2.2338520821
O -3.132989684 1.303974937 0.4909232009
O 3.161359893 2.722850283 0.3590583031
O 0.8073341268 1.6332727515 -0.3060166345
C 2.621280491 3.8674398037 1.1234412074
C 2.1901523171 -1.5416815517 -0.8190955229
C 3.4896575834 -2.4064793322 -1.0767574446
C 4.333016247 -2.0844867076 0.2130771603
C 3.3734359539 -1.0729871889 0.9548198133
O 2.0220414781 -1.5968235 0.6491406174
H 3.1272267568 0.0927772601 -2.0297125058
H 4.4537305797 0.565729898 -0.1164108877
H 1.2772946965 -1.8951104143 -1.3325821226
H 3.233463806 -3.4761432912 -1.1373519503
H 4.0032367918 -2.1130242322 -2.0060538982
H 4.4936550329 -2.9858442121 0.8260692278
H 5.3124889573 -1.6369100226 -0.0195682368
H 3.5136983871 -0.9846646912 2.0495350185
O -4.0365818182 -0.0681657155 -1.9855358691
C -3.566221016 2.6703228963 0.85668567
C -1.1956056776 -1.2700857012 1.5664861682
C -1.0188235119 -2.805496132 1.8761935438
C -1.2547675863 -3.4208358166 0.4472832058
C -1.382726216 -2.1155240207 -0.4353363397
O -0.5308885974 -1.1231314688 0.257386755
H -3.359703037 -1.6915504272 1.8795860664
H -3.6399625597 -2.2067549884 -0.4113488701
H -2.9022422988 3.1128828328 1.6270502332
H -0.7491605853 -0.5793483974 2.3077394167
H 0.0084533713 -2.9967948744 2.2259196188
H -1.7329839093 -3.1744518473 2.6297333607
H -0.3954176752 -4.0264773839 0.1191052409
H -2.1646111442 -4.0402631666 0.3953642816
H -1.0663607022 -2.2307466819 -1.4895862455
H -4.607874026 2.6805009498 1.2377391606
H -3.5045451781 3.2655779406 -0.0728134772
H 2.9063206321 4.7764192917 0.5622464358
H 3.0440219061 3.9148191739 2.1479952277
H 1.5159268678 3.8102891013 1.2002527209
H -0.1292759045 2.2618554006 -3.7431845487
H -0.2117576683 2.5950477298 -1.9549987223
H -2.5063514232 2.0160348255 -2.5677218441
H -1.9873631413 0.6419711728 -3.6100670872
$end

$rem
JOBTYPE                   OPT
METHOD                    B3LYP
DFT_D                     d3_op
BASIS                     STO-3G
GEOM_OPT_MAX_CYCLES       100
GEOM_OPT_TOL_GRADIENT     300
GEOM_OPT_TOL_DISPLACEMENT 1200
GEOM_OPT_TOL_ENERGY       100
SYMMETRY                  False
THRESH                    12
SCF_CONVERGENCE           8
MAX_SUB_FILE_NUM          128
MEM_STATIC                400
MEM_TOTAL                 4000
$end
--------------------------------------------------------------

   16   -1510.2833579652      5.01E-09 Convergence criterion met
 Total energy in the final basis set = -1510.28335797
   14   -1510.2846393220      2.31E-09 Convergence criterion met
 Total energy in the final basis set = -1510.28463932
   14   -1510.2858952747      5.08E-09 Convergence criterion met
 Total energy in the final basis set = -1510.28589527
   14   -1510.2873103482      6.32E-09 Convergence criterion met
 Total energy in the final basis set = -1510.28731035
   14   -1510.2853775031      8.61E-09 Convergence criterion met
 Total energy in the final basis set = -1510.28537750
   14   -1510.2873310867      2.30E-09 Convergence criterion met
 Total energy in the final basis set = -1510.28733109
   14   -1510.2727939389      6.54E-09 Convergence criterion met
 Total energy in the final basis set = -1510.27279394
   14   -1510.2911604892      6.83E-09 Convergence criterion met
   12   -1510.3040263063      4.02E-09 Convergence criterion met
 Total energy in the final basis set = -1510.30402631
   11   -1510.3040555134      9.70E-09 Convergence criterion met
 Total energy in the final basis set = -1510.30405551
   11   -1510.3040374307      9.51E-09 Convergence criterion met
 Total energy in the final basis set = -1510.30403743
   11   -1510.3040592950      9.53E-09 Convergence criterion met
 Total energy in the final basis set = -1510.30405929
   11   -1510.3040591522      3.05E-09 Convergence criterion met
 Total energy in the final basis set = -1510.30405915
   10   -1510.3040604346      7.65E-09 Convergence criterion met
 Total energy in the final basis set = -1510.30406043

             Standard Nuclear Orientation (Angstroms)
    I     Atom           X                Y                Z
 ----------------------------------------------------------------
    1      O      -1.2906769394     1.4401959669     2.3089693551
    2      C      -1.8782551731     0.8603494431     1.3670335486
    3      C      -2.0853675345    -0.6887572686     1.2550416198
    4      C      -2.8149511054    -1.2765533899    -0.0254575157
    5      C      -2.9662535907    -0.2887695461    -1.2359786118
    6      O      -1.6685189563    -0.1150265066    -1.8235324905
    7      C      -1.7153434686     0.8356475599    -2.9527834828
    8      C      -0.5757881403     1.8874606813    -2.7279660428
    9      O       0.7351576269     1.2100726471    -2.5634405596
   10      C       1.0134492324     0.9682377986    -1.1806798844
   11      C       2.3991311104     0.2564014096    -1.0796005980
   12      C       3.0644204375     0.3692896345     0.3525673811
   13      C       2.0968034293     0.9393324140     1.4567753081
   14      O       1.4092539553     0.2741583873     2.2676834891
   15      O      -2.5289994882     1.5542552381     0.3027835619
   16      O       2.2112840419     2.3604378819     1.4775404025
   17      O       0.2818612295     1.3306821703    -0.2322635355
   18      C       1.2628332763     2.9287723714     2.4679289889
   19      C       2.3126174598    -1.3296923630    -1.2494882557
   20      C       3.7499437069    -1.8338226013    -1.6646057582
   21      C       4.5327433867    -1.6440058176    -0.3119597235
   22      C       3.3774639495    -1.1538123459     0.6494389213
   23      O       2.1686336600    -1.8352664232     0.1323247492
   24      H       3.0514050724     0.6867856999    -1.8600819795
   25      H       3.9720764333     0.9975772543     0.3209781051
   26      H       1.4706567748    -1.6800633204    -1.8768261122
   27      H       3.7106227883    -2.8940439278    -1.9617812106
   28      H       4.1784126405    -1.2484678298    -2.4936529139
   29      H       4.9589300571    -2.5940338332     0.0472072094
   30      H       5.3437135719    -0.9024551058    -0.3921359448
   31      H       3.5193361409    -1.3863569158     1.7223268018
   32      O      -4.0196151354     0.1950694006    -1.7051125162
   33      C      -2.3262581791     3.0130593681     0.4409130026
   34      C      -0.6998735410    -1.4892782377     1.2277747728
   35      C      -0.9737528021    -2.9150321965     1.8405521657
   36      C      -1.8515745626    -3.5657754761     0.7068838796
   37      C      -1.8024791900    -2.4419449062    -0.4051448998
   38      O      -0.4894903763    -1.7935298464    -0.2044754600
   39      H      -2.6528727440    -0.9755907096     2.1603216847
   40      H      -3.8220444570    -1.6507095790     0.2303941719
   41      H      -1.2517407172     3.2742058631     0.3537993285
   42      H       0.1700671026    -0.9249490124     1.6469397404
   43      H      -0.0218495857    -3.4550895822     1.9681283687
   44      H      -1.4905936627    -2.8709768026     2.8123132700
   45      H      -1.4066008415    -4.5004321396     0.3307525697
   46      H      -2.8827708709    -3.7738524007     1.0348207148
   47      H      -1.9030018554    -2.8080103569    -1.4452695822
   48      H      -2.7056715749     3.3849021266     1.4143903700
   49      H      -2.8958496858     3.4789177235    -0.3841481857
   50      H       1.1940211052     4.0076030907     2.2370647860
   51      H       1.6497316141     2.8016688331     3.4996322247
   52      H       0.2601807294     2.4429878785     2.3943831193
   53      H      -0.4816435491     2.5455989591    -3.6159414945
   54      H      -0.7991316151     2.4928210765    -1.8261047226
   55      H      -2.7155919315     1.3213296144    -2.9935865548
   56      H      -1.5405079674     0.2810031526    -3.9000065950
 ----------------------------------------------------------------

    9   -1510.3040600301      3.14E-09 Convergence criterion met
 Total energy in the final basis set = -1510.30406003
 Final energy is   -1510.30406003014
 **  OPTIMIZATION CONVERGED  **

                    Orbital Energies (a.u.)
 --------------------------------------------------------------

 Alpha MOs
 -- Occupied --
-18.938 -18.936 -18.920 -18.919 -18.882 -18.880 -18.870 -18.869
-18.861 -18.861 -10.104 -10.099 -10.092 -10.090 -10.073 -10.065
-10.064 -10.054 -10.053 -10.047 -10.034 -10.034 -10.030 -10.028
-10.027 -10.025 -10.016 -10.015 -10.007 -10.001  -1.017  -1.009
 -0.999  -0.995  -0.964  -0.952  -0.940  -0.932  -0.925  -0.921
 -0.759  -0.750  -0.722  -0.714  -0.705  -0.696  -0.686  -0.660
 -0.645  -0.612  -0.590  -0.574  -0.540  -0.533  -0.530  -0.523
 -0.506  -0.502  -0.479  -0.477  -0.462  -0.451  -0.447  -0.430
 -0.428  -0.422  -0.420  -0.411  -0.409  -0.406  -0.397  -0.392
 -0.388  -0.375  -0.373  -0.365  -0.357  -0.347  -0.345  -0.342
 -0.339  -0.332  -0.328  -0.327  -0.322  -0.316  -0.307  -0.307
 -0.301  -0.300  -0.299  -0.289  -0.285  -0.281  -0.268  -0.267
 -0.264  -0.249  -0.244  -0.237  -0.233  -0.226  -0.215  -0.184
 -0.177  -0.162  -0.159  -0.154  -0.150  -0.142  -0.140  -0.138
 -0.125

          Ground-State Mulliken Net Atomic Charges

     Atom                 Charge (a.u.)
  ----------------------------------------
      1 O                    -0.216166
      2 C                     0.227400
      3 C                    -0.080019
      4 C                    -0.079446
      5 C                     0.219805
      6 O                    -0.173246
      7 C                    -0.053309
      8 C                    -0.050680
      9 O                    -0.170663
     10 C                     0.224883
     11 C                    -0.078900
     12 C                    -0.080711
     13 C                     0.221485
     14 O                    -0.218496
     15 O                    -0.166085
     16 O                    -0.174945
     17 O                    -0.213497
     18 C                    -0.144237
     19 C                     0.029564
     20 C                    -0.143226
     21 C                    -0.145202
     22 C                     0.024367
     23 O                    -0.182006
     24 H                     0.085266
     25 H                     0.083548
     26 H                     0.094648
     27 H                     0.077336
     28 H                     0.072436
     29 H                     0.076875
     30 H                     0.072103
     31 H                     0.084823
     32 O                    -0.223130
     33 C                    -0.127207
     34 C                     0.015418
     35 C                    -0.142750
     36 C                    -0.145747
     37 C                     0.026306
     38 O                    -0.188651
     39 H                     0.083508
     40 H                     0.081529
     41 H                     0.094137
     42 H                     0.116428
     43 H                     0.078876
     44 H                     0.069664
     45 H                     0.074486
     46 H                     0.069374
     47 H                     0.077195
     48 H                     0.090531
     49 H                     0.089503
     50 H                     0.077283
     51 H                     0.077965
     52 H                     0.117775
     53 H                     0.087486
     54 H                     0.094885
     55 H                     0.099426
     56 H                     0.082005
  ----------------------------------------
  Sum of atomic charges =    -0.000000

                    Cartesian Multipole Moments
 -----------------------------------------------------------------
    Charge (ESU x 10^10)
                 0.0000
    Dipole Moment (Debye)
         X       1.0890      Y       0.8547      Z      -1.6506
       Tot       2.1543
    Quadrupole Moments (Debye-Ang)
        XX    -155.6337     XY      -0.7011     YY    -150.3425
        XZ      -4.3475     YZ      -2.3198     ZZ    -157.7510

 Total job time:  116.29s(wall), 5537.16s(cpu)
        *  Thank you very much for using Q-Chem.  Have a nice day.  *
