 Q-Chem 5.0, Q-Chem, Inc., Pleasanton, CA (2017)
 Q-Chem 5.0.1 for Intel X86 EM64T Linux

User input:
--------------------------------------------------------------
$molecule
0  1
O -4.1715797875 -0.8531995653 2.0739769185
C -3.384040822 -0.5930496501 1.1363762354
C -2.5760635182 -1.6519079378 0.3134349444
C -2.3196905077 -1.3803516133 -1.23229347
C -2.5943452348 0.0850890498 -1.7375799954
O -1.5147613499 0.9261704106 -1.3221055374
C -1.6180778912 2.2697156971 -1.9310417442
C -0.3939755148 3.0895183922 -1.3843358292
O 0.8850628061 2.3671266924 -1.5849129833
C 1.1647330663 1.5339467947 -0.451705854
C 2.6168399316 0.9683177183 -0.5784490026
C 3.1383093097 0.3533537873 0.7832326355
C 2.1234175768 0.4675327035 1.9835307732
O 1.5497762971 -0.4689699343 2.5790935109
O -3.0890577653 0.736322821 0.7030231695
O 2.156773696 1.8274863288 2.4559788193
O 0.3989968054 1.3988190881 0.5284840717
C 1.1725631701 1.9953112801 3.5460583567
C 2.7048047351 -0.3044115732 -1.5305314517
C 4.2303792833 -0.5699452131 -1.8527987293
C 4.7223338029 -1.2008862864 -0.4965068754
C 3.3945878931 -1.1519938415 0.3589188034
O 2.3397271146 -1.4279362749 -0.6426467787
H 3.2718104436 1.7790712482 -0.9447438516
H 4.0756519006 0.8503733972 1.0915151912
H 2.0347495973 -0.2653425375 -2.4110985427
H 4.3293910834 -1.2795998591 -2.689552914
H 4.7669575287 0.3572285582 -2.1096742689
H 5.0549123697 -2.24218488 -0.6334785566
H 5.5397317479 -0.6270294593 -0.0314184809
H 3.3283510738 -1.8746027775 1.1951383425
O -3.5530347723 0.4712842525 -2.4416329949
C -3.8571182961 1.7158118961 1.5035371443
C -1.0776925504 -1.8606191894 0.8391612649
C -0.6542362556 -3.3372622384 0.4790026017
C -0.4954139022 -3.2252448064 -1.0826764673
C -0.7617118823 -1.6851592248 -1.3118790349
O -0.2577342981 -1.0487499251 -0.0764140996
H -3.1373507855 -2.5968461952 0.4291930928
H -2.9253258257 -2.0640238145 -1.8534956345
H -3.6456944724 1.6132425556 2.5872495554
H -0.8972629612 -1.5538662486 1.8878489332
H 0.3055023278 -3.5795901661 0.962402333
H -1.4077884945 -4.0811561212 0.7837863207
H 0.5271713736 -3.480688507 -1.4023893945
H -1.2122872393 -3.8577411325 -1.630965316
H -0.2625249245 -1.2541044545 -2.2002790698
H -4.9497989681 1.6058788294 1.3455589765
H -3.5314009348 2.7126636607 1.1536931305
H 1.2725738168 3.0395138351 3.8954763178
H 1.3677294924 1.3010392655 4.3890871145
H 0.139231854 1.8242077768 3.1797219251
H -0.3050538586 4.0450906403 -1.9403539788
H -0.5458876514 3.2892199352 -0.3025228945
H -2.5691314407 2.7739579684 -1.6498136389
H -1.5784253722 2.2017011097 -3.0407813979
$end

$rem
JOBTYPE                   OPT
METHOD                    B3LYP
DFT_D                     d3_op
BASIS                     STO-3G
GEOM_OPT_MAX_CYCLES       100
GEOM_OPT_TOL_GRADIENT     300
GEOM_OPT_TOL_DISPLACEMENT 1200
GEOM_OPT_TOL_ENERGY       100
SYMMETRY                  False
THRESH                    12
SCF_CONVERGENCE           8
MAX_SUB_FILE_NUM          128
MEM_STATIC                400
MEM_TOTAL                 4000
$end
--------------------------------------------------------------

   16   -1510.2846291773      5.87E-09 Convergence criterion met
 Total energy in the final basis set = -1510.28462918
   14   -1510.2847538633      2.43E-09 Convergence criterion met
 Total energy in the final basis set = -1510.28475386
   14   -1510.2872956265      4.69E-09 Convergence criterion met
 Total energy in the final basis set = -1510.28729563
   14   -1510.2859626204      4.83E-09 Convergence criterion met
 Total energy in the final basis set = -1510.28596262
   14   -1510.2884278585      5.43E-09 Convergence criterion met
 Total energy in the final basis set = -1510.28842786
   15   -1510.2753129763      4.81E-09 Convergence criterion met
 Total energy in the final basis set = -1510.27531298
   14   -1510.2897868485      6.94E-09 Convergence criterion met
 Total energy in the final basis set = -1510.28978685
   13   -1510.2903897391      6.33E-09 Convergence criterion met
   12   -1510.3000348748      1.91E-09 Convergence criterion met
 Total energy in the final basis set = -1510.30003487
   11   -1510.3000297127      7.40E-09 Convergence criterion met
 Total energy in the final basis set = -1510.30002971
   10   -1510.3000261156      9.85E-09 Convergence criterion met
 Total energy in the final basis set = -1510.30002612
    9   -1510.3000272439      8.41E-09 Convergence criterion met
 Total energy in the final basis set = -1510.30002724
    9   -1510.3000293394      4.20E-09 Convergence criterion met
 Total energy in the final basis set = -1510.30002934
    9   -1510.3000320872      7.21E-09 Convergence criterion met
 Total energy in the final basis set = -1510.30003209

             Standard Nuclear Orientation (Angstroms)
    I     Atom           X                Y                Z
 ----------------------------------------------------------------
    1      O      -4.6197641092     0.4134997666     1.0945461293
    2      C      -3.3925176729     0.1884443327     1.1744812358
    3      C      -2.7023288395    -1.2248878427     1.1181362684
    4      C      -1.8279867331    -1.4812815508    -0.1805199868
    5      C      -1.9754378875    -0.3230522835    -1.2206883906
    6      O      -1.1065530009    -0.5513134633    -2.3387293587
    7      C      -1.2874569681     0.5244602904    -3.3458230728
    8      C      -0.6721812705     1.9011848343    -2.8892455752
    9      O       0.7798384461     1.7737599379    -2.6300776202
   10      C       1.0065830546     1.2855274368    -1.2982594303
   11      C       2.5227548262     0.9098070203    -1.2095406491
   12      C       3.0714756645     0.5831250256     0.2393251959
   13      C       2.1105274657     0.8482267051     1.4578540433
   14      O       1.8703912117     0.0233076448     2.3660254786
   15      O      -2.4141187197     1.1981407900     1.4887539313
   16      O       1.6122936931     2.1853840685     1.4237468651
   17      O       0.1100262652     1.1303091044    -0.4433026439
   18      C       0.4844072814     2.3032512929     2.3815478520
   19      C       2.7004012069    -0.5058279117    -1.9164766900
   20      C       4.2362158147    -0.7939336308    -2.1367826286
   21      C       4.6898112235    -1.1879998536    -0.6816909955
   22      C       3.3505963018    -0.9742750025     0.1176782431
   23      O       2.3141493446    -1.4451216270    -0.8378613844
   24      H       3.1144801747     1.6944229478    -1.7131409088
   25      H       4.0113921187     1.1387150787     0.4137021679
   26      H       2.0572126984    -0.6490247841    -2.8066806658
   27      H       4.3754855747    -1.6254363233    -2.8457102463
   28      H       4.7659556528     0.0916347002    -2.5227004474
   29      H       5.0065056413    -2.2420382630    -0.6309170868
   30      H       5.5064242219    -0.5533282810    -0.3024574449
   31      H       3.2557283241    -1.5116928958     1.0817427117
   32      O      -2.7856604359     0.6307613054    -1.1642585143
   33      C      -3.0653013594     2.5257811921     1.4529757175
   34      C      -1.6019469760    -1.3879467414     2.2479724266
   35      C      -1.2197961431    -2.9158520779     2.3693645988
   36      C      -0.3173575185    -3.1022345769     1.0947931269
   37      C      -0.3751797032    -1.6596325498     0.4526521641
   38      O      -0.4077410510    -0.7700425216     1.6339022067
   39      H      -3.5049704549    -1.9784908214     1.2048947361
   40      H      -2.1399151344    -2.4143086954    -0.6859360780
   41      H      -3.9056940710     2.5919386890     2.1740015760
   42      H      -1.8488902086    -0.8860142652     3.2030668777
   43      H      -0.6558163604    -3.0995780367     3.2975626501
   44      H      -2.1088025279    -3.5665995409     2.3604904335
   45      H       0.7212077234    -3.3463727128     1.3690819116
   46      H      -0.6941399992    -3.8809048147     0.4125161043
   47      H       0.5014136716    -1.4225370235    -0.1985458616
   48      H      -3.4525097102     2.7517634312     0.4384007392
   49      H      -2.2852396093     3.2598988145     1.7230880962
   50      H       0.1713176028     3.3629063301     2.3495710860
   51      H       0.7960785947     2.0387589929     3.4121030380
   52      H      -0.3577309347     1.6424991903     2.0706789884
   53      H      -0.7810468520     2.6380739760    -3.7104949710
   54      H      -1.2087180112     2.2588221296    -1.9855187171
   55      H      -2.3650689493     0.6766859219    -3.5737955920
   56      H      -0.7661007147     0.1606701587    -4.2539166616
 ----------------------------------------------------------------

    9   -1510.3000333050      5.33E-09 Convergence criterion met
 Total energy in the final basis set = -1510.30003330
 Final energy is   -1510.30003330499
 **  OPTIMIZATION CONVERGED  **

                    Orbital Energies (a.u.)
 --------------------------------------------------------------

 Alpha MOs
 -- Occupied --
-18.936 -18.933 -18.913 -18.913 -18.900 -18.882 -18.878 -18.871
-18.860 -18.849 -10.102 -10.102 -10.084 -10.081 -10.077 -10.073
-10.066 -10.059 -10.047 -10.045 -10.040 -10.036 -10.033 -10.033
-10.028 -10.025 -10.023 -10.022 -10.006 -10.003  -1.021  -1.008
 -0.992  -0.988  -0.977  -0.953  -0.942  -0.936  -0.918  -0.914
 -0.765  -0.749  -0.728  -0.716  -0.708  -0.702  -0.687  -0.645
 -0.642  -0.619  -0.593  -0.575  -0.546  -0.539  -0.530  -0.523
 -0.512  -0.498  -0.481  -0.470  -0.457  -0.452  -0.448  -0.436
 -0.433  -0.424  -0.418  -0.415  -0.401  -0.399  -0.396  -0.390
 -0.387  -0.378  -0.367  -0.359  -0.354  -0.351  -0.347  -0.342
 -0.338  -0.335  -0.329  -0.325  -0.322  -0.317  -0.313  -0.311
 -0.305  -0.303  -0.299  -0.291  -0.288  -0.276  -0.270  -0.268
 -0.265  -0.253  -0.252  -0.240  -0.237  -0.232  -0.215  -0.194
 -0.167  -0.161  -0.156  -0.154  -0.152  -0.148  -0.136  -0.131
 -0.125

          Ground-State Mulliken Net Atomic Charges

     Atom                 Charge (a.u.)
  ----------------------------------------
      1 O                    -0.223231
      2 C                     0.214514
      3 C                    -0.081123
      4 C                    -0.078692
      5 C                     0.222399
      6 O                    -0.173411
      7 C                    -0.051364
      8 C                    -0.055273
      9 O                    -0.176902
     10 C                     0.216152
     11 C                    -0.077667
     12 C                    -0.081576
     13 C                     0.215597
     14 O                    -0.205679
     15 O                    -0.170168
     16 O                    -0.175451
     17 O                    -0.201193
     18 C                    -0.135441
     19 C                     0.026046
     20 C                    -0.143797
     21 C                    -0.143298
     22 C                     0.024348
     23 O                    -0.189261
     24 H                     0.087781
     25 H                     0.082786
     26 H                     0.086667
     27 H                     0.078951
     28 H                     0.075370
     29 H                     0.078848
     30 H                     0.075217
     31 H                     0.095257
     32 O                    -0.212600
     33 C                    -0.127556
     34 C                     0.026648
     35 C                    -0.144935
     36 C                    -0.143330
     37 C                     0.015619
     38 O                    -0.182662
     39 H                     0.080594
     40 H                     0.083246
     41 H                     0.084968
     42 H                     0.080904
     43 H                     0.076196
     44 H                     0.069705
     45 H                     0.076232
     46 H                     0.068493
     47 H                     0.106194
     48 H                     0.089224
     49 H                     0.084389
     50 H                     0.077228
     51 H                     0.082930
     52 H                     0.117093
     53 H                     0.089475
     54 H                     0.104266
     55 H                     0.092454
     56 H                     0.088818
  ----------------------------------------
  Sum of atomic charges =    -0.000000

                    Cartesian Multipole Moments
 -----------------------------------------------------------------
    Charge (ESU x 10^10)
                -0.0000
    Dipole Moment (Debye)
         X       2.4158      Y       0.1047      Z      -2.4759
       Tot       3.4608
    Quadrupole Moments (Debye-Ang)
        XX    -160.7949     XY       1.2790     YY    -153.0411
        XZ      -1.7502     YZ      -0.9067     ZZ    -151.7137

 Total job time:  241.69s(wall), 11535.89s(cpu)
        *  Thank you very much for using Q-Chem.  Have a nice day.  *
