 Q-Chem 5.0, Q-Chem, Inc., Pleasanton, CA (2017)
 Q-Chem 5.0.1 for Intel X86 EM64T Linux

User input:
--------------------------------------------------------------
$molecule
0  1
O -3.94934 -3.66094 2.70899
C -3.26408 -4.56952 2.26188
C -3.36658 -6.02376 2.66595
C -3.11494 -7.07596 1.57352
C -2.61482 -6.55989 0.24249
O -1.29009 -6.24103 0.33656
C -0.69681 -5.92117 -0.92636
C 0.77357 -5.56135 -0.7403
O 1.43936 -6.59296 0.00495
C 1.43134 -6.43681 1.35205
C 2.3267 -7.42279 2.06398
C 2.63349 -7.07808 3.52868
C 1.74101 -6.02949 4.16163
O 0.96157 -6.22465 5.08301
O -2.14532 -4.2016 1.5846
O 2.03034 -4.73769 3.83864
O 0.79491 -5.53306 1.87106
C 1.39022 -3.63875 4.37413
C 1.72511 -8.8298 2.19421
C 2.84995 -9.84953 2.35302
C 3.33936 -9.51427 3.74802
C 2.30798 -8.45383 4.15556
O 1.13802 -8.8366 3.47163
H 3.27684 -7.45823 1.48287
H 3.68941 -6.77768 3.70847
H 1.06178 -9.10608 1.3457
H 2.37329 -10.85589 2.37467
H 3.62876 -9.83048 1.56056
H 3.24225 -10.42473 4.38019
H 4.37575 -9.11678 3.80632
H 2.2313 -8.40728 5.26423
O -3.23995 -6.66199 -0.80646
C -1.81961 -2.90656 1.2381
C -2.2781 -6.44115 3.68116
C -2.75812 -7.64414 4.49235
C -2.69702 -8.7368 3.44218
C -2.071 -7.964 2.27585
O -1.25312 -7.0121 2.90791
H -4.35483 -6.1429 3.1656
H -4.05577 -7.62843 1.35327
H -1.7088 -2.28186 2.14997
H -1.97448 -5.61445 4.36041
H -1.97591 -7.84748 5.25903
H -3.74034 -7.52436 4.99781
H -2.00825 -9.53269 3.80311
H -3.67668 -9.17883 3.1589
H -1.56599 -8.65604 1.56678
H -2.60535 -2.47889 0.57954
H -0.85595 -2.909 0.68943
H 1.81911 -2.71663 3.93136
H 1.53542 -3.60856 5.47509
H 0.30467 -3.67722 4.13863
H 1.24738 -5.4692 -1.74038
H 0.88037 -4.56081 -0.26291
H -1.21882 -5.07107 -1.42109
H -0.74581 -6.81871 -1.58421
$end

$opt
CONSTRAINT
tors           1           2           3           4    +145.196
tors           3           4           5           6     +76.157
tors           4           5           6           7    +171.827
tors           5           6           7           8    +179.346
tors           6           7           8           9     +51.983
tors           7           8           9          10     -89.739
tors           8           9          10          11    -170.822
tors           9          10          11          12    +165.309
tors          11          12          13          14    +114.394
ENDCONSTRAINT
$end

$rem
JOBTYPE                   OPT
METHOD                    B3LYP
DFT_D                     d3_op
BASIS                     STO-3G
GEOM_OPT_MAX_CYCLES       100
GEOM_OPT_TOL_GRADIENT     300
GEOM_OPT_TOL_DISPLACEMENT 1200
GEOM_OPT_TOL_ENERGY       100
SYMMETRY                  False
THRESH                    12
SCF_CONVERGENCE           8
MAX_SUB_FILE_NUM          128
MEM_STATIC                400
MEM_TOTAL                 4000
$end
--------------------------------------------------------------

   15   -1510.1538537818      6.74E-09 Convergence criterion met
 Total energy in the final basis set = -1510.15385378
   14   -1510.2239720014      5.97E-09 Convergence criterion met
 Total energy in the final basis set = -1510.22397200
   14   -1510.2605290179      4.87E-09 Convergence criterion met
 Total energy in the final basis set = -1510.26052902
   14   -1510.2747309197      4.72E-09 Convergence criterion met
 Total energy in the final basis set = -1510.27473092
   15   -1510.2776451774      1.95E-09 Convergence criterion met
 Total energy in the final basis set = -1510.27764518
   14   -1510.2806762951      3.92E-09 Convergence criterion met
 Total energy in the final basis set = -1510.28067630
   13   -1510.2824681521      3.63E-09 Convergence criterion met
 Total energy in the final basis set = -1510.28246815
   12   -1510.2831304920      5.92E-09 Convergence criterion met
   11   -1510.2845455607      7.74E-09 Convergence criterion met
 Total energy in the final basis set = -1510.28454556
   11   -1510.2845593813      3.61E-09 Convergence criterion met
 Total energy in the final basis set = -1510.28455938
   11   -1510.2845801527      4.00E-09 Convergence criterion met
 Total energy in the final basis set = -1510.28458015
    9   -1510.2845926712      7.73E-09 Convergence criterion met
 Total energy in the final basis set = -1510.28459267
    9   -1510.2846006992      6.83E-09 Convergence criterion met
 Total energy in the final basis set = -1510.28460070
    9   -1510.2846029259      6.15E-09 Convergence criterion met
 Total energy in the final basis set = -1510.28460293

             Standard Nuclear Orientation (Angstroms)
    I     Atom           X                Y                Z
 ----------------------------------------------------------------
    1      O      -4.1715797875    -0.8531995653     2.0739769185
    2      C      -3.3840408220    -0.5930496501     1.1363762354
    3      C      -2.5760635182    -1.6519079378     0.3134349444
    4      C      -2.3196905077    -1.3803516133    -1.2322934700
    5      C      -2.5943452348     0.0850890498    -1.7375799954
    6      O      -1.5147613499     0.9261704106    -1.3221055374
    7      C      -1.6180778912     2.2697156971    -1.9310417442
    8      C      -0.3939755148     3.0895183922    -1.3843358292
    9      O       0.8850628061     2.3671266924    -1.5849129833
   10      C       1.1647330663     1.5339467947    -0.4517058540
   11      C       2.6168399316     0.9683177183    -0.5784490026
   12      C       3.1383093097     0.3533537873     0.7832326355
   13      C       2.1234175768     0.4675327035     1.9835307732
   14      O       1.5497762971    -0.4689699343     2.5790935109
   15      O      -3.0890577653     0.7363228210     0.7030231695
   16      O       2.1567736960     1.8274863288     2.4559788193
   17      O       0.3989968054     1.3988190881     0.5284840717
   18      C       1.1725631701     1.9953112801     3.5460583567
   19      C       2.7048047351    -0.3044115732    -1.5305314517
   20      C       4.2303792833    -0.5699452131    -1.8527987293
   21      C       4.7223338029    -1.2008862864    -0.4965068754
   22      C       3.3945878931    -1.1519938415     0.3589188034
   23      O       2.3397271146    -1.4279362749    -0.6426467787
   24      H       3.2718104436     1.7790712482    -0.9447438516
   25      H       4.0756519006     0.8503733972     1.0915151912
   26      H       2.0347495973    -0.2653425375    -2.4110985427
   27      H       4.3293910834    -1.2795998591    -2.6895529140
   28      H       4.7669575287     0.3572285582    -2.1096742689
   29      H       5.0549123697    -2.2421848800    -0.6334785566
   30      H       5.5397317479    -0.6270294593    -0.0314184809
   31      H       3.3283510738    -1.8746027775     1.1951383425
   32      O      -3.5530347723     0.4712842525    -2.4416329949
   33      C      -3.8571182961     1.7158118961     1.5035371443
   34      C      -1.0776925504    -1.8606191894     0.8391612649
   35      C      -0.6542362556    -3.3372622384     0.4790026017
   36      C      -0.4954139022    -3.2252448064    -1.0826764673
   37      C      -0.7617118823    -1.6851592248    -1.3118790349
   38      O      -0.2577342981    -1.0487499251    -0.0764140996
   39      H      -3.1373507855    -2.5968461952     0.4291930928
   40      H      -2.9253258257    -2.0640238145    -1.8534956345
   41      H      -3.6456944724     1.6132425556     2.5872495554
   42      H      -0.8972629612    -1.5538662486     1.8878489332
   43      H       0.3055023278    -3.5795901661     0.9624023330
   44      H      -1.4077884945    -4.0811561212     0.7837863207
   45      H       0.5271713736    -3.4806885070    -1.4023893945
   46      H      -1.2122872393    -3.8577411325    -1.6309653160
   47      H      -0.2625249245    -1.2541044545    -2.2002790698
   48      H      -4.9497989681     1.6058788294     1.3455589765
   49      H      -3.5314009348     2.7126636607     1.1536931305
   50      H       1.2725738168     3.0395138351     3.8954763178
   51      H       1.3677294924     1.3010392655     4.3890871145
   52      H       0.1392318540     1.8242077768     3.1797219251
   53      H      -0.3050538586     4.0450906403    -1.9403539788
   54      H      -0.5458876514     3.2892199352    -0.3025228945
   55      H      -2.5691314407     2.7739579684    -1.6498136389
   56      H      -1.5784253722     2.2017011097    -3.0407813979
 ----------------------------------------------------------------

    9   -1510.2846038154      6.89E-09 Convergence criterion met
 Total energy in the final basis set = -1510.28460382
 Final energy is   -1510.28460381543
 **  OPTIMIZATION CONVERGED  **

                    Orbital Energies (a.u.)
 --------------------------------------------------------------

 Alpha MOs
 -- Occupied --
-18.933 -18.932 -18.924 -18.911 -18.883 -18.882 -18.877 -18.865
-18.862 -18.854 -10.098 -10.092 -10.091 -10.085 -10.074 -10.070
-10.061 -10.058 -10.053 -10.050 -10.049 -10.047 -10.034 -10.029
-10.028 -10.028 -10.018 -10.016 -10.008 -10.007  -1.014  -1.007
 -0.998  -0.990  -0.966  -0.958  -0.936  -0.929  -0.926  -0.917
 -0.758  -0.751  -0.723  -0.715  -0.707  -0.697  -0.691  -0.657
 -0.650  -0.612  -0.592  -0.573  -0.542  -0.535  -0.532  -0.525
 -0.510  -0.503  -0.483  -0.475  -0.461  -0.453  -0.447  -0.428
 -0.424  -0.423  -0.419  -0.409  -0.407  -0.402  -0.398  -0.397
 -0.389  -0.376  -0.365  -0.364  -0.354  -0.346  -0.344  -0.341
 -0.336  -0.331  -0.330  -0.328  -0.323  -0.321  -0.316  -0.307
 -0.301  -0.299  -0.297  -0.291  -0.290  -0.284  -0.271  -0.267
 -0.267  -0.248  -0.243  -0.239  -0.238  -0.229  -0.219  -0.174
 -0.172  -0.166  -0.158  -0.151  -0.146  -0.141  -0.139  -0.135
 -0.124

          Ground-State Mulliken Net Atomic Charges

     Atom                 Charge (a.u.)
  ----------------------------------------
      1 O                    -0.217283
      2 C                     0.206846
      3 C                    -0.080461
      4 C                    -0.079547
      5 C                     0.213623
      6 O                    -0.163258
      7 C                    -0.045123
      8 C                    -0.047871
      9 O                    -0.173941
     10 C                     0.223906
     11 C                    -0.076529
     12 C                    -0.079611
     13 C                     0.220270
     14 O                    -0.221330
     15 O                    -0.163848
     16 O                    -0.179339
     17 O                    -0.189374
     18 C                    -0.128739
     19 C                     0.027579
     20 C                    -0.144193
     21 C                    -0.144328
     22 C                     0.025707
     23 O                    -0.185004
     24 H                     0.084920
     25 H                     0.082050
     26 H                     0.081097
     27 H                     0.076077
     28 H                     0.072655
     29 H                     0.076181
     30 H                     0.072353
     31 H                     0.087679
     32 O                    -0.221341
     33 C                    -0.126350
     34 C                     0.029238
     35 C                    -0.141164
     36 C                    -0.144451
     37 C                     0.029864
     38 O                    -0.175747
     39 H                     0.083611
     40 H                     0.082352
     41 H                     0.090439
     42 H                     0.091354
     43 H                     0.081115
     44 H                     0.070821
     45 H                     0.081910
     46 H                     0.069524
     47 H                     0.077529
     48 H                     0.088452
     49 H                     0.087416
     50 H                     0.083539
     51 H                     0.085251
     52 H                     0.090164
     53 H                     0.088028
     54 H                     0.096246
     55 H                     0.087772
     56 H                     0.083264
  ----------------------------------------
  Sum of atomic charges =     0.000000

                    Cartesian Multipole Moments
 -----------------------------------------------------------------
    Charge (ESU x 10^10)
                -0.0000
    Dipole Moment (Debye)
         X       2.0724      Y       1.6505      Z      -1.1766
       Tot       2.8988
    Quadrupole Moments (Debye-Ang)
        XX    -159.3828     XY      -3.7230     YY    -148.0806
        XZ      -2.4806     YZ       4.3411     ZZ    -160.0443

 Total job time:  59.09s(wall), 2815.45s(cpu)
        *  Thank you very much for using Q-Chem.  Have a nice day.  *
