 Q-Chem 5.0, Q-Chem, Inc., Pleasanton, CA (2017)
 Q-Chem 5.0.1 for Intel X86 EM64T Linux

User input:
--------------------------------------------------------------
$molecule
0  1
O -3.94934 -3.66094 2.70899
C -3.26408 -4.56952 2.26188
C -3.36658 -6.02376 2.66595
C -3.0307 -7.07563 1.59608
C -2.45871 -6.55611 0.29569
O -1.11704 -6.34011 0.43239
C -0.46187 -6.06278 -0.80982
C 1.02522 -5.81739 -0.57644
O 1.60056 -6.93027 0.12595
C 1.69414 -6.78547 1.4711
C 2.43766 -7.92013 2.1347
C 2.85525 -7.65751 3.58899
C 2.17773 -6.48513 4.26958
O 1.36243 -6.56676 5.17687
O -2.13674 -4.20596 1.59443
O 2.664 -5.25392 3.9496
O 1.14889 -5.85377 2.04474
C 2.22601 -4.07367 4.51403
C 1.61604 -9.20961 2.27165
C 2.55969 -10.40498 2.37843
C 3.14251 -10.1815 3.75935
C 2.32046 -8.96836 4.21311
O 1.07959 -9.13776 3.56869
H 3.34501 -8.10179 1.51404
H 3.9526 -7.5498 3.73614
H 0.89014 -9.35921 1.44341
H 1.92396 -11.3191 2.40346
H 3.30486 -10.49937 1.55944
H 2.90965 -11.0718 4.38483
H 4.23318 -9.96909 3.78749
H 2.29056 -8.92687 5.32433
O -3.04624 -6.63283 -0.77703
C -1.80663 -2.91408 1.24174
C -2.32849 -6.41034 3.74539
C -2.83233 -7.61356 4.54125
C -2.69728 -8.71333 3.50675
C -2.01667 -7.94074 2.3712
O -1.25001 -6.96844 3.03749
H -4.37899 -6.15811 3.11023
H -3.94399 -7.65025 1.323
H -1.70603 -2.28205 2.1497
H -2.07905 -5.57235 4.43287
H -2.08923 -7.79676 5.35072
H -3.84217 -7.50645 4.99222
H -2.02079 -9.49746 3.91373
H -3.65346 -9.1698 3.17101
H -1.46395 -8.6337 1.70063
H -2.58488 -2.4913 0.57122
H -0.83669 -2.92264 0.70333
H 2.78759 -3.22719 4.06856
H 2.40385 -4.08396 5.61058
H 1.14288 -3.93145 4.31015
H 1.53923 -5.70103 -1.55381
H 1.16561 -4.8476 -0.04664
H -0.90088 -5.16737 -1.30553
H -0.56132 -6.94458 -1.48293
$end

$opt
CONSTRAINT
tors           1           2           3           4    +148.850
tors           3           4           5           6     +82.168
tors           4           5           6           7    +170.152
tors           5           6           7           8    +179.346
tors           6           7           8           9     +54.813
tors           7           8           9          10     -96.068
tors           8           9          10          11    -173.881
tors           9          10          11          12    +166.508
tors          11          12          13          14    +110.539
ENDCONSTRAINT
$end

$rem
JOBTYPE                   OPT
METHOD                    B3LYP
DFT_D                     d3_op
BASIS                     STO-3G
GEOM_OPT_MAX_CYCLES       100
GEOM_OPT_TOL_GRADIENT     300
GEOM_OPT_TOL_DISPLACEMENT 1200
GEOM_OPT_TOL_ENERGY       100
SYMMETRY                  False
THRESH                    12
SCF_CONVERGENCE           8
MAX_SUB_FILE_NUM          128
MEM_STATIC                400
MEM_TOTAL                 4000
$end
--------------------------------------------------------------

   15   -1510.1546831534      6.46E-09 Convergence criterion met
 Total energy in the final basis set = -1510.15468315
   14   -1510.2244628360      7.15E-09 Convergence criterion met
 Total energy in the final basis set = -1510.22446284
   14   -1510.2612548765      4.64E-09 Convergence criterion met
 Total energy in the final basis set = -1510.26125488
   14   -1510.2767345286      3.95E-09 Convergence criterion met
 Total energy in the final basis set = -1510.27673453
   14   -1510.2813264768      4.02E-09 Convergence criterion met
 Total energy in the final basis set = -1510.28132648
   13   -1510.2832276670      7.19E-09 Convergence criterion met
 Total energy in the final basis set = -1510.28322767
   14   -1510.2825366597      5.81E-09 Convergence criterion met
 Total energy in the final basis set = -1510.28253666
   13   -1510.2849325251      9.72E-09 Convergence criterion met
   11   -1510.2860795193      7.51E-09 Convergence criterion met
 Total energy in the final basis set = -1510.28607952
   11   -1510.2861100705      6.60E-09 Convergence criterion met
 Total energy in the final basis set = -1510.28611007
   11   -1510.2861481407      3.70E-09 Convergence criterion met
 Total energy in the final basis set = -1510.28614814
   11   -1510.2861509521      2.59E-09 Convergence criterion met
 Total energy in the final basis set = -1510.28615095
   10   -1510.2861597763      9.64E-09 Convergence criterion met
 Total energy in the final basis set = -1510.28615978
    9   -1510.2861629886      3.71E-09 Convergence criterion met
 Total energy in the final basis set = -1510.28616299

             Standard Nuclear Orientation (Angstroms)
    I     Atom           X                Y                Z
 ----------------------------------------------------------------
    1      O      -4.4307288141    -0.0701947733     2.1258956180
    2      C      -3.6000515965    -0.1429676282     1.1927334098
    3      C      -2.7483512368    -1.4035964462     0.8258782568
    4      C      -2.3529238800    -1.6227230948    -0.6982577993
    5      C      -2.6011064950    -0.3985262406    -1.6578471297
    6      O      -1.4988414635     0.5067317175    -1.5369382413
    7      C      -1.5469018114     1.5588477913    -2.5744470235
    8      C      -0.2954168789     2.4607579708    -2.2897839213
    9      O       0.9454149981     1.6484807668    -2.2630429949
   10      C       1.2790585812     1.2975021130    -0.9137698800
   11      C       2.6691845835     0.5789457187    -0.9072629817
   12      C       3.2778132487     0.4588936623     0.5490971006
   13      C       2.3902977621     1.0918092977     1.6866023107
   14      O       1.7679875484     0.4856592136     2.5838232337
   15      O      -3.2868766243     0.9523772867     0.3295299470
   16      O       2.5739513929     2.5180427897     1.6471852639
   17      O       0.5900814748     1.6039875957     0.0844341223
   18      C       1.7097365826     3.1533712906     2.6649230508
   19      C       2.5843141130    -0.9526582876    -1.3223376862
   20      C       4.0506620801    -1.4715635764    -1.6067369731
   21      C       4.6132064200    -1.6185488262    -0.1438345844
   22      C       3.3788033149    -1.1167085113     0.7039257304
   23      O       2.2160896990    -1.6272035989    -0.0598068480
   24      H       3.3405471288     1.1323664395    -1.5885538623
   25      H       4.2734941910     0.9359095387     0.5906287367
   26      H       1.8466071255    -1.1699934382    -2.1185501706
   27      H       4.0193521926    -2.4413351358    -2.1283685611
   28      H       4.6303258591    -0.7611317836    -2.2174685031
   29      H       4.8442742492    -2.6688747105     0.0951309018
   30      H       5.5148477362    -1.0097094158     0.0297758393
   31      H       3.3325683057    -1.4711549071     1.7518261414
   32      O      -3.5442735157    -0.2529692162    -2.4656589570
   33      C      -4.1010479486     2.1359758977     0.6836702756
   34      C      -1.3030994920    -1.4037043852     1.5162083024
   35      C      -0.8457741408    -2.9074838252     1.6592783238
   36      C      -0.5321846055    -3.2637113668     0.1593941688
   37      C      -0.7934916535    -1.8781611367    -0.5487760126
   38      O      -0.4060162082    -0.8775667239     0.4714045095
   39      H      -3.3288791757    -2.2706861184     1.1889935755
   40      H      -2.8928920341    -2.4898043704    -1.1187956309
   41      H      -3.9024185740     2.4708219958     1.7221905847
   42      H      -1.2266222635    -0.7928635430     2.4364868561
   43      H       0.0606985150    -2.9669778625     2.2823597355
   44      H      -1.6263867867    -3.5470614714     2.1014012144
   45      H       0.5231147075    -3.5506236943     0.0273845114
   46      H      -1.1794232450    -4.0634103598    -0.2355848743
   47      H      -0.2245018208    -1.7186863504    -1.4830275608
   48      H      -5.1864746519     1.9321925666     0.5795451571
   49      H      -3.8031188497     2.9302809188    -0.0251274091
   50      H       1.8987813135     4.2405156461     2.5957695985
   51      H       1.9504573186     2.7992449906     3.6884788155
   52      H       0.6381132216     2.9486699989     2.4636535964
   53      H      -0.1739124219     3.2093867217    -3.0993024820
   54      H      -0.4271667099     2.9672515632    -1.3102462868
   55      H      -2.4796833828     2.1617252151    -2.5070847702
   56      H      -1.4921089175     1.1151627919    -3.5931138675
 ----------------------------------------------------------------

    9   -1510.2861653869      6.04E-09 Convergence criterion met
 Total energy in the final basis set = -1510.28616539
 Final energy is   -1510.28616538692
 **  OPTIMIZATION CONVERGED  **

                    Orbital Energies (a.u.)
 --------------------------------------------------------------

 Alpha MOs
 -- Occupied --
-18.934 -18.932 -18.922 -18.912 -18.885 -18.882 -18.877 -18.867
-18.861 -18.854 -10.099 -10.094 -10.091 -10.085 -10.073 -10.070
-10.063 -10.059 -10.053 -10.050 -10.048 -10.048 -10.036 -10.029
-10.028 -10.028 -10.019 -10.017 -10.008 -10.006  -1.014  -1.008
 -0.998  -0.991  -0.967  -0.957  -0.937  -0.930  -0.925  -0.918
 -0.759  -0.752  -0.724  -0.715  -0.708  -0.698  -0.691  -0.658
 -0.650  -0.611  -0.592  -0.573  -0.543  -0.536  -0.532  -0.525
 -0.511  -0.504  -0.484  -0.475  -0.462  -0.453  -0.448  -0.429
 -0.425  -0.424  -0.418  -0.409  -0.407  -0.402  -0.399  -0.397
 -0.390  -0.375  -0.367  -0.364  -0.355  -0.347  -0.345  -0.341
 -0.337  -0.331  -0.330  -0.328  -0.323  -0.321  -0.317  -0.308
 -0.302  -0.299  -0.297  -0.293  -0.289  -0.285  -0.271  -0.268
 -0.266  -0.248  -0.242  -0.239  -0.238  -0.230  -0.220  -0.174
 -0.174  -0.165  -0.158  -0.152  -0.148  -0.142  -0.139  -0.135
 -0.126

          Ground-State Mulliken Net Atomic Charges

     Atom                 Charge (a.u.)
  ----------------------------------------
      1 O                    -0.216337
      2 C                     0.207845
      3 C                    -0.080498
      4 C                    -0.080120
      5 C                     0.215448
      6 O                    -0.166816
      7 C                    -0.044887
      8 C                    -0.049324
      9 O                    -0.174306
     10 C                     0.222642
     11 C                    -0.076477
     12 C                    -0.079959
     13 C                     0.219195
     14 O                    -0.217838
     15 O                    -0.164733
     16 O                    -0.178741
     17 O                    -0.191946
     18 C                    -0.128472
     19 C                     0.027176
     20 C                    -0.144124
     21 C                    -0.144363
     22 C                     0.025768
     23 O                    -0.186168
     24 H                     0.085033
     25 H                     0.082172
     26 H                     0.080919
     27 H                     0.076308
     28 H                     0.073106
     29 H                     0.076429
     30 H                     0.072827
     31 H                     0.088245
     32 O                    -0.222554
     33 C                    -0.125759
     34 C                     0.028978
     35 C                    -0.141474
     36 C                    -0.145221
     37 C                     0.030661
     38 O                    -0.175518
     39 H                     0.083855
     40 H                     0.082129
     41 H                     0.090471
     42 H                     0.087474
     43 H                     0.080831
     44 H                     0.070603
     45 H                     0.084818
     46 H                     0.068820
     47 H                     0.078054
     48 H                     0.089887
     49 H                     0.088268
     50 H                     0.083837
     51 H                     0.084724
     52 H                     0.091550
     53 H                     0.086809
     54 H                     0.099797
     55 H                     0.087354
     56 H                     0.083602
  ----------------------------------------
  Sum of atomic charges =     0.000000

                    Cartesian Multipole Moments
 -----------------------------------------------------------------
    Charge (ESU x 10^10)
                -0.0000
    Dipole Moment (Debye)
         X       2.1612      Y       0.9184      Z      -1.7376
       Tot       2.9212
    Quadrupole Moments (Debye-Ang)
        XX    -159.2765     XY      -4.6470     YY    -146.3042
        XZ      -1.3442     YZ      -0.4043     ZZ    -161.4007

 Total job time:  57.05s(wall), 2714.02s(cpu)
        *  Thank you very much for using Q-Chem.  Have a nice day.  *
