 Q-Chem 5.0, Q-Chem, Inc., Pleasanton, CA (2017)
 Q-Chem 5.0.1 for Intel X86 EM64T Linux

User input:
--------------------------------------------------------------
$molecule
0  1
O -4.4307288141 -0.0701947733 2.125895618
C -3.6000515965 -0.1429676282 1.1927334098
C -2.7483512368 -1.4035964462 0.8258782568
C -2.35292388 -1.6227230948 -0.6982577993
C -2.601106495 -0.3985262406 -1.6578471297
O -1.4988414635 0.5067317175 -1.5369382413
C -1.5469018114 1.5588477913 -2.5744470235
C -0.2954168789 2.4607579708 -2.2897839213
O 0.9454149981 1.6484807668 -2.2630429949
C 1.2790585812 1.297502113 -0.91376988
C 2.6691845835 0.5789457187 -0.9072629817
C 3.2778132487 0.4588936623 0.5490971006
C 2.3902977621 1.0918092977 1.6866023107
O 1.7679875484 0.4856592136 2.5838232337
O -3.2868766243 0.9523772867 0.329529947
O 2.5739513929 2.5180427897 1.6471852639
O 0.5900814748 1.6039875957 0.0844341223
C 1.7097365826 3.1533712906 2.6649230508
C 2.584314113 -0.9526582876 -1.3223376862
C 4.0506620801 -1.4715635764 -1.6067369731
C 4.61320642 -1.6185488262 -0.1438345844
C 3.3788033149 -1.1167085113 0.7039257304
O 2.216089699 -1.6272035989 -0.059806848
H 3.3405471288 1.1323664395 -1.5885538623
H 4.273494191 0.9359095387 0.5906287367
H 1.8466071255 -1.1699934382 -2.1185501706
H 4.0193521926 -2.4413351358 -2.1283685611
H 4.6303258591 -0.7611317836 -2.2174685031
H 4.8442742492 -2.6688747105 0.0951309018
H 5.5148477362 -1.0097094158 0.0297758393
H 3.3325683057 -1.4711549071 1.7518261414
O -3.5442735157 -0.2529692162 -2.465658957
C -4.1010479486 2.1359758977 0.6836702756
C -1.303099492 -1.4037043852 1.5162083024
C -0.8457741408 -2.9074838252 1.6592783238
C -0.5321846055 -3.2637113668 0.1593941688
C -0.7934916535 -1.8781611367 -0.5487760126
O -0.4060162082 -0.8775667239 0.4714045095
H -3.3288791757 -2.2706861184 1.1889935755
H -2.8928920341 -2.4898043704 -1.1187956309
H -3.902418574 2.4708219958 1.7221905847
H -1.2266222635 -0.792863543 2.4364868561
H 0.060698515 -2.9669778625 2.2823597355
H -1.6263867867 -3.5470614714 2.1014012144
H 0.5231147075 -3.5506236943 0.0273845114
H -1.179423245 -4.0634103598 -0.2355848743
H -0.2245018208 -1.7186863504 -1.4830275608
H -5.1864746519 1.9321925666 0.5795451571
H -3.8031188497 2.9302809188 -0.0251274091
H 1.8987813135 4.2405156461 2.5957695985
H 1.9504573186 2.7992449906 3.6884788155
H 0.6381132216 2.9486699989 2.4636535964
H -0.1739124219 3.2093867217 -3.099302482
H -0.4271667099 2.9672515632 -1.3102462868
H -2.4796833828 2.1617252151 -2.5070847702
H -1.4921089175 1.1151627919 -3.5931138675
$end

$rem
JOBTYPE                   OPT
METHOD                    B3LYP
DFT_D                     d3_op
BASIS                     STO-3G
GEOM_OPT_MAX_CYCLES       100
GEOM_OPT_TOL_GRADIENT     300
GEOM_OPT_TOL_DISPLACEMENT 1200
GEOM_OPT_TOL_ENERGY       100
SYMMETRY                  False
THRESH                    12
SCF_CONVERGENCE           8
MAX_SUB_FILE_NUM          128
MEM_STATIC                400
MEM_TOTAL                 4000
$end
--------------------------------------------------------------

   16   -1510.2861809777      5.51E-09 Convergence criterion met
 Total energy in the final basis set = -1510.28618098
   14   -1510.2872179632      3.75E-09 Convergence criterion met
 Total energy in the final basis set = -1510.28721796
   14   -1510.2879347228      5.82E-09 Convergence criterion met
 Total energy in the final basis set = -1510.28793472
   14   -1510.2889420000      6.90E-09 Convergence criterion met
 Total energy in the final basis set = -1510.28894200
   13   -1510.2894558403      8.53E-09 Convergence criterion met
 Total energy in the final basis set = -1510.28945584
   13   -1510.2902188644      3.27E-09 Convergence criterion met
 Total energy in the final basis set = -1510.29021886
   13   -1510.2907856230      7.33E-09 Convergence criterion met
 Total energy in the final basis set = -1510.29078562
   13   -1510.2909920573      5.82E-09 Convergence criterion met
   12   -1510.2963929830      4.68E-09 Convergence criterion met
 Total energy in the final basis set = -1510.29639298
   12   -1510.2963700538      5.40E-09 Convergence criterion met
 Total energy in the final basis set = -1510.29637005
   11   -1510.2964164746      6.54E-09 Convergence criterion met
 Total energy in the final basis set = -1510.29641647
   11   -1510.2964263265      3.99E-09 Convergence criterion met
 Total energy in the final basis set = -1510.29642633
   11   -1510.2964272101      3.62E-09 Convergence criterion met
 Total energy in the final basis set = -1510.29642721
   11   -1510.2964284785      5.56E-09 Convergence criterion met
 Total energy in the final basis set = -1510.29642848

             Standard Nuclear Orientation (Angstroms)
    I     Atom           X                Y                Z
 ----------------------------------------------------------------
    1      O      -4.3301261110     0.6168360443     1.5762258753
    2      C      -3.1228010827     0.3371810013     1.4085580147
    3      C      -2.5422849329    -1.1101250994     1.2261363279
    4      C      -2.1934897401    -1.4927827612    -0.2754244240
    5      C      -2.2767541489    -0.2622859932    -1.2449449518
    6      O      -1.4213785430    -0.4820022098    -2.3723536853
    7      C      -1.4944156950     0.6663089432    -3.3076695444
    8      C      -0.7078927330     1.9233054242    -2.7798693805
    9      O       0.7254513570     1.6176821671    -2.5754221179
   10      C       0.9592973131     1.1951047293    -1.2191661717
   11      C       2.4731680317     0.8099361127    -1.1177705585
   12      C       3.0039036366     0.5025553270     0.3427928220
   13      C       2.0124135663     0.7763522858     1.5312460962
   14      O       1.6403213528    -0.0561394353     2.3858059156
   15      O      -2.0757936981     1.3241706999     1.4178867668
   16      O       1.6694648486     2.1642357074     1.5610141591
   17      O       0.0711663189     1.1398726085    -0.3435189912
   18      C       0.5869482652     2.3669281431     2.5538508577
   19      C       2.7042292125    -0.6036049356    -1.8130273177
   20      C       4.2564281781    -0.8320186844    -2.0064222241
   21      C       4.6965498017    -1.2070841026    -0.5421977836
   22      C       3.3298800206    -1.0469817557     0.2292894486
   23      O       2.3348455925    -1.5561545730    -0.7443844003
   24      H       3.0652171997     1.6013253291    -1.6112875771
   25      H       3.9246430401     1.0853574480     0.5302939710
   26      H       2.0857132586    -0.7673484269    -2.7172322819
   27      H       4.4399690801    -1.6589095871    -2.7106844026
   28      H       4.7609365605     0.0715003009    -2.3844240494
   29      H       5.0533148383    -2.2478452029    -0.4837628144
   30      H       5.4804617919    -0.5408100677    -0.1481886355
   31      H       3.2399661849    -1.5904767129     1.1900736164
   32      O      -3.0027950312     0.7483016194    -1.1124137218
   33      C      -2.6897899271     2.6718633673     1.3712696100
   34      C      -1.1408800114    -1.3898939418     1.9285603987
   35      C      -1.0103535272    -2.9513765710     2.1265398613
   36      C      -0.7575379037    -3.4208978026     0.6452636000
   37      C      -0.7143071927    -2.0363442234    -0.1147767011
   38      O      -0.1400117568    -1.1080447379     0.8790728588
   39      H      -3.3154547711    -1.7971374345     1.6140469300
   40      H      -2.8785450748    -2.2727842083    -0.6583174941
   41      H      -3.2231849425     2.9136285335     2.3137094856
   42      H      -0.9342107863    -0.7776150672     2.8269689738
   43      H      -0.1470185780    -3.1784058992     2.7720520903
   44      H      -1.9141591675    -3.3989224117     2.5700770115
   45      H       0.2078633501    -3.9413012028     0.5438631528
   46      H      -1.5558040380    -4.0790597881     0.2658413041
   47      H      -0.1134494640    -2.0187541417    -1.0436208838
   48      H      -3.4032785652     2.7502679387     0.5269003740
   49      H      -1.8577515188     3.3833814861     1.2242831283
   50      H       0.3957128342     3.4552408792     2.5770205263
   51      H       0.8906402284     2.0237338970     3.5635319320
   52      H      -0.3341805420     1.8233319107     2.2391393984
   53      H      -0.7578123530     2.7266270253    -3.5432487199
   54      H      -1.1707187827     2.2692305447    -1.8314931102
   55      H      -2.5506040705     0.9602334424    -3.4931835350
   56      H      -1.0407881637     0.3018790375    -4.2513202407
 ----------------------------------------------------------------

    9   -1510.2964277667      7.85E-09 Convergence criterion met
 Total energy in the final basis set = -1510.29642777
 Final energy is   -1510.29642776668
 **  OPTIMIZATION CONVERGED  **

                    Orbital Energies (a.u.)
 --------------------------------------------------------------

 Alpha MOs
 -- Occupied --
-18.938 -18.927 -18.923 -18.911 -18.882 -18.879 -18.878 -18.874
-18.858 -18.854 -10.103 -10.095 -10.087 -10.082 -10.076 -10.070
-10.056 -10.051 -10.050 -10.046 -10.046 -10.036 -10.034 -10.033
-10.027 -10.026 -10.017 -10.015 -10.008 -10.007  -1.019  -1.006
 -0.996  -0.990  -0.965  -0.957  -0.941  -0.933  -0.921  -0.914
 -0.757  -0.753  -0.724  -0.714  -0.707  -0.698  -0.689  -0.649
 -0.642  -0.617  -0.591  -0.575  -0.538  -0.535  -0.531  -0.526
 -0.508  -0.501  -0.477  -0.473  -0.454  -0.450  -0.445  -0.438
 -0.428  -0.422  -0.420  -0.415  -0.405  -0.399  -0.398  -0.391
 -0.384  -0.376  -0.365  -0.361  -0.354  -0.347  -0.345  -0.336
 -0.334  -0.332  -0.327  -0.326  -0.320  -0.317  -0.314  -0.306
 -0.304  -0.301  -0.295  -0.294  -0.290  -0.276  -0.271  -0.267
 -0.264  -0.254  -0.247  -0.242  -0.233  -0.230  -0.216  -0.191
 -0.165  -0.164  -0.159  -0.155  -0.147  -0.140  -0.137  -0.135
 -0.124

          Ground-State Mulliken Net Atomic Charges

     Atom                 Charge (a.u.)
  ----------------------------------------
      1 O                    -0.217355
      2 C                     0.213831
      3 C                    -0.081340
      4 C                    -0.076763
      5 C                     0.220230
      6 O                    -0.172320
      7 C                    -0.050162
      8 C                    -0.055553
      9 O                    -0.178685
     10 C                     0.213200
     11 C                    -0.076019
     12 C                    -0.079447
     13 C                     0.221256
     14 O                    -0.213732
     15 O                    -0.165688
     16 O                    -0.176334
     17 O                    -0.195033
     18 C                    -0.139168
     19 C                     0.024971
     20 C                    -0.144415
     21 C                    -0.144017
     22 C                     0.025978
     23 O                    -0.190600
     24 H                     0.085272
     25 H                     0.080865
     26 H                     0.082529
     27 H                     0.076395
     28 H                     0.072858
     29 H                     0.076307
     30 H                     0.072473
     31 H                     0.091602
     32 O                    -0.214921
     33 C                    -0.127870
     34 C                     0.027795
     35 C                    -0.142951
     36 C                    -0.144292
     37 C                     0.025894
     38 O                    -0.178095
     39 H                     0.082045
     40 H                     0.084115
     41 H                     0.083910
     42 H                     0.088799
     43 H                     0.078977
     44 H                     0.070044
     45 H                     0.079242
     46 H                     0.069201
     47 H                     0.094911
     48 H                     0.094984
     49 H                     0.087587
     50 H                     0.077038
     51 H                     0.080336
     52 H                     0.109616
     53 H                     0.087564
     54 H                     0.103014
     55 H                     0.092123
     56 H                     0.089799
  ----------------------------------------
  Sum of atomic charges =     0.000000

                    Cartesian Multipole Moments
 -----------------------------------------------------------------
    Charge (ESU x 10^10)
                 0.0000
    Dipole Moment (Debye)
         X       1.4879      Y       0.1885      Z      -2.1473
       Tot       2.6192
    Quadrupole Moments (Debye-Ang)
        XX    -160.7088     XY       2.6170     YY    -152.1636
        XZ       1.4068     YZ      -1.0867     ZZ    -152.0806

 Total job time:  182.60s(wall), 8713.46s(cpu)
        *  Thank you very much for using Q-Chem.  Have a nice day.  *
