 Q-Chem 5.0, Q-Chem, Inc., Pleasanton, CA (2017)
 Q-Chem 5.0.1 for Intel X86 EM64T Linux

User input:
--------------------------------------------------------------
$molecule
0  1
O -3.94934 -3.66094 2.70899
C -3.26408 -4.56952 2.26188
C -3.36658 -6.02376 2.66595
C -3.13386 -7.07583 1.5692
C -2.64999 -6.56034 0.23196
O -1.29761 -6.37286 0.26871
C -0.74633 -5.99866 -0.9983
C 0.75978 -5.79189 -0.8758
O 1.37171 -6.96734 -0.32198
C 1.64669 -6.91155 1.00483
C 2.41916 -8.11243 1.49661
C 3.03457 -7.95792 2.89506
C 2.50489 -6.80698 3.72661
O 1.78117 -6.91436 4.70603
O -2.15747 -4.21548 1.55587
O 2.95433 -5.56952 3.38221
O 1.02837 -6.15009 1.73574
C 2.60774 -4.40648 4.03792
C 1.54366 -9.36313 1.69056
C 2.4156 -10.61291 1.59674
C 3.20911 -10.49869 2.88232
C 2.52784 -9.27945 3.51724
O 1.20084 -9.34603 3.05291
H 3.20252 -8.32529 0.73346
H 4.14507 -7.89754 2.89764
H 0.69891 -9.42595 0.97076
H 1.73172 -11.48847 1.6763
H 3.02394 -10.70807 0.67167
H 3.03021 -11.41593 3.48614
H 4.30042 -10.33029 2.75479
H 2.65899 -9.30389 4.62171
O -3.32 -6.60423 -0.79307
C -1.84308 -2.92808 1.17404
C -2.26814 -6.44512 3.66875
C -2.7471 -7.6426 4.4888
C -2.70927 -8.73702 3.44001
C -2.08997 -7.9715 2.26517
O -1.25627 -7.0245 2.88478
H -4.34882 -6.13861 3.17842
H -4.07888 -7.62566 1.36057
H -1.71991 -2.28131 2.06868
H -1.95118 -5.61908 4.34261
H -1.95645 -7.85094 5.24536
H -3.7214 -7.51445 5.00741
H -2.02441 -9.5394 3.79404
H -3.69658 -9.16936 3.16859
H -1.60144 -8.67143 1.55325
H -2.64195 -2.51916 0.51928
H -0.88905 -2.94096 0.60811
H 3.11268 -3.54875 3.54834
H 2.93135 -4.45435 5.09962
H 1.50857 -4.25152 3.98651
H 1.20029 -5.58416 -1.87364
H 0.94674 -4.88144 -0.26029
H -1.20977 -5.05886 -1.37538
H -0.91955 -6.81709 -1.73349
$end

$opt
CONSTRAINT
tors           1           2           3           4    +144.383
tors           3           4           5           6     +82.168
tors           4           5           6           7    +174.759
tors           5           6           7           8    +179.346
tors           6           7           8           9     +54.813
tors           7           8           9          10     -99.349
tors           8           9          10          11    -173.881
tors           9          10          11          12    +166.508
tors          11          12          13          14    +108.338
ENDCONSTRAINT
$end

$rem
JOBTYPE                   OPT
METHOD                    B3LYP
DFT_D                     d3_op
BASIS                     STO-3G
GEOM_OPT_MAX_CYCLES       100
GEOM_OPT_TOL_GRADIENT     300
GEOM_OPT_TOL_DISPLACEMENT 1200
GEOM_OPT_TOL_ENERGY       100
SYMMETRY                  False
THRESH                    12
SCF_CONVERGENCE           8
MAX_SUB_FILE_NUM          128
MEM_STATIC                400
MEM_TOTAL                 4000
$end
--------------------------------------------------------------

   15   -1510.1510626600      6.29E-09 Convergence criterion met
 Total energy in the final basis set = -1510.15106266
   14   -1510.2208968492      7.19E-09 Convergence criterion met
 Total energy in the final basis set = -1510.22089685
   14   -1510.2581032803      6.83E-09 Convergence criterion met
 Total energy in the final basis set = -1510.25810328
   14   -1510.2746005732      4.79E-09 Convergence criterion met
 Total energy in the final basis set = -1510.27460057
   14   -1510.2804743811      4.54E-09 Convergence criterion met
 Total energy in the final basis set = -1510.28047438
    2   -1510.2804743809      2.20E-09 Convergence criterion met
 Total energy in the final basis set = -1510.28047438
   13   -1510.2824237253      7.64E-09 Convergence criterion met
 Total energy in the final basis set = -1510.28242373
   13   -1510.2842692852      4.22E-09 Convergence criterion met
   11   -1510.2862828740      8.33E-09 Convergence criterion met
 Total energy in the final basis set = -1510.28628287
   11   -1510.2863342054      8.40E-09 Convergence criterion met
 Total energy in the final basis set = -1510.28633421
   11   -1510.2863570332      3.91E-09 Convergence criterion met
 Total energy in the final basis set = -1510.28635703
   11   -1510.2863698223      3.43E-09 Convergence criterion met
 Total energy in the final basis set = -1510.28636982
    9   -1510.2863754779      8.87E-09 Convergence criterion met
 Total energy in the final basis set = -1510.28637548
    9   -1510.2863798351      5.74E-09 Convergence criterion met
 Total energy in the final basis set = -1510.28637984

             Standard Nuclear Orientation (Angstroms)
    I     Atom           X                Y                Z
 ----------------------------------------------------------------
    1      O      -4.6075158335    -0.0962986442     1.9500148131
    2      C      -3.6880575831    -0.1301821592     1.1016143872
    3      C      -2.8283902948    -1.3857395886     0.7371174895
    4      C      -2.3780464096    -1.5668709245    -0.7765916180
    5      C      -2.5886063026    -0.3153419692    -1.7087485362
    6      O      -1.4886248775     0.5772535405    -1.5193258235
    7      C      -1.5453679237     1.7239685056    -2.4516137684
    8      C      -0.2866765113     2.5824050037    -2.0828859889
    9      O       0.9389637157     1.7488406278    -2.1483577056
   10      C       1.3080600048     1.3231526647    -0.8296120853
   11      C       2.6825685688     0.5796119466    -0.8960299029
   12      C       3.3249841430     0.3789026027     0.5375951557
   13      C       2.4718159892     0.9617725985     1.7271762752
   14      O       1.8334161934     0.3163248997     2.5847021145
   15      O      -3.2623598525     1.0120642074     0.3543762391
   16      O       2.6975161751     2.3815185907     1.7782927121
   17      O       0.6534161067     1.5906608253     0.2028236838
   18      C       1.8567555506     2.9753304781     2.8398069504
   19      C       2.5524879586    -0.9278627324    -1.3800635358
   20      C       3.9975631312    -1.4637686118    -1.7302392226
   21      C       4.5964965903    -1.6913432688    -0.2921266510
   22      C       3.3975314070    -1.2044206834     0.6128543132
   23      O       2.2019840618    -1.6524699084    -0.1400330810
   24      H       3.3474696629     1.1521193563    -1.5679164751
   25      H       4.3296889973     0.8363629892     0.5788350983
   26      H       1.7890859230    -1.0902722012    -2.1649411103
   27      H       3.9307870225    -2.4072749574    -2.2949828831
   28      H       4.5760633909    -0.7379116075    -2.3236796752
   29      H       4.8101033388    -2.7564655139    -0.1088753288
   30      H       5.5162113494    -1.1107971749    -0.1158994348
   31      H       3.3722283754    -1.6077707464     1.6435402441
   32      O      -3.5158217850    -0.1267094833    -2.5260738768
   33      C      -4.0884614817     2.1891170492     0.7037009551
   34      C      -1.4090762754    -1.4144792951     1.4794640819
   35      C      -0.9672370513    -2.9252088197     1.5986650019
   36      C      -0.6005615667    -3.2429867464     0.1018913454
   37      C      -0.8266665216    -1.8369657868    -0.5774553108
   38      O      -0.4688632252    -0.8680224191     0.4834531324
   39      H      -3.4283159382    -2.2577297120     1.0535445319
   40      H      -2.9056836804    -2.4202832788    -1.2388773332
   41      H      -4.0264653942     2.4255389896     1.7853899547
   42      H      -1.3629873294    -0.8288577185     2.4179324324
   43      H      -0.0853763279    -3.0085905395     2.2535700420
   44      H      -1.7680700525    -3.5708419283     1.9934562096
   45      H       0.4572345943    -3.5333123743    -0.0003831372
   46      H      -1.2378298861    -4.0270915237    -0.3379591076
   47      H      -0.2236076928    -1.6578299004    -1.4860434515
   48      H      -5.1539990654     2.0340395697     0.4367660027
   49      H      -3.6785686545     3.0308273360     0.1158519811
   50      H       2.0971482494     4.0543220319     2.8578965930
   51      H       2.0715111267     2.5299165286     3.8328826034
   52      H       0.7783712554     2.8380845902     2.6176997414
   53      H      -0.1592534044     3.4110088892    -2.8094271538
   54      H      -0.4048219174     2.9795121198    -1.0525518834
   55      H      -2.4761693483     2.3181413763    -2.3156557018
   56      H      -1.4993410152     1.3817205577    -3.5090445875
 ----------------------------------------------------------------

    9   -1510.2863821480      6.14E-09 Convergence criterion met
 Total energy in the final basis set = -1510.28638215
 Final energy is   -1510.28638214801
 **  OPTIMIZATION CONVERGED  **

                    Orbital Energies (a.u.)
 --------------------------------------------------------------

 Alpha MOs
 -- Occupied --
-18.933 -18.933 -18.924 -18.912 -18.885 -18.883 -18.877 -18.867
-18.862 -18.854 -10.099 -10.094 -10.092 -10.085 -10.072 -10.071
-10.062 -10.060 -10.054 -10.050 -10.049 -10.048 -10.036 -10.030
-10.028 -10.028 -10.019 -10.017 -10.008 -10.006  -1.015  -1.008
 -0.999  -0.991  -0.968  -0.958  -0.937  -0.931  -0.926  -0.918
 -0.760  -0.752  -0.724  -0.715  -0.708  -0.698  -0.691  -0.658
 -0.650  -0.612  -0.592  -0.573  -0.543  -0.536  -0.533  -0.525
 -0.512  -0.504  -0.484  -0.476  -0.462  -0.453  -0.448  -0.430
 -0.425  -0.423  -0.418  -0.409  -0.408  -0.402  -0.399  -0.397
 -0.390  -0.374  -0.366  -0.364  -0.355  -0.347  -0.346  -0.342
 -0.337  -0.333  -0.330  -0.328  -0.323  -0.322  -0.317  -0.308
 -0.302  -0.299  -0.297  -0.293  -0.289  -0.284  -0.271  -0.269
 -0.266  -0.248  -0.244  -0.239  -0.239  -0.231  -0.220  -0.175
 -0.173  -0.167  -0.158  -0.153  -0.148  -0.142  -0.140  -0.135
 -0.127

          Ground-State Mulliken Net Atomic Charges

     Atom                 Charge (a.u.)
  ----------------------------------------
      1 O                    -0.216135
      2 C                     0.207102
      3 C                    -0.080576
      4 C                    -0.080004
      5 C                     0.214199
      6 O                    -0.166107
      7 C                    -0.044325
      8 C                    -0.050194
      9 O                    -0.173626
     10 C                     0.222416
     11 C                    -0.076512
     12 C                    -0.080144
     13 C                     0.218888
     14 O                    -0.217163
     15 O                    -0.165195
     16 O                    -0.178871
     17 O                    -0.192358
     18 C                    -0.128631
     19 C                     0.027035
     20 C                    -0.144068
     21 C                    -0.144398
     22 C                     0.025773
     23 O                    -0.186488
     24 H                     0.085263
     25 H                     0.082239
     26 H                     0.081088
     27 H                     0.076484
     28 H                     0.073253
     29 H                     0.076565
     30 H                     0.072943
     31 H                     0.088264
     32 O                    -0.222095
     33 C                    -0.126467
     34 C                     0.028984
     35 C                    -0.141643
     36 C                    -0.145296
     37 C                     0.030591
     38 O                    -0.175387
     39 H                     0.083998
     40 H                     0.082096
     41 H                     0.090749
     42 H                     0.086502
     43 H                     0.080971
     44 H                     0.070595
     45 H                     0.085223
     46 H                     0.068833
     47 H                     0.078660
     48 H                     0.089364
     49 H                     0.087565
     50 H                     0.083789
     51 H                     0.085203
     52 H                     0.091277
     53 H                     0.086184
     54 H                     0.101790
     55 H                     0.087298
     56 H                     0.084498
  ----------------------------------------
  Sum of atomic charges =     0.000000

                    Cartesian Multipole Moments
 -----------------------------------------------------------------
    Charge (ESU x 10^10)
                 0.0000
    Dipole Moment (Debye)
         X       2.2277      Y       1.0091      Z      -1.5979
       Tot       2.9213
    Quadrupole Moments (Debye-Ang)
        XX    -160.1441     XY      -4.6198     YY    -146.1473
        XZ      -1.9537     YZ       0.2352     ZZ    -161.1917

 Total job time:  60.67s(wall), 2888.50s(cpu)
        *  Thank you very much for using Q-Chem.  Have a nice day.  *
