 Q-Chem 5.0, Q-Chem, Inc., Pleasanton, CA (2017)
 Q-Chem 5.0.1 for Intel X86 EM64T Linux

User input:
--------------------------------------------------------------
$molecule
0  1
O -4.6075158335 -0.0962986442 1.9500148131
C -3.6880575831 -0.1301821592 1.1016143872
C -2.8283902948 -1.3857395886 0.7371174895
C -2.3780464096 -1.5668709245 -0.776591618
C -2.5886063026 -0.3153419692 -1.7087485362
O -1.4886248775 0.5772535405 -1.5193258235
C -1.5453679237 1.7239685056 -2.4516137684
C -0.2866765113 2.5824050037 -2.0828859889
O 0.9389637157 1.7488406278 -2.1483577056
C 1.3080600048 1.3231526647 -0.8296120853
C 2.6825685688 0.5796119466 -0.8960299029
C 3.324984143 0.3789026027 0.5375951557
C 2.4718159892 0.9617725985 1.7271762752
O 1.8334161934 0.3163248997 2.5847021145
O -3.2623598525 1.0120642074 0.3543762391
O 2.6975161751 2.3815185907 1.7782927121
O 0.6534161067 1.5906608253 0.2028236838
C 1.8567555506 2.9753304781 2.8398069504
C 2.5524879586 -0.9278627324 -1.3800635358
C 3.9975631312 -1.4637686118 -1.7302392226
C 4.5964965903 -1.6913432688 -0.292126651
C 3.397531407 -1.2044206834 0.6128543132
O 2.2019840618 -1.6524699084 -0.140033081
H 3.3474696629 1.1521193563 -1.5679164751
H 4.3296889973 0.8363629892 0.5788350983
H 1.789085923 -1.0902722012 -2.1649411103
H 3.9307870225 -2.4072749574 -2.2949828831
H 4.5760633909 -0.7379116075 -2.3236796752
H 4.8101033388 -2.7564655139 -0.1088753288
H 5.5162113494 -1.1107971749 -0.1158994348
H 3.3722283754 -1.6077707464 1.6435402441
O -3.515821785 -0.1267094833 -2.5260738768
C -4.0884614817 2.1891170492 0.7037009551
C -1.4090762754 -1.4144792951 1.4794640819
C -0.9672370513 -2.9252088197 1.5986650019
C -0.6005615667 -3.2429867464 0.1018913454
C -0.8266665216 -1.8369657868 -0.5774553108
O -0.4688632252 -0.8680224191 0.4834531324
H -3.4283159382 -2.257729712 1.0535445319
H -2.9056836804 -2.4202832788 -1.2388773332
H -4.0264653942 2.4255389896 1.7853899547
H -1.3629873294 -0.8288577185 2.4179324324
H -0.0853763279 -3.0085905395 2.253570042
H -1.7680700525 -3.5708419283 1.9934562096
H 0.4572345943 -3.5333123743 -0.0003831372
H -1.2378298861 -4.0270915237 -0.3379591076
H -0.2236076928 -1.6578299004 -1.4860434515
H -5.1539990654 2.0340395697 0.4367660027
H -3.6785686545 3.030827336 0.1158519811
H 2.0971482494 4.0543220319 2.857896593
H 2.0715111267 2.5299165286 3.8328826034
H 0.7783712554 2.8380845902 2.6176997414
H -0.1592534044 3.4110088892 -2.8094271538
H -0.4048219174 2.9795121198 -1.0525518834
H -2.4761693483 2.3181413763 -2.3156557018
H -1.4993410152 1.3817205577 -3.5090445875
$end

$rem
JOBTYPE                   OPT
METHOD                    B3LYP
DFT_D                     d3_op
BASIS                     STO-3G
GEOM_OPT_MAX_CYCLES       100
GEOM_OPT_TOL_GRADIENT     300
GEOM_OPT_TOL_DISPLACEMENT 1200
GEOM_OPT_TOL_ENERGY       100
SYMMETRY                  False
THRESH                    12
SCF_CONVERGENCE           8
MAX_SUB_FILE_NUM          128
MEM_STATIC                400
MEM_TOTAL                 4000
$end
--------------------------------------------------------------

   16   -1510.2864713430      5.74E-09 Convergence criterion met
 Total energy in the final basis set = -1510.28647134
   14   -1510.2860340033      4.85E-09 Convergence criterion met
 Total energy in the final basis set = -1510.28603400
   14   -1510.2877602694      8.24E-09 Convergence criterion met
 Total energy in the final basis set = -1510.28776027
   15   -1510.2866055264      5.13E-09 Convergence criterion met
 Total energy in the final basis set = -1510.28660553
   13   -1510.2878449720      4.89E-09 Convergence criterion met
 Total energy in the final basis set = -1510.28784497
   14   -1510.2900188521      4.65E-09 Convergence criterion met
 Total energy in the final basis set = -1510.29001885
   14   -1510.2881320552      6.86E-09 Convergence criterion met
 Total energy in the final basis set = -1510.28813206
   14   -1510.2906846780      5.60E-09 Convergence criterion met
   12   -1510.2964107646      9.35E-09 Convergence criterion met
 Total energy in the final basis set = -1510.29641076
   12   -1510.2964236814      3.36E-09 Convergence criterion met
 Total energy in the final basis set = -1510.29642368
   11   -1510.2964638798      6.82E-09 Convergence criterion met
 Total energy in the final basis set = -1510.29646388
   11   -1510.2964706013      7.94E-09 Convergence criterion met
 Total energy in the final basis set = -1510.29647060
   11   -1510.2964890462      4.27E-09 Convergence criterion met
 Total energy in the final basis set = -1510.29648905
   11   -1510.2964938831      3.90E-09 Convergence criterion met
 Total energy in the final basis set = -1510.29649388

             Standard Nuclear Orientation (Angstroms)
    I     Atom           X                Y                Z
 ----------------------------------------------------------------
    1      O      -4.3235497121     0.6902855278     1.6071933591
    2      C      -3.1219953212     0.3883994123     1.4371585968
    3      C      -2.5661936757    -1.0698046558     1.2637220184
    4      C      -2.2081942128    -1.4617051098    -0.2333637657
    5      C      -2.2861330271    -0.2381875955    -1.2115264191
    6      O      -1.4436744750    -0.4760599950    -2.3449386902
    7      C      -1.5140478965     0.6658103816    -3.2883432810
    8      C      -0.7126345401     1.9201722225    -2.7770696681
    9      O       0.7206596754     1.6059134378    -2.5855832152
   10      C       0.9640474693     1.1790317068    -1.2324043354
   11      C       2.4761061428     0.7824394475    -1.1471075087
   12      C       3.0215705840     0.4716537627     0.3073260218
   13      C       2.0470277259     0.7533740471     1.5082831135
   14      O       1.6840142734    -0.0756466768     2.3700849991
   15      O      -2.0568427195     1.3562511629     1.4385584644
   16      O       1.7081286274     2.1420868890     1.5371588392
   17      O       0.0834539665     1.1273564203    -0.3489971762
   18      C       0.6381978838     2.3518436443     2.5421050089
   19      C       2.6868889909    -0.6334306330    -1.8443084280
   20      C       4.2343808040    -0.8755388551    -2.0563261534
   21      C       4.6891572445    -1.2529588374    -0.5972241510
   22      C       3.3334935629    -1.0806286064     0.1908396508
   23      O       2.3222076547    -1.5819588879    -0.7703832679
   24      H       3.0685937580     1.5687258367    -1.6481754437
   25      H       3.9493355252     1.0468704283     0.4830627859
   26      H       2.0560411594    -0.7923822044    -2.7407623118
   27      H       4.4019260868    -1.7047901855    -2.7617954669
   28      H       4.7419979391     0.0231562208    -2.4416192879
   29      H       5.0380841073    -2.2965640171    -0.5421391718
   30      H       5.4832817586    -0.5928239691    -0.2134720223
   31      H       3.2507020510    -1.6226861641     1.1530684937
   32      O      -3.0005319007     0.7809887159    -1.0807802212
   33      C      -2.6455522485     2.7148947695     1.3862257755
   34      C      -1.1754178949    -1.3649484510     1.9799655722
   35      C      -1.0590639678    -2.9281246912     2.1744452071
   36      C      -0.7870607649    -3.3949766671     0.6957464280
   37      C      -0.7312108203    -2.0088975909    -0.0604781770
   38      O      -0.1627866535    -1.0858715923     0.9415198788
   39      H      -3.3537559083    -1.7426476266     1.6473473040
   40      H      -2.8915901360    -2.2436527900    -0.6151989430
   41      H      -3.1826197252     2.9669200645     2.3238268344
   42      H      -0.9745174504    -0.7576352268     2.8831045294
   43      H      -0.2077957741    -3.1639038981     2.8326907131
   44      H      -1.9729861893    -3.3701935646     2.6024809839
   45      H       0.1787933201    -3.9167396953     0.6063755938
   46      H      -1.5812098137    -4.0508889090     0.3040721968
   47      H      -0.1199740854    -1.9908919224    -0.9826993055
   48      H      -3.3501473672     2.8059106826     0.5355925862
   49      H      -1.7994364601     3.4110343595     1.2460347628
   50      H       0.4599507691     3.4422145575     2.5730763562
   51      H       0.9482823077     1.9995112734     3.5466211521
   52      H      -0.2926580365     1.8208679908     2.2341976730
   53      H      -0.7643252189     2.7186158335    -3.5454407072
   54      H      -1.1634541208     2.2766599894    -1.8267386882
   55      H      -2.5690772453     0.9676743210    -3.4675164002
   56      H      -1.0713364915     0.2902577509    -4.2328091508
 ----------------------------------------------------------------

   11   -1510.2964942715      2.37E-09 Convergence criterion met
 Total energy in the final basis set = -1510.29649427
 Final energy is   -1510.29649427149
 **  OPTIMIZATION CONVERGED  **

                    Orbital Energies (a.u.)
 --------------------------------------------------------------

 Alpha MOs
 -- Occupied --
-18.938 -18.927 -18.923 -18.911 -18.882 -18.879 -18.879 -18.875
-18.858 -18.854 -10.103 -10.095 -10.087 -10.082 -10.076 -10.071
-10.057 -10.051 -10.051 -10.047 -10.046 -10.035 -10.034 -10.033
-10.027 -10.026 -10.017 -10.015 -10.008 -10.007  -1.019  -1.006
 -0.996  -0.990  -0.966  -0.957  -0.941  -0.933  -0.921  -0.914
 -0.757  -0.753  -0.724  -0.714  -0.707  -0.698  -0.689  -0.649
 -0.642  -0.617  -0.591  -0.575  -0.539  -0.535  -0.532  -0.526
 -0.508  -0.501  -0.477  -0.473  -0.454  -0.450  -0.446  -0.438
 -0.428  -0.422  -0.420  -0.415  -0.405  -0.399  -0.398  -0.391
 -0.384  -0.376  -0.365  -0.361  -0.354  -0.347  -0.345  -0.336
 -0.334  -0.332  -0.327  -0.326  -0.320  -0.317  -0.314  -0.306
 -0.304  -0.301  -0.295  -0.294  -0.290  -0.276  -0.272  -0.268
 -0.264  -0.254  -0.247  -0.242  -0.233  -0.230  -0.215  -0.191
 -0.166  -0.163  -0.158  -0.155  -0.146  -0.140  -0.137  -0.135
 -0.124

          Ground-State Mulliken Net Atomic Charges

     Atom                 Charge (a.u.)
  ----------------------------------------
      1 O                    -0.217431
      2 C                     0.213938
      3 C                    -0.081276
      4 C                    -0.076824
      5 C                     0.220466
      6 O                    -0.172335
      7 C                    -0.050201
      8 C                    -0.055475
      9 O                    -0.178657
     10 C                     0.213096
     11 C                    -0.076133
     12 C                    -0.079596
     13 C                     0.220955
     14 O                    -0.212824
     15 O                    -0.165931
     16 O                    -0.176396
     17 O                    -0.195220
     18 C                    -0.139163
     19 C                     0.024909
     20 C                    -0.144386
     21 C                    -0.143983
     22 C                     0.025781
     23 O                    -0.191069
     24 H                     0.085354
     25 H                     0.080893
     26 H                     0.082597
     27 H                     0.076475
     28 H                     0.072943
     29 H                     0.076387
     30 H                     0.072561
     31 H                     0.091749
     32 O                    -0.214899
     33 C                    -0.127886
     34 C                     0.027943
     35 C                    -0.143077
     36 C                    -0.144221
     37 C                     0.025734
     38 O                    -0.177934
     39 H                     0.082058
     40 H                     0.084108
     41 H                     0.084033
     42 H                     0.087883
     43 H                     0.078932
     44 H                     0.070091
     45 H                     0.079310
     46 H                     0.069245
     47 H                     0.095420
     48 H                     0.094695
     49 H                     0.087547
     50 H                     0.076883
     51 H                     0.080544
     52 H                     0.109823
     53 H                     0.087659
     54 H                     0.102937
     55 H                     0.092149
     56 H                     0.089820
  ----------------------------------------
  Sum of atomic charges =    -0.000000

                    Cartesian Multipole Moments
 -----------------------------------------------------------------
    Charge (ESU x 10^10)
                -0.0000
    Dipole Moment (Debye)
         X       1.4765      Y       0.1561      Z      -2.1738
       Tot       2.6325
    Quadrupole Moments (Debye-Ang)
        XX    -160.6370     XY       2.8322     YY    -152.3020
        XZ       1.3215     YZ      -1.1672     ZZ    -152.0698

 Total job time:  173.54s(wall), 8283.48s(cpu)
        *  Thank you very much for using Q-Chem.  Have a nice day.  *
