 Q-Chem 5.0, Q-Chem, Inc., Pleasanton, CA (2017)
 Q-Chem 5.0.1 for Intel X86 EM64T Linux

User input:
--------------------------------------------------------------
$molecule
0  1
O -3.94934 -3.66094 2.70899
C -3.26408 -4.56952 2.26188
C -3.36658 -6.02376 2.66595
C -3.09151 -7.07602 1.57924
C -2.57133 -6.55914 0.25624
O -1.24235 -6.26309 0.36392
C -0.66393 -5.81426 -0.86621
C 0.81323 -5.49188 -0.6657
O 1.46585 -6.58271 0.00292
C 1.62626 -6.43414 1.34133
C 2.44542 -7.54059 1.96213
C 2.97241 -7.24215 3.37334
C 2.32602 -6.07138 4.08619
O 1.55813 -6.15481 5.0338
O -2.14306 -4.20051 1.58843
O 2.69818 -4.83524 3.65633
O 0.87517 -5.71016 1.98122
C 2.2295 -3.65297 4.19036
C 1.64204 -8.82971 2.21267
C 2.59466 -10.0221 2.25775
C 3.31241 -9.75845 3.56565
C 2.52151 -8.54518 4.07177
O 1.22797 -8.73597 3.55193
H 3.27656 -7.76423 1.25454
H 4.07467 -7.10334 3.42359
H 0.84344 -9.00323 1.45996
H 1.96338 -10.93235 2.3745
H 3.25448 -10.14738 1.37244
H 3.16398 -10.63883 4.22957
H 4.39524 -9.52411 3.47544
H 2.59612 -8.47809 5.17973
O -3.1892 -6.63771 -0.7989
C -1.82246 -2.90456 1.2393
C -2.29604 -6.4393 3.70132
C -2.79246 -7.64001 4.5063
C -2.71644 -8.7344 3.45877
C -2.06581 -7.96559 2.30303
O -1.25773 -7.0144 2.9486
H -4.36321 -6.14571 3.14809
H -4.0291 -7.62674 1.34136
H -1.72045 -2.27578 2.14936
H -2.00368 -5.61152 4.38409
H -2.02351 -7.84381 5.28611
H -3.78254 -7.51795 4.99564
H -2.03846 -9.53312 3.8336
H -3.69273 -9.17207 3.15756
H -1.55392 -8.66077 1.60338
H -2.60703 -2.48362 0.57498
H -0.85609 -2.90213 0.69591
H 2.69385 -2.80155 3.65203
H 2.49754 -3.58578 5.2664
H 1.12616 -3.5913 4.07295
H 1.30664 -5.29501 -1.64069
H 0.89147 -4.54299 -0.08658
H -1.18648 -4.9153 -1.26465
H -0.72732 -6.638 -1.61303
$end

$opt
CONSTRAINT
tors           1           2           3           4    +146.206
tors           3           4           5           6     +77.553
tors           4           5           6           7    +177.758
tors           5           6           7           8    +179.487
tors           6           7           8           9     +49.601
tors           7           8           9          10     -98.193
tors           8           9          10          11    -173.881
tors           9          10          11          12    +164.447
tors          11          12          13          14    +108.338
ENDCONSTRAINT
$end

$rem
JOBTYPE                   OPT
METHOD                    B3LYP
DFT_D                     d3_op
BASIS                     STO-3G
GEOM_OPT_MAX_CYCLES       100
GEOM_OPT_TOL_GRADIENT     300
GEOM_OPT_TOL_DISPLACEMENT 1200
GEOM_OPT_TOL_ENERGY       100
SYMMETRY                  False
THRESH                    12
SCF_CONVERGENCE           8
MAX_SUB_FILE_NUM          128
MEM_STATIC                400
MEM_TOTAL                 4000
$end
--------------------------------------------------------------

   15   -1510.1491845376      6.33E-09 Convergence criterion met
 Total energy in the final basis set = -1510.14918454
   14   -1510.2192745005      7.43E-09 Convergence criterion met
 Total energy in the final basis set = -1510.21927450
   14   -1510.2567428489      6.62E-09 Convergence criterion met
 Total energy in the final basis set = -1510.25674285
   14   -1510.2733822268      5.19E-09 Convergence criterion met
 Total energy in the final basis set = -1510.27338223
   14   -1510.2767327697      7.50E-09 Convergence criterion met
 Total energy in the final basis set = -1510.27673277
   14   -1510.2814382447      6.92E-09 Convergence criterion met
 Total energy in the final basis set = -1510.28143824
   13   -1510.2831388966      5.14E-09 Convergence criterion met
 Total energy in the final basis set = -1510.28313890
    2   -1510.2831388967      5.33E-09 Convergence criterion met
   12   -1510.2858568339      3.80E-09 Convergence criterion met
 Total energy in the final basis set = -1510.28585683
   11   -1510.2858799954      5.33E-09 Convergence criterion met
 Total energy in the final basis set = -1510.28588000
   11   -1510.2859089150      3.70E-09 Convergence criterion met
 Total energy in the final basis set = -1510.28590892
   10   -1510.2859221545      9.36E-09 Convergence criterion met
 Total energy in the final basis set = -1510.28592215
    9   -1510.2859366994      9.38E-09 Convergence criterion met
 Total energy in the final basis set = -1510.28593670
    9   -1510.2859393963      7.53E-09 Convergence criterion met
 Total energy in the final basis set = -1510.28593940

             Standard Nuclear Orientation (Angstroms)
    I     Atom           X                Y                Z
 ----------------------------------------------------------------
    1      O      -4.3103960916     0.4568961459     2.1931840622
    2      C      -3.5275045715     0.1963566425     1.2520127811
    3      C      -2.7392656077    -1.1440637721     1.0753805681
    4      C      -2.4694576248    -1.6837757465    -0.3947628148
    5      C      -2.6853490170    -0.6332640293    -1.5473131273
    6      O      -1.5507262545     0.2357890142    -1.5787781030
    7      C      -1.6561766738     1.2216146488    -2.6755892336
    8      C      -0.3555120365     2.0915891368    -2.5593932012
    9      O       0.8499365834     1.2342460908    -2.4598724471
   10      C       1.2482396529     1.0982263873    -1.0893169837
   11      C       2.6050783268     0.3220280702    -1.0375830234
   12      C       3.3291129299     0.4533622133     0.3635216792
   13      C       2.5261100239     1.2842898917     1.4344836027
   14      O       1.9456917934     0.8443840178     2.4491237765
   15      O      -3.2193039506     1.1243672755     0.2084894648
   16      O       2.7393230568     2.6800476935     1.1599555987
   17      O       0.6350526647     1.6064649066    -0.1243714842
   18      C       1.9421019513     3.4955975338     2.1009320529
   19      C       2.4438484106    -1.2567351272    -1.1441019239
   20      C       3.8633419038    -1.8712574680    -1.4728083739
   21      C       4.5808036062    -1.7440935996    -0.0774888203
   22      C       3.4433049391    -1.0697570993     0.7867051219
   23      O       2.2028705307    -1.6789426724     0.2520280044
   24      H       3.2376667020     0.7013763688    -1.8602000994
   25      H       4.3221926034     0.9216266918     0.2422205410
   26      H       1.6228552420    -1.5885081568    -1.8073765731
   27      H       3.7619989309    -2.9240526808    -1.7812098097
   28      H       4.3819749144    -1.3184093602    -2.2723347514
   29      H       4.8425815903    -2.7324411823     0.3324496391
   30      H       5.4922370999    -1.1267619726    -0.1221181694
   31      H       3.5075636377    -1.2305114436     1.8801253093
   32      O      -3.6433337045    -0.5703448884    -2.3481754557
   33      C      -3.9738341219     2.3820301189     0.4083958030
   34      C      -1.2439169036    -1.0833393289     1.6519714884
   35      C      -0.8607662113    -2.5447887572     2.1042390804
   36      C      -0.7076512784    -3.2515988029     0.7062220485
   37      C      -0.9272646486    -2.0384487266    -0.2812718308
   38      O      -0.3984957817    -0.8735654629     0.4625790856
   39      H      -3.3156203496    -1.8969735889     1.6426152492
   40      H      -3.1029092545    -2.5617940592    -0.6140370897
   41      H      -3.7301290423     2.8530515156     1.3822970935
   42      H      -1.0614208678    -0.2881253510     2.4004174705
   43      H       0.0957544890    -2.5307379279     2.6507020567
   44      H      -1.6316606667    -3.0075151103     2.7409608359
   45      H       0.3057287984    -3.6619399819     0.5733262987
   46      H      -1.4462316562    -4.0542319088     0.5493312555
   47      H      -0.4206160998    -2.1399109780    -1.2588963798
   48      H      -5.0693056657     2.2136731793     0.3620970183
   49      H      -3.6673245274     3.0528408586    -0.4150401823
   50      H       2.1911586554     4.5507293600     1.8841686087
   51      H       2.1881719478     3.2640705633     3.1574965898
   52      H       0.8555110085     3.3313726720     1.9473544601
   53      H      -0.2341988948     2.7220514513    -3.4641086132
   54      H      -0.4241869741     2.7264749836    -1.6506378040
   55      H      -2.5599945243     1.8602373383    -2.5648665111
   56      H      -1.7076847782     0.7119209521    -3.6628997425
 ----------------------------------------------------------------

    9   -1510.2859398342      3.58E-09 Convergence criterion met
 Total energy in the final basis set = -1510.28593983
 Final energy is   -1510.28593983416
 **  OPTIMIZATION CONVERGED  **

                    Orbital Energies (a.u.)
 --------------------------------------------------------------

 Alpha MOs
 -- Occupied --
-18.934 -18.932 -18.924 -18.913 -18.884 -18.881 -18.879 -18.867
-18.862 -18.855 -10.099 -10.094 -10.092 -10.085 -10.072 -10.070
-10.063 -10.058 -10.053 -10.051 -10.050 -10.049 -10.035 -10.031
-10.029 -10.028 -10.018 -10.016 -10.009 -10.008  -1.014  -1.009
 -0.999  -0.991  -0.966  -0.959  -0.937  -0.931  -0.925  -0.918
 -0.759  -0.753  -0.724  -0.716  -0.708  -0.698  -0.691  -0.659
 -0.650  -0.611  -0.592  -0.573  -0.543  -0.535  -0.533  -0.526
 -0.512  -0.503  -0.484  -0.476  -0.462  -0.454  -0.447  -0.430
 -0.426  -0.425  -0.418  -0.410  -0.408  -0.402  -0.399  -0.397
 -0.390  -0.374  -0.367  -0.364  -0.354  -0.347  -0.346  -0.342
 -0.337  -0.333  -0.330  -0.328  -0.324  -0.321  -0.318  -0.308
 -0.302  -0.299  -0.297  -0.293  -0.290  -0.286  -0.271  -0.269
 -0.266  -0.248  -0.244  -0.240  -0.239  -0.230  -0.221  -0.175
 -0.174  -0.166  -0.159  -0.153  -0.149  -0.142  -0.141  -0.136
 -0.126

          Ground-State Mulliken Net Atomic Charges

     Atom                 Charge (a.u.)
  ----------------------------------------
      1 O                    -0.216243
      2 C                     0.207063
      3 C                    -0.080822
      4 C                    -0.079563
      5 C                     0.214480
      6 O                    -0.165129
      7 C                    -0.044223
      8 C                    -0.049892
      9 O                    -0.173290
     10 C                     0.225653
     11 C                    -0.076539
     12 C                    -0.080053
     13 C                     0.218558
     14 O                    -0.218648
     15 O                    -0.165840
     16 O                    -0.178222
     17 O                    -0.196584
     18 C                    -0.128696
     19 C                     0.028270
     20 C                    -0.143970
     21 C                    -0.144654
     22 C                     0.025420
     23 O                    -0.184504
     24 H                     0.084865
     25 H                     0.082346
     26 H                     0.081757
     27 H                     0.075959
     28 H                     0.072833
     29 H                     0.076355
     30 H                     0.072583
     31 H                     0.087282
     32 O                    -0.221484
     33 C                    -0.126312
     34 C                     0.029516
     35 C                    -0.140987
     36 C                    -0.144605
     37 C                     0.029427
     38 O                    -0.176350
     39 H                     0.084205
     40 H                     0.082495
     41 H                     0.090881
     42 H                     0.088948
     43 H                     0.082571
     44 H                     0.070996
     45 H                     0.082847
     46 H                     0.069722
     47 H                     0.077014
     48 H                     0.089679
     49 H                     0.087243
     50 H                     0.084045
     51 H                     0.085834
     52 H                     0.090693
     53 H                     0.086286
     54 H                     0.099535
     55 H                     0.087184
     56 H                     0.084067
  ----------------------------------------
  Sum of atomic charges =     0.000000

                    Cartesian Multipole Moments
 -----------------------------------------------------------------
    Charge (ESU x 10^10)
                -0.0000
    Dipole Moment (Debye)
         X       1.9499      Y       0.5887      Z      -1.8396
       Tot       2.7446
    Quadrupole Moments (Debye-Ang)
        XX    -159.6075     XY      -4.2337     YY    -146.2164
        XZ      -1.1453     YZ      -2.5291     ZZ    -161.7105

 Total job time:  60.99s(wall), 2902.12s(cpu)
        *  Thank you very much for using Q-Chem.  Have a nice day.  *
