 Q-Chem 5.0, Q-Chem, Inc., Pleasanton, CA (2017)
 Q-Chem 5.0.1 for Intel X86 EM64T Linux

User input:
--------------------------------------------------------------
$molecule
0  1
O -4.3103960916 0.4568961459 2.1931840622
C -3.5275045715 0.1963566425 1.2520127811
C -2.7392656077 -1.1440637721 1.0753805681
C -2.4694576248 -1.6837757465 -0.3947628148
C -2.685349017 -0.6332640293 -1.5473131273
O -1.5507262545 0.2357890142 -1.578778103
C -1.6561766738 1.2216146488 -2.6755892336
C -0.3555120365 2.0915891368 -2.5593932012
O 0.8499365834 1.2342460908 -2.4598724471
C 1.2482396529 1.0982263873 -1.0893169837
C 2.6050783268 0.3220280702 -1.0375830234
C 3.3291129299 0.4533622133 0.3635216792
C 2.5261100239 1.2842898917 1.4344836027
O 1.9456917934 0.8443840178 2.4491237765
O -3.2193039506 1.1243672755 0.2084894648
O 2.7393230568 2.6800476935 1.1599555987
O 0.6350526647 1.6064649066 -0.1243714842
C 1.9421019513 3.4955975338 2.1009320529
C 2.4438484106 -1.2567351272 -1.1441019239
C 3.8633419038 -1.871257468 -1.4728083739
C 4.5808036062 -1.7440935996 -0.0774888203
C 3.4433049391 -1.0697570993 0.7867051219
O 2.2028705307 -1.6789426724 0.2520280044
H 3.237666702 0.7013763688 -1.8602000994
H 4.3221926034 0.9216266918 0.242220541
H 1.622855242 -1.5885081568 -1.8073765731
H 3.7619989309 -2.9240526808 -1.7812098097
H 4.3819749144 -1.3184093602 -2.2723347514
H 4.8425815903 -2.7324411823 0.3324496391
H 5.4922370999 -1.1267619726 -0.1221181694
H 3.5075636377 -1.2305114436 1.8801253093
O -3.6433337045 -0.5703448884 -2.3481754557
C -3.9738341219 2.3820301189 0.408395803
C -1.2439169036 -1.0833393289 1.6519714884
C -0.8607662113 -2.5447887572 2.1042390804
C -0.7076512784 -3.2515988029 0.7062220485
C -0.9272646486 -2.0384487266 -0.2812718308
O -0.3984957817 -0.8735654629 0.4625790856
H -3.3156203496 -1.8969735889 1.6426152492
H -3.1029092545 -2.5617940592 -0.6140370897
H -3.7301290423 2.8530515156 1.3822970935
H -1.0614208678 -0.288125351 2.4004174705
H 0.095754489 -2.5307379279 2.6507020567
H -1.6316606667 -3.0075151103 2.7409608359
H 0.3057287984 -3.6619399819 0.5733262987
H -1.4462316562 -4.0542319088 0.5493312555
H -0.4206160998 -2.139910978 -1.2588963798
H -5.0693056657 2.2136731793 0.3620970183
H -3.6673245274 3.0528408586 -0.4150401823
H 2.1911586554 4.55072936 1.8841686087
H 2.1881719478 3.2640705633 3.1574965898
H 0.8555110085 3.331372672 1.9473544601
H -0.2341988948 2.7220514513 -3.4641086132
H -0.4241869741 2.7264749836 -1.650637804
H -2.5599945243 1.8602373383 -2.5648665111
H -1.7076847782 0.7119209521 -3.6628997425
$end

$rem
JOBTYPE                   OPT
METHOD                    B3LYP
DFT_D                     d3_op
BASIS                     STO-3G
GEOM_OPT_MAX_CYCLES       100
GEOM_OPT_TOL_GRADIENT     300
GEOM_OPT_TOL_DISPLACEMENT 1200
GEOM_OPT_TOL_ENERGY       100
SYMMETRY                  False
THRESH                    12
SCF_CONVERGENCE           8
MAX_SUB_FILE_NUM          128
MEM_STATIC                400
MEM_TOTAL                 4000
$end
--------------------------------------------------------------

   16   -1510.2858719877      5.80E-09 Convergence criterion met
 Total energy in the final basis set = -1510.28587199
   14   -1510.2868028432      2.78E-09 Convergence criterion met
 Total energy in the final basis set = -1510.28680284
   15   -1510.2859113751      2.93E-09 Convergence criterion met
 Total energy in the final basis set = -1510.28591138
   15   -1510.2803686017      4.40E-09 Convergence criterion met
 Total energy in the final basis set = -1510.28036860
   13   -1510.2850642724      8.99E-09 Convergence criterion met
 Total energy in the final basis set = -1510.28506427
   14   -1510.2893617748      5.16E-09 Convergence criterion met
 Total energy in the final basis set = -1510.28936177
   14   -1510.2760764153      6.16E-09 Convergence criterion met
 Total energy in the final basis set = -1510.27607642
   14   -1510.2901044671      6.59E-09 Convergence criterion met
   11   -1510.3000994788      5.84E-09 Convergence criterion met
 Total energy in the final basis set = -1510.30009948
   11   -1510.3001140120      7.07E-09 Convergence criterion met
 Total energy in the final basis set = -1510.30011401
   11   -1510.3001235311      5.04E-09 Convergence criterion met
 Total energy in the final basis set = -1510.30012353
    9   -1510.3001242903      9.92E-09 Convergence criterion met
 Total energy in the final basis set = -1510.30012429
   10   -1510.3001289697      9.90E-09 Convergence criterion met
 Total energy in the final basis set = -1510.30012897
    9   -1510.3001325250      9.89E-09 Convergence criterion met
 Total energy in the final basis set = -1510.30013253

             Standard Nuclear Orientation (Angstroms)
    I     Atom           X                Y                Z
 ----------------------------------------------------------------
    1      O      -4.5335776894     0.7620720525     1.2861804848
    2      C      -3.3175723871     0.4744753568     1.3277778088
    3      C      -2.7077110921    -0.9764390788     1.3482112863
    4      C      -1.9217556832    -1.3813898595     0.0312377176
    5      C      -2.0597063881    -0.2984851418    -1.0881444513
    6      O      -1.2760616841    -0.6706553355    -2.2305911001
    7      C      -1.4499134132     0.3319545638    -3.3114915378
    8      C      -0.7261805836     1.6972131407    -3.0047547974
    9      O       0.7289701446     1.4991291516    -2.8154017367
   10      C       1.0044924919     1.1023770585    -1.4630017706
   11      C       2.5009154396     0.6482217539    -1.4174146386
   12      C       3.1041034436     0.4218297719     0.0291311767
   13      C       2.2180343301     0.8477659681     1.2592725795
   14      O       1.9786754349     0.1208541644     2.2477707388
   15      O      -2.2728283120     1.4480280452     1.5196047263
   16      O       1.7957700990     2.2052797935     1.1293687996
   17      O       0.1501246864     1.0635402772    -0.5530822364
   18      C       0.7310954641     2.4754443961     2.1274656429
   19      C       2.5652402561    -0.8333280401    -1.9965696938
   20      C       4.0698782916    -1.2326529903    -2.2571379224
   21      C       4.5722138515    -1.5232710246    -0.7934584515
   22      C       3.2904682204    -1.1535100842     0.0414178043
   23      O       2.1820191355    -1.6454839253    -0.8181739971
   24      H       3.1062531042     1.3491325814    -2.0187453442
   25      H       4.0785520085     0.9380786463     0.1113089893
   26      H       1.8714930476    -1.0191532083    -2.8396901531
   27      H       4.1263946774    -2.1306954289    -2.8924302670
   28      H       4.6298780995    -0.4187084194    -2.7447567379
   29      H       4.8264256477    -2.5868940059    -0.6596356642
   30      H       5.4444552204    -0.9121894485    -0.5119191173
   31      H       3.2119668208    -1.5910737749     1.0559328539
   32      O      -2.8028536641     0.7096383798    -1.0632815115
   33      C      -2.8554956754     2.8038155892     1.4172237618
   34      C      -1.5565308446    -1.1154192816     2.4298337487
   35      C      -1.2529613950    -2.6488078068     2.6551039047
   36      C      -0.4383884697    -2.9893700823     1.3539243308
   37      C      -0.4487437612    -1.5989724615     0.6020459791
   38      O      -0.3659683264    -0.6199498233     1.7088173247
   39      H      -3.5427961645    -1.6734989048     1.5381376153
   40      H      -2.3118144406    -2.3291903553    -0.3849002057
   41      H      -3.6603554692     2.9639174554     2.1634451290
   42      H      -1.7226080465    -0.5278235216     3.3531527683
   43      H      -0.6457443944    -2.7910714601     3.5630848011
   44      H      -2.1756976900    -3.2434053673     2.7495589808
   45      H       0.5978747876    -3.2780174285     1.5910857178
   46      H      -0.9006321632    -3.7924161727     0.7579117136
   47      H       0.4032670141    -1.4649981442    -0.1080821333
   48      H      -3.2727526546     2.9819783661     0.4050572329
   49      H      -2.0283211383     3.5113240364     1.6057871021
   50      H       0.4751162225     3.5446605013     2.0128970821
   51      H       1.0846644078     2.2871142521     3.1612452527
   52      H      -0.1625546339     1.8413659200     1.9233575640
   53      H      -0.8398996346     2.3712138941    -3.8776599735
   54      H      -1.1862617068     2.1595565484    -2.1059839709
   55      H      -2.5277939953     0.5364604948    -3.4927551038
   56      H      -1.0069289115    -0.1362716289    -4.2134761644
 ----------------------------------------------------------------

    8   -1510.3001331813      8.92E-09 Convergence criterion met
 Total energy in the final basis set = -1510.30013318
 Final energy is   -1510.30013318127
 **  OPTIMIZATION CONVERGED  **

                    Orbital Energies (a.u.)
 --------------------------------------------------------------

 Alpha MOs
 -- Occupied --
-18.935 -18.934 -18.913 -18.913 -18.899 -18.882 -18.878 -18.871
-18.860 -18.849 -10.102 -10.102 -10.084 -10.081 -10.077 -10.073
-10.066 -10.059 -10.047 -10.045 -10.041 -10.036 -10.033 -10.033
-10.028 -10.025 -10.023 -10.022 -10.006 -10.002  -1.021  -1.008
 -0.992  -0.988  -0.977  -0.952  -0.942  -0.936  -0.918  -0.914
 -0.764  -0.749  -0.728  -0.716  -0.708  -0.702  -0.687  -0.645
 -0.642  -0.619  -0.593  -0.575  -0.546  -0.539  -0.530  -0.523
 -0.512  -0.498  -0.481  -0.470  -0.457  -0.452  -0.448  -0.435
 -0.433  -0.423  -0.418  -0.415  -0.401  -0.399  -0.396  -0.389
 -0.387  -0.378  -0.367  -0.359  -0.354  -0.351  -0.347  -0.343
 -0.338  -0.335  -0.329  -0.324  -0.322  -0.318  -0.313  -0.311
 -0.305  -0.302  -0.299  -0.291  -0.287  -0.276  -0.270  -0.268
 -0.265  -0.253  -0.252  -0.240  -0.237  -0.232  -0.215  -0.194
 -0.167  -0.161  -0.156  -0.154  -0.151  -0.148  -0.136  -0.131
 -0.124

          Ground-State Mulliken Net Atomic Charges

     Atom                 Charge (a.u.)
  ----------------------------------------
      1 O                    -0.223299
      2 C                     0.214554
      3 C                    -0.081190
      4 C                    -0.078597
      5 C                     0.222547
      6 O                    -0.173569
      7 C                    -0.051316
      8 C                    -0.055182
      9 O                    -0.176490
     10 C                     0.216225
     11 C                    -0.077694
     12 C                    -0.081551
     13 C                     0.215635
     14 O                    -0.205478
     15 O                    -0.170221
     16 O                    -0.175606
     17 O                    -0.201470
     18 C                    -0.135329
     19 C                     0.025973
     20 C                    -0.143747
     21 C                    -0.143324
     22 C                     0.024256
     23 O                    -0.189363
     24 H                     0.087747
     25 H                     0.082794
     26 H                     0.086552
     27 H                     0.078980
     28 H                     0.075352
     29 H                     0.078915
     30 H                     0.075268
     31 H                     0.095514
     32 O                    -0.212604
     33 C                    -0.127674
     34 C                     0.026782
     35 C                    -0.144897
     36 C                    -0.143436
     37 C                     0.015554
     38 O                    -0.182521
     39 H                     0.080638
     40 H                     0.083208
     41 H                     0.085154
     42 H                     0.080883
     43 H                     0.076092
     44 H                     0.069609
     45 H                     0.076200
     46 H                     0.068452
     47 H                     0.106262
     48 H                     0.089152
     49 H                     0.084264
     50 H                     0.077303
     51 H                     0.082970
     52 H                     0.116717
     53 H                     0.089510
     54 H                     0.104316
     55 H                     0.092356
     56 H                     0.088827
  ----------------------------------------
  Sum of atomic charges =    -0.000000

                    Cartesian Multipole Moments
 -----------------------------------------------------------------
    Charge (ESU x 10^10)
                -0.0000
    Dipole Moment (Debye)
         X       2.2837      Y      -0.2300      Z      -2.5900
       Tot       3.4607
    Quadrupole Moments (Debye-Ang)
        XX    -160.7042     XY       1.4639     YY    -153.2859
        XZ      -1.3941     YZ      -0.6997     ZZ    -151.3894

 Total job time:  216.20s(wall), 10311.83s(cpu)
        *  Thank you very much for using Q-Chem.  Have a nice day.  *
