 Q-Chem 5.0, Q-Chem, Inc., Pleasanton, CA (2017)
 Q-Chem 5.0.1 for Intel X86 EM64T Linux

User input:
--------------------------------------------------------------
$molecule
0  1
O -4.6254027948 -0.1239928457 1.9658962707
C -3.7004005877 -0.1596148821 1.1236543117
C -2.8277610357 -1.4117723764 0.778687372
C -2.3637418173 -1.6029232993 -0.7295589919
C -2.5718298575 -0.3582743943 -1.6704486791
O -1.4795051064 0.5472836349 -1.4840385492
C -1.5563703459 1.6779834092 -2.4338306291
C -0.3171386765 2.581419849 -2.1055335578
O 0.9493011548 1.812572041 -2.1570387944
C 1.2929504715 1.3379084925 -0.8473962051
C 2.6498834445 0.5639056169 -0.9351803188
C 3.3551717031 0.4173728822 0.476106312
C 2.5391526149 1.0237022032 1.6793289517
O 1.9330747179 0.3974903588 2.573645582
O -3.2808202816 0.9769693443 0.3645365082
O 2.73461081 2.4481308514 1.6737542615
O 0.6343912788 1.5852878384 0.1867581465
C 1.9184988017 3.0613408583 2.7438597275
C 2.4954892764 -0.9600237272 -1.3540277771
C 3.9212760285 -1.5053733349 -1.7634386226
C 4.6023131364 -1.6690011855 -0.353553235
C 3.4487515308 -1.1620532816 0.5985685321
O 2.2170256221 -1.6421094471 -0.0724824452
H 3.2937459826 1.0990352203 -1.6563992494
H 4.353819402 0.8892481153 0.4617326761
H 1.6933066037 -1.1525867886 -2.0914450738
H 3.8270521765 -2.4727855088 -2.2819710487
H 4.4614547641 -0.8044761981 -2.4196069612
H 4.8435705345 -2.7228000201 -0.1416593565
H 5.5202986001 -1.0684723051 -0.2519610034
H 3.4830162634 -1.5323759707 1.6413591541
O -3.4940999099 -0.1842085581 -2.4967079656
C -4.1212069137 2.1503305376 0.6914190805
C -1.414202787 -1.4244524319 1.5323776181
C -0.9655113597 -2.9314959602 1.6707646785
C -0.5875929886 -3.2634492812 0.1799748139
C -0.8146083541 -1.8655938932 -0.515289181
O -0.4687117904 -0.8834034252 0.5377356002
H -3.4241612667 -2.285165113 1.0980064997
H -2.8851448528 -2.46056298 -1.1910626081
H -4.0705380093 2.4016380637 1.7703239919
H -1.3795473639 -0.8288884828 2.4649988369
H -0.0873123325 -3.0034465958 2.3319004284
H -1.7654570499 -3.5770220602 2.0674964335
H 0.4717976557 -3.5513891699 0.0878419716
H -1.2191701282 -4.0542789896 -0.2560365277
H -0.2074667105 -1.6941223033 -1.4219182806
H -5.1828811502 1.9813141189 0.4176046271
H -3.7145398285 2.9882008184 0.0958894269
H 2.1126999282 4.1486911575 2.695775678
H 2.199129462 2.6782994028 3.7465736111
H 0.8379943322 2.8685287111 2.5819619152
H -0.2322188425 3.3904335356 -2.8595952936
H -0.443587353 3.0134126055 -1.0900163067
H -2.4961130098 2.2589816602 -2.302439301
H -1.5156594155 1.3162171058 -3.4850777599
$end

$rem
JOBTYPE                   OPT
METHOD                    B3LYP
DFT_D                     d3_op
BASIS                     STO-3G
GEOM_OPT_MAX_CYCLES       100
GEOM_OPT_TOL_GRADIENT     300
GEOM_OPT_TOL_DISPLACEMENT 1200
GEOM_OPT_TOL_ENERGY       100
SYMMETRY                  False
THRESH                    12
SCF_CONVERGENCE           8
MAX_SUB_FILE_NUM          128
MEM_STATIC                400
MEM_TOTAL                 4000
$end
--------------------------------------------------------------

   16   -1510.2862147308      5.70E-09 Convergence criterion met
 Total energy in the final basis set = -1510.28621473
   15   -1510.2874574566      3.67E-09 Convergence criterion met
 Total energy in the final basis set = -1510.28745746
   13   -1510.2887342700      6.27E-09 Convergence criterion met
 Total energy in the final basis set = -1510.28873427
   13   -1510.2883058895      8.22E-09 Convergence criterion met
 Total energy in the final basis set = -1510.28830589
   13   -1510.2903606320      7.42E-09 Convergence criterion met
 Total energy in the final basis set = -1510.29036063
   14   -1510.2888346869      8.79E-09 Convergence criterion met
 Total energy in the final basis set = -1510.28883469
   14   -1510.2891886933      2.84E-09 Convergence criterion met
 Total energy in the final basis set = -1510.28918869
   14   -1510.2911044797      5.50E-09 Convergence criterion met
   13   -1510.2946885405      3.05E-09 Convergence criterion met
 Total energy in the final basis set = -1510.29468854
   12   -1510.2946997785      8.49E-09 Convergence criterion met
 Total energy in the final basis set = -1510.29469978
   12   -1510.2947467311      5.41E-09 Convergence criterion met
 Total energy in the final basis set = -1510.29474673
   11   -1510.2947319241      6.74E-09 Convergence criterion met
 Total energy in the final basis set = -1510.29473192
   11   -1510.2947573947      4.00E-09 Convergence criterion met
 Total energy in the final basis set = -1510.29475739
   10   -1510.2947522004      5.74E-09 Convergence criterion met
 Total energy in the final basis set = -1510.29475220

             Standard Nuclear Orientation (Angstroms)
    I     Atom           X                Y                Z
 ----------------------------------------------------------------
    1      O      -4.1108386225     0.5364242045     2.0419046674
    2      C      -3.1061934952     0.1749764152     1.3917264683
    3      C      -2.5993382540    -1.2857308110     1.1629974000
    4      C      -2.3678682598    -1.6743090193    -0.3620966565
    5      C      -2.6169202763    -0.4683630837    -1.3399161663
    6      O      -1.4187439110    -0.1893737253    -2.0766325383
    7      C      -1.6210418672     0.9660191428    -2.9795608812
    8      C      -0.7256609464     2.1569747821    -2.4920053820
    9      O       0.6917569283     1.7282143628    -2.4141087230
   10      C       1.0396596697     1.4076667825    -1.0608474095
   11      C       2.5009118230     0.8495276713    -1.0474763729
   12      C       3.0025166014     0.4747003438     0.4052670702
   13      C       2.0339565625     0.8887655732     1.5747809140
   14      O       1.3866114848     0.1348884205     2.3304583852
   15      O      -2.1870191545     1.0726088180     0.7582703728
   16      O       2.1359760174     2.3127815090     1.7509169801
   17      O       0.2862306563     1.5790186264    -0.0775900113
   18      C       1.1615830683     2.7478433913     2.7746017680
   19      C       2.5705904827    -0.5683312004    -1.7612696352
   20      C       4.0895577630    -0.9587919109    -1.9648410102
   21      C       4.4921708239    -1.3973665666    -0.5068076747
   22      C       3.1527512773    -1.1000708219     0.2743696496
   23      O       2.1096103275    -1.4905885062    -0.7023191546
   24      H       3.1635357523     1.5840237872    -1.5400911866
   25      H       3.9796326531     0.9529411171     0.5993877366
   26      H       1.9307632537    -0.6504322665    -2.6613701936
   27      H       4.1809726993    -1.7922432007    -2.6792631646
   28      H       4.6881483216    -0.1108549427    -2.3345210206
   29      H       4.7322961923    -2.4716948734    -0.4629372418
   30      H       5.3467937802    -0.8272493244    -0.1093460408
   31      H       3.0092704504    -1.6477098058     1.2259611742
   32      O      -3.6953278489     0.1435982501    -1.5130676274
   33      C      -2.6398283676     2.4711668493     0.9192950643
   34      C      -1.1306415706    -1.5078442460     1.7466155268
   35      C      -0.9101636576    -3.0598772574     1.9267075203
   36      C      -0.7479769493    -3.5136474424     0.4292583142
   37      C      -0.8514686931    -2.1309990305    -0.3267747459
   38      O      -0.2455865271    -1.1645137035     0.6151724379
   39      H      -3.3277889290    -1.9659636202     1.6376969115
   40      H      -3.0468215983    -2.4948783469    -0.6605103824
   41      H      -2.9823211834     2.6724590190     1.9539357797
   42      H      -0.8769736386    -0.8862292506     2.6266591744
   43      H       0.0075256555    -3.2470594520     2.5068270481
   44      H      -1.7573811550    -3.5489500714     2.4338472059
   45      H       0.2381455858    -3.9695049287     0.2486220024
   46      H      -1.5302472585    -4.2220019986     0.1119937411
   47      H      -0.3367619390    -2.0877022793    -1.3038184251
   48      H      -3.4710343236     2.7017205785     0.2207246088
   49      H      -1.7654536864     3.1038025253     0.6794955998
   50      H       1.2771145700     3.8435737157     2.8665264385
   51      H       1.3550432116     2.2707874436     3.7574368445
   52      H       0.1242006348     2.5065501988     2.4638840447
   53      H      -0.7795261431     2.9946552309    -3.2175498066
   54      H      -1.0626585921     2.4906513003    -1.4885745624
   55      H      -2.6966035778     1.2520813679    -2.9581021730
   56      H      -1.3258629225     0.6538017677    -4.0028757077
 ----------------------------------------------------------------

   10   -1510.2947531794      7.38E-09 Convergence criterion met
 Total energy in the final basis set = -1510.29475318
 Final energy is   -1510.29475317938
 **  OPTIMIZATION CONVERGED  **

                    Orbital Energies (a.u.)
 --------------------------------------------------------------

 Alpha MOs
 -- Occupied --
-18.931 -18.930 -18.926 -18.912 -18.882 -18.881 -18.873 -18.868
-18.865 -18.856 -10.099 -10.097 -10.089 -10.085 -10.070 -10.067
-10.056 -10.056 -10.051 -10.050 -10.044 -10.043 -10.035 -10.030
-10.027 -10.026 -10.017 -10.015 -10.007 -10.006  -1.015  -1.007
 -1.000  -0.991  -0.965  -0.954  -0.939  -0.930  -0.926  -0.918
 -0.758  -0.751  -0.723  -0.714  -0.707  -0.697  -0.688  -0.653
 -0.650  -0.613  -0.591  -0.573  -0.540  -0.534  -0.531  -0.523
 -0.508  -0.501  -0.479  -0.474  -0.460  -0.452  -0.447  -0.432
 -0.427  -0.423  -0.420  -0.410  -0.406  -0.402  -0.397  -0.396
 -0.390  -0.372  -0.368  -0.359  -0.355  -0.348  -0.345  -0.343
 -0.335  -0.334  -0.331  -0.327  -0.320  -0.315  -0.311  -0.308
 -0.301  -0.296  -0.296  -0.291  -0.289  -0.284  -0.270  -0.266
 -0.263  -0.249  -0.245  -0.240  -0.237  -0.227  -0.216  -0.184
 -0.167  -0.164  -0.159  -0.154  -0.152  -0.141  -0.138  -0.136
 -0.124

          Ground-State Mulliken Net Atomic Charges

     Atom                 Charge (a.u.)
  ----------------------------------------
      1 O                    -0.214587
      2 C                     0.209366
      3 C                    -0.080627
      4 C                    -0.077624
      5 C                     0.216304
      6 O                    -0.171206
      7 C                    -0.055521
      8 C                    -0.053554
      9 O                    -0.175385
     10 C                     0.220885
     11 C                    -0.075643
     12 C                    -0.079623
     13 C                     0.221227
     14 O                    -0.215748
     15 O                    -0.162654
     16 O                    -0.177978
     17 O                    -0.195710
     18 C                    -0.128548
     19 C                     0.025664
     20 C                    -0.144586
     21 C                    -0.144052
     22 C                     0.026983
     23 O                    -0.186639
     24 H                     0.085105
     25 H                     0.081495
     26 H                     0.084947
     27 H                     0.076205
     28 H                     0.072355
     29 H                     0.076054
     30 H                     0.072168
     31 H                     0.088764
     32 O                    -0.223215
     33 C                    -0.129896
     34 C                     0.027874
     35 C                    -0.143053
     36 C                    -0.144494
     37 C                     0.027190
     38 O                    -0.176138
     39 H                     0.082755
     40 H                     0.082729
     41 H                     0.091381
     42 H                     0.090996
     43 H                     0.077862
     44 H                     0.070200
     45 H                     0.078597
     46 H                     0.068856
     47 H                     0.093344
     48 H                     0.085736
     49 H                     0.090430
     50 H                     0.083625
     51 H                     0.084115
     52 H                     0.091172
     53 H                     0.086240
     54 H                     0.099803
     55 H                     0.101797
     56 H                     0.084252
  ----------------------------------------
  Sum of atomic charges =     0.000000

                    Cartesian Multipole Moments
 -----------------------------------------------------------------
    Charge (ESU x 10^10)
                -0.0000
    Dipole Moment (Debye)
         X       2.2163      Y       0.4638      Z      -1.7439
       Tot       2.8580
    Quadrupole Moments (Debye-Ang)
        XX    -163.4252     XY       0.8786     YY    -148.7819
        XZ       2.2579     YZ      -1.0732     ZZ    -154.7260

 Total job time:  98.47s(wall), 4697.72s(cpu)
        *  Thank you very much for using Q-Chem.  Have a nice day.  *
