 Q-Chem 5.0, Q-Chem, Inc., Pleasanton, CA (2017)
 Q-Chem 5.0.1 for Intel X86 EM64T Linux

User input:
--------------------------------------------------------------
$molecule
0  1
O -3.94934 -3.66094 2.70899
C -3.26408 -4.56952 2.26188
C -3.36658 -6.02376 2.66595
C -3.13009 -7.07586 1.57004
C -2.64299 -6.56026 0.23401
O -1.29085 -6.37176 0.2744
C -0.73643 -5.99739 -0.99119
C 0.76979 -5.79333 -0.86553
O 1.37859 -6.97035 -0.31156
C 1.54985 -6.96016 1.0337
C 2.2241 -8.20876 1.55045
C 2.84962 -8.07607 2.94666
C 2.41316 -6.87034 3.75439
O 1.67101 -6.89862 4.72546
O -2.15404 -4.2155 1.56133
O 2.94589 -5.67726 3.37553
O 0.92584 -6.18566 1.74582
C 2.67711 -4.47456 3.99501
C 1.26786 -9.39309 1.76323
C 2.05184 -10.70269 1.70276
C 2.8375 -10.62039 2.99458
C 2.24215 -9.34133 3.5953
O 0.91673 -9.32305 3.12154
H 2.98506 -8.50049 0.79047
H 3.96143 -8.1021 2.95036
H 0.43606 -9.41817 1.02941
H 1.30857 -11.52772 1.78962
H 2.66185 -10.85676 0.78676
H 2.58298 -11.50754 3.61603
H 3.93977 -10.53819 2.87714
H 2.36421 -9.35012 4.70107
O -3.31085 -6.60178 -0.79256
C -1.83398 -2.92731 1.18702
C -2.28002 -6.45395 3.6771
C -2.77785 -7.64484 4.49544
C -2.75192 -8.73955 3.44598
C -2.11117 -7.98401 2.27531
O -1.27077 -7.04859 2.90173
H -4.35337 -6.13669 3.17028
H -4.08007 -7.61457 1.35439
H -1.71124 -2.28572 2.08548
H -1.95755 -5.63002 4.35078
H -1.99158 -7.8633 5.25375
H -3.75157 -7.50492 5.01209
H -2.0856 -9.55504 3.80514
H -3.74518 -9.153 3.16688
H -1.63815 -8.68987 1.56394
H -2.62929 -2.51204 0.53196
H -0.87809 -2.94071 0.62421
H 3.24031 -3.66787 3.48277
H 2.99373 -4.5127 5.05921
H 1.59113 -4.2472 3.9337
H 1.20238 -5.59697 -1.86917
H 0.97708 -4.8839 -0.25522
H -1.19773 -5.05699 -1.3692
H -0.90918 -6.81585 -1.72657
$end

$opt
CONSTRAINT
tors           1           2           3           4    +144.545
tors           3           4           5           6     +82.168
tors           4           5           6           7    +174.759
tors           5           6           7           8    +179.508
tors           6           7           8           9     +54.813
tors           7           8           9          10     -94.117
tors           8           9          10          11    -178.597
tors           9          10          11          12    +161.017
tors          11          12          13          14    +107.470
ENDCONSTRAINT
$end

$rem
JOBTYPE                   OPT
METHOD                    B3LYP
DFT_D                     d3_op
BASIS                     STO-3G
GEOM_OPT_MAX_CYCLES       100
GEOM_OPT_TOL_GRADIENT     300
GEOM_OPT_TOL_DISPLACEMENT 1200
GEOM_OPT_TOL_ENERGY       100
SYMMETRY                  False
THRESH                    12
SCF_CONVERGENCE           8
MAX_SUB_FILE_NUM          128
MEM_STATIC                400
MEM_TOTAL                 4000
$end
--------------------------------------------------------------

   15   -1510.1512230016      6.41E-09 Convergence criterion met
 Total energy in the final basis set = -1510.15122300
   14   -1510.2211087867      5.31E-09 Convergence criterion met
 Total energy in the final basis set = -1510.22110879
   14   -1510.2584146623      6.26E-09 Convergence criterion met
 Total energy in the final basis set = -1510.25841466
   14   -1510.2749228912      4.54E-09 Convergence criterion met
 Total energy in the final basis set = -1510.27492289
   14   -1510.2805098948      4.70E-09 Convergence criterion met
 Total energy in the final basis set = -1510.28050989
    2   -1510.2805098946      2.24E-09 Convergence criterion met
 Total energy in the final basis set = -1510.28050989
   14   -1510.2823689293      6.23E-09 Convergence criterion met
 Total energy in the final basis set = -1510.28236893
    2   -1510.2823689293      1.96E-09 Convergence criterion met
   11   -1510.2860734947      8.29E-09 Convergence criterion met
 Total energy in the final basis set = -1510.28607349
   11   -1510.2861095616      4.71E-09 Convergence criterion met
 Total energy in the final basis set = -1510.28610956
   11   -1510.2861361772      3.24E-09 Convergence criterion met
 Total energy in the final basis set = -1510.28613618
   11   -1510.2861414961      2.60E-09 Convergence criterion met
 Total energy in the final basis set = -1510.28614150
    9   -1510.2861453559      6.89E-09 Convergence criterion met
 Total energy in the final basis set = -1510.28614536
    9   -1510.2861478414      6.38E-09 Convergence criterion met
 Total energy in the final basis set = -1510.28614784

             Standard Nuclear Orientation (Angstroms)
    I     Atom           X                Y                Z
 ----------------------------------------------------------------
    1      O      -4.6254027948    -0.1239928457     1.9658962707
    2      C      -3.7004005877    -0.1596148821     1.1236543117
    3      C      -2.8277610357    -1.4117723764     0.7786873720
    4      C      -2.3637418173    -1.6029232993    -0.7295589919
    5      C      -2.5718298575    -0.3582743943    -1.6704486791
    6      O      -1.4795051064     0.5472836349    -1.4840385492
    7      C      -1.5563703459     1.6779834092    -2.4338306291
    8      C      -0.3171386765     2.5814198490    -2.1055335578
    9      O       0.9493011548     1.8125720410    -2.1570387944
   10      C       1.2929504715     1.3379084925    -0.8473962051
   11      C       2.6498834445     0.5639056169    -0.9351803188
   12      C       3.3551717031     0.4173728822     0.4761063120
   13      C       2.5391526149     1.0237022032     1.6793289517
   14      O       1.9330747179     0.3974903588     2.5736455820
   15      O      -3.2808202816     0.9769693443     0.3645365082
   16      O       2.7346108100     2.4481308514     1.6737542615
   17      O       0.6343912788     1.5852878384     0.1867581465
   18      C       1.9184988017     3.0613408583     2.7438597275
   19      C       2.4954892764    -0.9600237272    -1.3540277771
   20      C       3.9212760285    -1.5053733349    -1.7634386226
   21      C       4.6023131364    -1.6690011855    -0.3535532350
   22      C       3.4487515308    -1.1620532816     0.5985685321
   23      O       2.2170256221    -1.6421094471    -0.0724824452
   24      H       3.2937459826     1.0990352203    -1.6563992494
   25      H       4.3538194020     0.8892481153     0.4617326761
   26      H       1.6933066037    -1.1525867886    -2.0914450738
   27      H       3.8270521765    -2.4727855088    -2.2819710487
   28      H       4.4614547641    -0.8044761981    -2.4196069612
   29      H       4.8435705345    -2.7228000201    -0.1416593565
   30      H       5.5202986001    -1.0684723051    -0.2519610034
   31      H       3.4830162634    -1.5323759707     1.6413591541
   32      O      -3.4940999099    -0.1842085581    -2.4967079656
   33      C      -4.1212069137     2.1503305376     0.6914190805
   34      C      -1.4142027870    -1.4244524319     1.5323776181
   35      C      -0.9655113597    -2.9314959602     1.6707646785
   36      C      -0.5875929886    -3.2634492812     0.1799748139
   37      C      -0.8146083541    -1.8655938932    -0.5152891810
   38      O      -0.4687117904    -0.8834034252     0.5377356002
   39      H      -3.4241612667    -2.2851651130     1.0980064997
   40      H      -2.8851448528    -2.4605629800    -1.1910626081
   41      H      -4.0705380093     2.4016380637     1.7703239919
   42      H      -1.3795473639    -0.8288884828     2.4649988369
   43      H      -0.0873123325    -3.0034465958     2.3319004284
   44      H      -1.7654570499    -3.5770220602     2.0674964335
   45      H       0.4717976557    -3.5513891699     0.0878419716
   46      H      -1.2191701282    -4.0542789896    -0.2560365277
   47      H      -0.2074667105    -1.6941223033    -1.4219182806
   48      H      -5.1828811502     1.9813141189     0.4176046271
   49      H      -3.7145398285     2.9882008184     0.0958894269
   50      H       2.1126999282     4.1486911575     2.6957756780
   51      H       2.1991294620     2.6782994028     3.7465736111
   52      H       0.8379943322     2.8685287111     2.5819619152
   53      H      -0.2322188425     3.3904335356    -2.8595952936
   54      H      -0.4435873530     3.0134126055    -1.0900163067
   55      H      -2.4961130098     2.2589816602    -2.3024393010
   56      H      -1.5156594155     1.3162171058    -3.4850777599
 ----------------------------------------------------------------

    9   -1510.2861426474      4.03E-09 Convergence criterion met
 Total energy in the final basis set = -1510.28614265
 Final energy is   -1510.28614264744
 **  OPTIMIZATION CONVERGED  **

                    Orbital Energies (a.u.)
 --------------------------------------------------------------

 Alpha MOs
 -- Occupied --
-18.934 -18.932 -18.924 -18.913 -18.885 -18.881 -18.878 -18.867
-18.862 -18.856 -10.098 -10.094 -10.092 -10.085 -10.072 -10.071
-10.063 -10.060 -10.054 -10.050 -10.049 -10.048 -10.036 -10.030
-10.029 -10.029 -10.019 -10.017 -10.008 -10.007  -1.014  -1.008
 -0.999  -0.992  -0.967  -0.958  -0.936  -0.931  -0.926  -0.918
 -0.759  -0.753  -0.724  -0.716  -0.708  -0.698  -0.691  -0.658
 -0.650  -0.612  -0.592  -0.573  -0.544  -0.536  -0.533  -0.525
 -0.512  -0.504  -0.484  -0.475  -0.462  -0.454  -0.447  -0.430
 -0.425  -0.424  -0.419  -0.410  -0.408  -0.402  -0.399  -0.397
 -0.390  -0.374  -0.366  -0.365  -0.354  -0.347  -0.346  -0.343
 -0.337  -0.333  -0.331  -0.329  -0.323  -0.322  -0.317  -0.308
 -0.301  -0.299  -0.297  -0.293  -0.289  -0.285  -0.271  -0.269
 -0.267  -0.249  -0.244  -0.240  -0.239  -0.231  -0.221  -0.174
 -0.174  -0.167  -0.159  -0.153  -0.149  -0.142  -0.140  -0.136
 -0.128

          Ground-State Mulliken Net Atomic Charges

     Atom                 Charge (a.u.)
  ----------------------------------------
      1 O                    -0.215978
      2 C                     0.207184
      3 C                    -0.080520
      4 C                    -0.080010
      5 C                     0.214057
      6 O                    -0.165752
      7 C                    -0.044897
      8 C                    -0.049981
      9 O                    -0.173918
     10 C                     0.221108
     11 C                    -0.076814
     12 C                    -0.079966
     13 C                     0.218230
     14 O                    -0.215422
     15 O                    -0.165084
     16 O                    -0.178453
     17 O                    -0.192520
     18 C                    -0.128606
     19 C                     0.027366
     20 C                    -0.143928
     21 C                    -0.144552
     22 C                     0.025776
     23 O                    -0.185877
     24 H                     0.084966
     25 H                     0.082337
     26 H                     0.080413
     27 H                     0.076403
     28 H                     0.073377
     29 H                     0.076589
     30 H                     0.072952
     31 H                     0.088146
     32 O                    -0.222113
     33 C                    -0.126399
     34 C                     0.028850
     35 C                    -0.141610
     36 C                    -0.145225
     37 C                     0.030295
     38 O                    -0.174532
     39 H                     0.084031
     40 H                     0.082324
     41 H                     0.090910
     42 H                     0.086203
     43 H                     0.081116
     44 H                     0.070723
     45 H                     0.085106
     46 H                     0.068986
     47 H                     0.078164
     48 H                     0.089393
     49 H                     0.087701
     50 H                     0.084080
     51 H                     0.084899
     52 H                     0.092241
     53 H                     0.086804
     54 H                     0.099748
     55 H                     0.087490
     56 H                     0.084190
  ----------------------------------------
  Sum of atomic charges =     0.000000

                    Cartesian Multipole Moments
 -----------------------------------------------------------------
    Charge (ESU x 10^10)
                -0.0000
    Dipole Moment (Debye)
         X       2.1018      Y       0.9266      Z      -1.6527
       Tot       2.8297
    Quadrupole Moments (Debye-Ang)
        XX    -160.0072     XY      -4.8404     YY    -146.1419
        XZ      -1.8489     YZ       0.3955     ZZ    -161.2467

 Total job time:  62.53s(wall), 2973.47s(cpu)
        *  Thank you very much for using Q-Chem.  Have a nice day.  *
