 Q-Chem 5.0, Q-Chem, Inc., Pleasanton, CA (2017)
 Q-Chem 5.0.1 for Intel X86 EM64T Linux

User input:
--------------------------------------------------------------
$molecule
0  1
O -4.525417668 -1.7359854854 0.8155846076
C -3.6050719496 -1.0108288777 0.3756348868
C -2.7293822098 -1.3136702813 -0.8843180266
C -2.2745106897 -0.0892870295 -1.7902129446
C -2.511188932 1.3475572008 -1.1892179985
O -1.4341457484 1.649605323 -0.3007387168
C -1.4909158838 3.0471507154 0.1809181976
C -0.2511565468 3.178700036 1.1342320907
O 0.9762276235 2.769218172 0.4070033713
C 1.2767833898 1.4009707326 0.7183659017
C 2.7193843259 1.0476481381 0.2321376436
C 3.1831421958 -0.3752848857 0.7469967316
C 2.1543261268 -1.1058844568 1.6927015384
O 1.4731601511 -2.1180903173 1.4250820828
O -3.1965176632 0.2098285204 0.9980892803
O 2.2870754195 -0.5419164614 3.0108819346
O 0.5266902523 0.6589565269 1.3920971441
C 1.2889763742 -1.1593355932 3.9099525457
C 2.7754872447 0.8282033721 -1.3418549527
C 4.2900305589 0.7659719673 -1.7909594586
C 4.6941443744 -0.6753041544 -1.3043538701
C 3.350252141 -1.1517431225 -0.6254863087
O 2.3061254582 -0.5656485412 -1.4987497241
H 3.4044944619 1.8532768107 0.5520354801
H 4.1434230234 -0.2947259272 1.2870824276
H 2.1391172929 1.5260749654 -1.9202542725
H 4.3705380704 0.8626526728 -2.8853449962
H 4.8941457673 1.5586378131 -1.3212243678
H 4.9509307476 -1.3291793177 -2.1531050681
H 5.5393405383 -0.665585953 -0.5978747821
H 3.2085973965 -2.2467083951 -0.5432693704
O -3.4386930417 2.1391492207 -1.4662199064
C -4.0354036024 0.4829371407 2.1861451072
C -1.3115362764 -1.9690044201 -0.5279829055
C -0.8554963191 -2.8175504463 -1.7775249325
C -0.4794880225 -1.6728668357 -2.7902639892
C -0.7177985626 -0.3867687341 -1.9059344409
O -0.3739818902 -0.8315771595 -0.5370635241
H -3.319365912 -2.023679422 -1.490978528
H -2.787660806 -0.1240976661 -2.7678469441
H -3.9734158231 -0.33868925 2.9284908276
H -1.2695174395 -2.4950834362 0.4452990743
H 0.0242352826 -3.4275004693 -1.5169290997
H -1.6508326807 -3.4813244701 -2.1529946444
H 0.5807065932 -1.7256026338 -3.0846816318
H -1.1095315893 -1.6792291982 -3.6942511808
H -0.1103674946 0.4921861661 -2.1903991255
H -5.0999500187 0.629210238 1.9103130301
H -3.6369271929 1.4139396261 2.6293878561
H 1.4602061249 -0.7211768858 4.9105097199
H 1.4062550368 -2.261348802 3.9619140409
H 0.2558777166 -0.9304388823 3.5759053718
H -0.1098881129 4.2351118163 1.4417125806
H -0.3985520942 2.5278025847 2.0212555231
H -2.4349644915 3.2537759108 0.732342704
H -1.4165754478 3.7637646056 -0.6665764934
$end

$rem
JOBTYPE                   OPT
METHOD                    B3LYP
DFT_D                     d3_op
BASIS                     STO-3G
GEOM_OPT_MAX_CYCLES       100
GEOM_OPT_TOL_GRADIENT     300
GEOM_OPT_TOL_DISPLACEMENT 1200
GEOM_OPT_TOL_ENERGY       100
SYMMETRY                  False
THRESH                    12
SCF_CONVERGENCE           8
MAX_SUB_FILE_NUM          128
MEM_STATIC                400
MEM_TOTAL                 4000
$end
--------------------------------------------------------------

   16   -1510.2856377495      5.78E-09 Convergence criterion met
 Total energy in the final basis set = -1510.28563775
   14   -1510.2810633196      3.49E-09 Convergence criterion met
 Total energy in the final basis set = -1510.28106332
   14   -1510.2869499804      8.05E-09 Convergence criterion met
 Total energy in the final basis set = -1510.28694998
   15   -1510.2886011502      1.43E-09 Convergence criterion met
 Total energy in the final basis set = -1510.28860115
   14   -1510.2890319565      7.35E-09 Convergence criterion met
 Total energy in the final basis set = -1510.28903196
   13   -1510.2894960152      9.24E-09 Convergence criterion met
 Total energy in the final basis set = -1510.28949602
   14   -1510.2903360418      5.31E-09 Convergence criterion met
 Total energy in the final basis set = -1510.29033604
   14   -1510.2900557748      6.76E-09 Convergence criterion met
   11   -1510.2947344002      3.10E-09 Convergence criterion met
 Total energy in the final basis set = -1510.29473440
   12   -1510.2947491423      8.13E-09 Convergence criterion met
 Total energy in the final basis set = -1510.29474914
   12   -1510.2947444272      4.40E-09 Convergence criterion met
 Total energy in the final basis set = -1510.29474443
   11   -1510.2947525833      2.30E-09 Convergence criterion met
 Total energy in the final basis set = -1510.29475258
   12   -1510.2947622608      5.60E-09 Convergence criterion met
 Total energy in the final basis set = -1510.29476226
   12   -1510.2947593309      2.28E-09 Convergence criterion met
 Total energy in the final basis set = -1510.29475933

             Standard Nuclear Orientation (Angstroms)
    I     Atom           X                Y                Z
 ----------------------------------------------------------------
    1      O      -4.2623040245     0.0675920699     1.8191678348
    2      C      -3.1934134351    -0.1549867914     1.2101950684
    3      C      -2.5838292952    -1.5466547907     0.8414294133
    4      C      -2.2185575155    -1.7217058296    -0.6965657691
    5      C      -2.4875145363    -0.4204942567    -1.5365636883
    6      O      -1.2720116149     0.0037359432    -2.1676355204
    7      C      -1.4912198505     1.2556851974    -2.9265340610
    8      C      -0.7137638275     2.4196829683    -2.2201348011
    9      O       0.7235063832     2.0728089214    -2.1111466204
   10      C       1.0191556607     1.5876994051    -0.7945022066
   11      C       2.5041900258     1.0989029010    -0.7759247577
   12      C       2.9711176578     0.5870397731     0.6463358368
   13      C       1.9268863852     0.7959462368     1.8053612209
   14      O       1.2959249701    -0.0824545729     2.4286718895
   15      O      -2.2876647744     0.8636953932     0.7704628987
   16      O       1.9285555460     2.1911593845     2.1553191285
   17      O       0.2072829967     1.5847623488     0.1565350983
   18      C       0.8821970782     2.4418448060     3.1697426516
   19      C       2.6715420712    -0.2252831884    -1.6401703801
   20      C       4.2151221437    -0.5040480067    -1.8389844317
   21      C       4.6089674550    -1.0664670114    -0.4217886824
   22      C       3.2315557306    -0.9482698652     0.3425657154
   23      O       2.2414024873    -1.2865911159    -0.7056771214
   24      H       3.1487687213     1.9116857359    -1.1567462810
   25      H       3.9042389573     1.0990324986     0.9430088924
   26      H       2.0590436421    -0.2407663431    -2.5626907051
   27      H       4.3727030990    -1.2532268044    -2.6309984004
   28      H       4.7695020619     0.4107967093    -2.1025529186
   29      H       4.9270131118    -2.1196367756    -0.4818793854
   30      H       5.4085780830    -0.4830160509     0.0617479495
   31      H       3.1024319348    -1.6108984219     1.2199865361
   32      O      -3.5879084709     0.1553146804    -1.6944739416
   33      C      -2.8345048894     2.2031804703     1.0772629622
   34      C      -1.1504866479    -1.7660113179     1.5069137733
   35      C      -0.8416072972    -3.3141257390     1.4966563105
   36      C      -0.5274010785    -3.5459431338    -0.0275372971
   37      C      -0.6783199127    -2.0827205314    -0.6000809548
   38      O      -0.2112955453    -1.2197546894     0.5069283960
   39      H      -3.3025834839    -2.3184067816     1.1684653825
   40      H      -2.8123998395    -2.5402190777    -1.1443891135
   41      H      -3.2229093701     2.2588520646     2.1139273713
   42      H      -1.0047451529    -1.2598259064     2.4805493905
   43      H       0.0356468244    -3.5299920700     2.1270270343
   44      H      -1.6934085329    -3.9140670037     1.8549824438
   45      H       0.5031957510    -3.9035562660    -0.1787101465
   46      H      -1.2234414793    -4.2550402074    -0.5038925544
   47      H      -0.1007523325    -1.8709589375    -1.5186011098
   48      H      -3.6549506584     2.4680887980     0.3782718069
   49      H      -1.9943522974     2.9103747145     0.9507476296
   50      H       0.9335113822     3.5203376211     3.4075486976
   51      H       1.0516686313     1.8496919110     4.0925413993
   52      H      -0.1237737704     2.1948011828     2.7722140200
   53      H      -0.7886685239     3.3484187463    -2.8224244206
   54      H      -1.1300000084     2.5811730149    -1.2040177152
   55      H      -2.5824517601     1.4738867153    -2.9492470610
   56      H      -1.1064907903     1.1010521641    -3.9557615769
 ----------------------------------------------------------------

    9   -1510.2947600334      8.12E-09 Convergence criterion met
 Total energy in the final basis set = -1510.29476003
 Final energy is   -1510.29476003340
 **  OPTIMIZATION CONVERGED  **

                    Orbital Energies (a.u.)
 --------------------------------------------------------------

 Alpha MOs
 -- Occupied --
-18.931 -18.930 -18.926 -18.912 -18.882 -18.882 -18.873 -18.869
-18.865 -18.856 -10.098 -10.097 -10.089 -10.085 -10.070 -10.067
-10.056 -10.056 -10.052 -10.050 -10.045 -10.043 -10.035 -10.030
-10.027 -10.026 -10.017 -10.015 -10.007 -10.006  -1.015  -1.007
 -1.000  -0.991  -0.965  -0.954  -0.939  -0.931  -0.926  -0.917
 -0.758  -0.751  -0.723  -0.714  -0.707  -0.698  -0.688  -0.653
 -0.650  -0.613  -0.591  -0.573  -0.540  -0.534  -0.531  -0.523
 -0.508  -0.501  -0.479  -0.473  -0.460  -0.452  -0.447  -0.433
 -0.428  -0.422  -0.421  -0.411  -0.406  -0.402  -0.397  -0.396
 -0.390  -0.372  -0.368  -0.358  -0.355  -0.348  -0.345  -0.343
 -0.335  -0.334  -0.331  -0.327  -0.320  -0.315  -0.311  -0.308
 -0.301  -0.297  -0.296  -0.291  -0.289  -0.284  -0.270  -0.266
 -0.263  -0.249  -0.245  -0.240  -0.237  -0.228  -0.216  -0.185
 -0.167  -0.164  -0.159  -0.154  -0.153  -0.141  -0.139  -0.136
 -0.124

          Ground-State Mulliken Net Atomic Charges

     Atom                 Charge (a.u.)
  ----------------------------------------
      1 O                    -0.214643
      2 C                     0.209309
      3 C                    -0.080472
      4 C                    -0.077864
      5 C                     0.216308
      6 O                    -0.171782
      7 C                    -0.055575
      8 C                    -0.053823
      9 O                    -0.175829
     10 C                     0.220222
     11 C                    -0.075875
     12 C                    -0.079550
     13 C                     0.220918
     14 O                    -0.214696
     15 O                    -0.162764
     16 O                    -0.178053
     17 O                    -0.195311
     18 C                    -0.128615
     19 C                     0.025716
     20 C                    -0.144480
     21 C                    -0.144095
     22 C                     0.026955
     23 O                    -0.186849
     24 H                     0.085180
     25 H                     0.081563
     26 H                     0.084785
     27 H                     0.076284
     28 H                     0.072529
     29 H                     0.076008
     30 H                     0.072171
     31 H                     0.088718
     32 O                    -0.222782
     33 C                    -0.129577
     34 C                     0.028282
     35 C                    -0.143133
     36 C                    -0.144428
     37 C                     0.027276
     38 O                    -0.175925
     39 H                     0.082741
     40 H                     0.082752
     41 H                     0.090731
     42 H                     0.089712
     43 H                     0.078015
     44 H                     0.070192
     45 H                     0.079110
     46 H                     0.068840
     47 H                     0.093601
     48 H                     0.086158
     49 H                     0.090205
     50 H                     0.083613
     51 H                     0.084321
     52 H                     0.091192
     53 H                     0.086179
     54 H                     0.100161
     55 H                     0.101784
     56 H                     0.084587
  ----------------------------------------
  Sum of atomic charges =     0.000000

                    Cartesian Multipole Moments
 -----------------------------------------------------------------
    Charge (ESU x 10^10)
                -0.0000
    Dipole Moment (Debye)
         X       2.2744      Y       0.7728      Z      -1.5700
       Tot       2.8697
    Quadrupole Moments (Debye-Ang)
        XX    -163.7228     XY      -0.1780     YY    -148.7085
        XZ       1.6783     YZ      -0.0590     ZZ    -154.5636

 Total job time:  127.27s(wall), 6068.80s(cpu)
        *  Thank you very much for using Q-Chem.  Have a nice day.  *
