 Q-Chem 5.0, Q-Chem, Inc., Pleasanton, CA (2017)
 Q-Chem 5.0.1 for Intel X86 EM64T Linux

User input:
--------------------------------------------------------------
$molecule
0  1
O -3.94934 -3.66094 2.70899
C -3.26408 -4.56952 2.26188
C -3.36658 -6.02376 2.66595
C -3.13386 -7.07583 1.5692
C -2.64999 -6.56034 0.23196
O -1.29761 -6.37286 0.26871
C -0.74071 -6.03755 -1.00671
C 0.76623 -5.83606 -0.8857
O 1.36815 -6.99375 -0.28544
C 1.59154 -6.90888 1.04949
C 2.48982 -8.00715 1.56672
C 2.9454 -7.83855 3.02353
C 2.17381 -6.82456 3.84401
O 1.40875 -7.08874 4.76023
O -2.15686 -4.21584 1.55651
O 2.54193 -5.52409 3.67376
O 1.12173 -5.99075 1.70333
C 2.01408 -4.46642 4.38551
C 1.81537 -9.38697 1.60745
C 2.88409 -10.47582 1.55538
C 3.51141 -10.31991 2.92598
C 2.58793 -9.2553 3.5325
O 1.34098 -9.49902 2.92539
H 3.3755 -8.02876 0.89127
H 4.0303 -7.62342 3.14231
H 1.06468 -9.53646 0.8008
H 2.35005 -11.45241 1.51668
H 3.59126 -10.41109 0.7006
H 3.41031 -11.28629 3.46815
H 4.57237 -9.9885 2.9294
H 2.61058 -9.32409 4.64259
O -3.31902 -6.61034 -0.79347
C -1.83647 -2.92766 1.18272
C -2.25872 -6.43734 3.66293
C -2.72506 -7.63617 4.48778
C -2.68621 -8.73188 3.44094
C -2.07867 -7.96432 2.26151
O -1.24667 -7.01027 2.87359
H -4.34564 -6.14094 3.1838
H -4.07598 -7.63149 1.36319
H -1.7081 -2.28792 2.08172
H -1.94296 -5.60879 4.33445
H -1.92857 -7.83788 5.24003
H -3.69718 -7.51323 5.01171
H -1.99428 -9.52923 3.79257
H -3.67226 -9.17076 3.17551
H -1.58656 -8.66297 1.54931
H -2.63427 -2.50985 0.53234
H -0.88335 -2.94195 0.6152
H 2.48751 -3.52419 4.04143
H 2.21766 -4.59426 5.47011
H 0.918 -4.39989 4.21402
H 1.20376 -5.6807 -1.89438
H 0.97011 -4.89557 -0.32481
H -1.19905 -5.10873 -1.41578
H -0.91458 -6.87888 -1.71558
$end

$opt
CONSTRAINT
tors           1           2           3           4    +144.383
tors           3           4           5           6     +82.168
tors           4           5           6           7    +173.009
tors           5           6           7           8    +179.666
tors           6           7           8           9     +54.256
tors           7           8           9          10     -96.943
tors           8           9          10          11    -167.279
tors           9          10          11          12    +171.193
tors          11          12          13          14    +109.834
ENDCONSTRAINT
$end

$rem
JOBTYPE                   OPT
METHOD                    B3LYP
DFT_D                     d3_op
BASIS                     STO-3G
GEOM_OPT_MAX_CYCLES       100
GEOM_OPT_TOL_GRADIENT     300
GEOM_OPT_TOL_DISPLACEMENT 1200
GEOM_OPT_TOL_ENERGY       100
SYMMETRY                  False
THRESH                    12
SCF_CONVERGENCE           8
MAX_SUB_FILE_NUM          128
MEM_STATIC                400
MEM_TOTAL                 4000
$end
--------------------------------------------------------------

   15   -1510.1537910047      6.49E-09 Convergence criterion met
 Total energy in the final basis set = -1510.15379100
   14   -1510.2237742125      6.74E-09 Convergence criterion met
 Total energy in the final basis set = -1510.22377421
   14   -1510.2604202688      5.08E-09 Convergence criterion met
 Total energy in the final basis set = -1510.26042027
   14   -1510.2750760697      6.08E-09 Convergence criterion met
 Total energy in the final basis set = -1510.27507607
   14   -1510.2804816769      4.69E-09 Convergence criterion met
 Total energy in the final basis set = -1510.28048168
   14   -1510.2819462710      5.22E-09 Convergence criterion met
 Total energy in the final basis set = -1510.28194627
   13   -1510.2834017328      5.73E-09 Convergence criterion met
 Total energy in the final basis set = -1510.28340173
   13   -1510.2842030517      6.53E-09 Convergence criterion met
   11   -1510.2853956181      8.07E-09 Convergence criterion met
 Total energy in the final basis set = -1510.28539562
   11   -1510.2854552869      6.23E-09 Convergence criterion met
 Total energy in the final basis set = -1510.28545529
   11   -1510.2854901893      5.94E-09 Convergence criterion met
 Total energy in the final basis set = -1510.28549019
   11   -1510.2855164535      5.51E-09 Convergence criterion met
 Total energy in the final basis set = -1510.28551645
   10   -1510.2855312175      7.81E-09 Convergence criterion met
 Total energy in the final basis set = -1510.28553122
   10   -1510.2855351951      9.43E-09 Convergence criterion met
 Total energy in the final basis set = -1510.28553520

             Standard Nuclear Orientation (Angstroms)
    I     Atom           X                Y                Z
 ----------------------------------------------------------------
    1      O      -4.5254176680    -1.7359854854     0.8155846076
    2      C      -3.6050719496    -1.0108288777     0.3756348868
    3      C      -2.7293822098    -1.3136702813    -0.8843180266
    4      C      -2.2745106897    -0.0892870295    -1.7902129446
    5      C      -2.5111889320     1.3475572008    -1.1892179985
    6      O      -1.4341457484     1.6496053230    -0.3007387168
    7      C      -1.4909158838     3.0471507154     0.1809181976
    8      C      -0.2511565468     3.1787000360     1.1342320907
    9      O       0.9762276235     2.7692181720     0.4070033713
   10      C       1.2767833898     1.4009707326     0.7183659017
   11      C       2.7193843259     1.0476481381     0.2321376436
   12      C       3.1831421958    -0.3752848857     0.7469967316
   13      C       2.1543261268    -1.1058844568     1.6927015384
   14      O       1.4731601511    -2.1180903173     1.4250820828
   15      O      -3.1965176632     0.2098285204     0.9980892803
   16      O       2.2870754195    -0.5419164614     3.0108819346
   17      O       0.5266902523     0.6589565269     1.3920971441
   18      C       1.2889763742    -1.1593355932     3.9099525457
   19      C       2.7754872447     0.8282033721    -1.3418549527
   20      C       4.2900305589     0.7659719673    -1.7909594586
   21      C       4.6941443744    -0.6753041544    -1.3043538701
   22      C       3.3502521410    -1.1517431225    -0.6254863087
   23      O       2.3061254582    -0.5656485412    -1.4987497241
   24      H       3.4044944619     1.8532768107     0.5520354801
   25      H       4.1434230234    -0.2947259272     1.2870824276
   26      H       2.1391172929     1.5260749654    -1.9202542725
   27      H       4.3705380704     0.8626526728    -2.8853449962
   28      H       4.8941457673     1.5586378131    -1.3212243678
   29      H       4.9509307476    -1.3291793177    -2.1531050681
   30      H       5.5393405383    -0.6655859530    -0.5978747821
   31      H       3.2085973965    -2.2467083951    -0.5432693704
   32      O      -3.4386930417     2.1391492207    -1.4662199064
   33      C      -4.0354036024     0.4829371407     2.1861451072
   34      C      -1.3115362764    -1.9690044201    -0.5279829055
   35      C      -0.8554963191    -2.8175504463    -1.7775249325
   36      C      -0.4794880225    -1.6728668357    -2.7902639892
   37      C      -0.7177985626    -0.3867687341    -1.9059344409
   38      O      -0.3739818902    -0.8315771595    -0.5370635241
   39      H      -3.3193659120    -2.0236794220    -1.4909785280
   40      H      -2.7876608060    -0.1240976661    -2.7678469441
   41      H      -3.9734158231    -0.3386892500     2.9284908276
   42      H      -1.2695174395    -2.4950834362     0.4452990743
   43      H       0.0242352826    -3.4275004693    -1.5169290997
   44      H      -1.6508326807    -3.4813244701    -2.1529946444
   45      H       0.5807065932    -1.7256026338    -3.0846816318
   46      H      -1.1095315893    -1.6792291982    -3.6942511808
   47      H      -0.1103674946     0.4921861661    -2.1903991255
   48      H      -5.0999500187     0.6292102380     1.9103130301
   49      H      -3.6369271929     1.4139396261     2.6293878561
   50      H       1.4602061249    -0.7211768858     4.9105097199
   51      H       1.4062550368    -2.2613488020     3.9619140409
   52      H       0.2558777166    -0.9304388823     3.5759053718
   53      H      -0.1098881129     4.2351118163     1.4417125806
   54      H      -0.3985520942     2.5278025847     2.0212555231
   55      H      -2.4349644915     3.2537759108     0.7323427040
   56      H      -1.4165754478     3.7637646056    -0.6665764934
 ----------------------------------------------------------------

    9   -1510.2855354130      6.45E-09 Convergence criterion met
 Total energy in the final basis set = -1510.28553541
 Final energy is   -1510.28553541298
 **  OPTIMIZATION CONVERGED  **

                    Orbital Energies (a.u.)
 --------------------------------------------------------------

 Alpha MOs
 -- Occupied --
-18.933 -18.932 -18.923 -18.910 -18.884 -18.884 -18.876 -18.866
-18.861 -18.852 -10.099 -10.093 -10.091 -10.083 -10.073 -10.071
-10.062 -10.059 -10.053 -10.049 -10.047 -10.046 -10.037 -10.028
-10.028 -10.027 -10.019 -10.017 -10.007 -10.005  -1.015  -1.007
 -0.998  -0.989  -0.967  -0.956  -0.937  -0.930  -0.925  -0.916
 -0.759  -0.751  -0.724  -0.715  -0.707  -0.698  -0.689  -0.657
 -0.649  -0.611  -0.591  -0.573  -0.542  -0.535  -0.532  -0.524
 -0.510  -0.504  -0.484  -0.476  -0.461  -0.453  -0.449  -0.429
 -0.424  -0.422  -0.418  -0.409  -0.407  -0.401  -0.398  -0.396
 -0.389  -0.376  -0.365  -0.364  -0.354  -0.347  -0.344  -0.341
 -0.337  -0.332  -0.330  -0.327  -0.322  -0.321  -0.315  -0.308
 -0.302  -0.298  -0.297  -0.292  -0.289  -0.283  -0.270  -0.268
 -0.266  -0.249  -0.243  -0.238  -0.238  -0.231  -0.218  -0.174
 -0.172  -0.166  -0.157  -0.152  -0.147  -0.142  -0.139  -0.134
 -0.126

          Ground-State Mulliken Net Atomic Charges

     Atom                 Charge (a.u.)
  ----------------------------------------
      1 O                    -0.216680
      2 C                     0.206998
      3 C                    -0.080701
      4 C                    -0.079932
      5 C                     0.214104
      6 O                    -0.165536
      7 C                    -0.044365
      8 C                    -0.048909
      9 O                    -0.173897
     10 C                     0.221913
     11 C                    -0.076594
     12 C                    -0.080014
     13 C                     0.220289
     14 O                    -0.219361
     15 O                    -0.164589
     16 O                    -0.179609
     17 O                    -0.187553
     18 C                    -0.128641
     19 C                     0.026180
     20 C                    -0.144255
     21 C                    -0.144308
     22 C                     0.025965
     23 O                    -0.187771
     24 H                     0.085579
     25 H                     0.081941
     26 H                     0.081528
     27 H                     0.076604
     28 H                     0.073020
     29 H                     0.076426
     30 H                     0.072830
     31 H                     0.088254
     32 O                    -0.222175
     33 C                    -0.126473
     34 C                     0.029512
     35 C                    -0.141732
     36 C                    -0.145057
     37 C                     0.030736
     38 O                    -0.175328
     39 H                     0.083777
     40 H                     0.081807
     41 H                     0.090197
     42 H                     0.088042
     43 H                     0.080440
     44 H                     0.070216
     45 H                     0.084461
     46 H                     0.068637
     47 H                     0.080172
     48 H                     0.089072
     49 H                     0.087512
     50 H                     0.083173
     51 H                     0.084719
     52 H                     0.090541
     53 H                     0.086947
     54 H                     0.100432
     55 H                     0.087091
     56 H                     0.084362
  ----------------------------------------
  Sum of atomic charges =     0.000000

                    Cartesian Multipole Moments
 -----------------------------------------------------------------
    Charge (ESU x 10^10)
                -0.0000
    Dipole Moment (Debye)
         X       2.3533      Y       1.8555      Z       0.3920
       Tot       3.0224
    Quadrupole Moments (Debye-Ang)
        XX    -159.8437     XY      -0.9042     YY    -156.6853
        XZ      -4.8347     YZ       6.1867     ZZ    -150.7623

 Total job time:  57.73s(wall), 2745.98s(cpu)
        *  Thank you very much for using Q-Chem.  Have a nice day.  *
