 Q-Chem 5.0, Q-Chem, Inc., Pleasanton, CA (2017)
 Q-Chem 5.0.1 for Intel X86 EM64T Linux

User input:
--------------------------------------------------------------
$molecule
0  1
O -3.94934 -3.66094 2.70899
C -3.26408 -4.56952 2.26188
C -3.36658 -6.02376 2.66595
C -3.13871 -7.07578 1.56814
C -2.659 -6.56043 0.22934
O -1.30114 -6.41453 0.24779
C -0.75735 -6.04322 -1.02331
C 0.75737 -5.89528 -0.92405
O 1.34585 -7.14308 -0.52457
C 1.658 -7.24583 0.79116
C 2.44689 -8.4927 1.11307
C 3.10112 -8.50412 2.50236
C 2.59235 -7.46472 3.48088
O 1.90853 -7.69505 4.46775
O -2.16453 -4.21789 1.5434
O 3.05065 -6.197 3.2912
O 1.146 -6.50431 1.61732
C 2.73789 -5.12749 4.10446
C 1.58602 -9.76529 1.16874
C 2.46576 -10.98416 0.90158
C 3.28632 -11.02302 2.17504
C 2.61436 -9.89559 2.96978
O 1.27675 -9.91719 2.53102
H 3.22204 -8.59163 0.31884
H 4.21137 -8.44028 2.483
H 0.72268 -9.74528 0.46805
H 1.79214 -11.87093 0.88414
H 3.05464 -10.95393 -0.04037
H 3.12247 -12.00785 2.66621
H 4.37437 -10.83546 2.04643
H 2.77197 -10.05431 4.05952
O -3.34207 -6.58566 -0.78766
C -1.86444 -2.934 1.13903
C -2.26153 -6.44002 3.66333
C -2.7317 -7.63809 4.48743
C -2.69476 -8.73346 3.44024
C -2.08538 -7.96664 2.26122
O -1.25135 -7.01476 2.87406
H -4.34571 -6.13862 3.18427
H -4.081 -7.63202 1.36445
H -1.74267 -2.27107 2.02188
H -1.94455 -5.61222 4.3351
H -1.93677 -7.84235 5.24059
H -3.70407 -7.51274 5.01032
H -2.00412 -9.53212 3.7915
H -3.68147 -9.17078 3.17474
H -1.59502 -8.66707 1.54961
H -2.6711 -2.54382 0.48221
H -0.91395 -2.94728 0.5671
H 3.24221 -4.21786 3.71898
H 3.08811 -5.31915 5.1412
H 1.64004 -4.95539 4.10439
H 1.16811 -5.6142 -1.91667
H 1.00365 -5.05223 -0.23792
H -1.18727 -5.07274 -1.36024
H -0.98038 -6.82918 -1.78028
$end

$opt
CONSTRAINT
tors           1           2           3           4    +144.175
tors           3           4           5           6     +84.078
tors           4           5           6           7    +174.759
tors           5           6           7           8    +179.828
tors           6           7           8           9     +60.537
tors           7           8           9          10     -99.349
tors           8           9          10          11    -171.845
tors           9          10          11          12    +166.508
tors          11          12          13          14    +109.156
ENDCONSTRAINT
$end

$rem
JOBTYPE                   OPT
METHOD                    B3LYP
DFT_D                     d3_op
BASIS                     STO-3G
GEOM_OPT_MAX_CYCLES       100
GEOM_OPT_TOL_GRADIENT     300
GEOM_OPT_TOL_DISPLACEMENT 1200
GEOM_OPT_TOL_ENERGY       100
SYMMETRY                  False
THRESH                    12
SCF_CONVERGENCE           8
MAX_SUB_FILE_NUM          128
MEM_STATIC                400
MEM_TOTAL                 4000
$end
--------------------------------------------------------------

   15   -1510.1534930828      6.36E-09 Convergence criterion met
 Total energy in the final basis set = -1510.15349308
   14   -1510.2229851959      3.25E-09 Convergence criterion met
 Total energy in the final basis set = -1510.22298520
   14   -1510.2597103420      7.04E-09 Convergence criterion met
 Total energy in the final basis set = -1510.25971034
   14   -1510.2757439441      4.41E-09 Convergence criterion met
 Total energy in the final basis set = -1510.27574394
   14   -1510.2813596831      4.18E-09 Convergence criterion met
 Total energy in the final basis set = -1510.28135968
    2   -1510.2813596828      1.48E-09 Convergence criterion met
 Total energy in the final basis set = -1510.28135968
   14   -1510.2836378561      4.26E-09 Convergence criterion met
 Total energy in the final basis set = -1510.28363786
   13   -1510.2846844701      4.16E-09 Convergence criterion met
   11   -1510.2861559589      4.21E-09 Convergence criterion met
 Total energy in the final basis set = -1510.28615596
   11   -1510.2861628481      3.20E-09 Convergence criterion met
 Total energy in the final basis set = -1510.28616285
   11   -1510.2861795189      5.01E-09 Convergence criterion met
 Total energy in the final basis set = -1510.28617952
    9   -1510.2861887553      7.73E-09 Convergence criterion met
 Total energy in the final basis set = -1510.28618876
    9   -1510.2861936326      8.97E-09 Convergence criterion met
 Total energy in the final basis set = -1510.28619363
    9   -1510.2861948886      4.28E-09 Convergence criterion met
 Total energy in the final basis set = -1510.28619489

             Standard Nuclear Orientation (Angstroms)
    I     Atom           X                Y                Z
 ----------------------------------------------------------------
    1      O      -4.9070305039    -1.2862272390     0.9747488634
    2      C      -3.8887200208    -0.7513281548     0.4818659568
    3      C      -2.9493197695    -1.3861687524    -0.5964939501
    4      C      -2.3174387911    -0.4184757784    -1.6880122320
    5      C      -2.4801289459     1.1241739965    -1.4071876877
    6      O      -1.4260575585     1.5299781136    -0.5329033510
    7      C      -1.4217453231     2.9921357308    -0.3094402113
    8      C      -0.2135705171     3.2192366097     0.6626370561
    9      O       1.0294621195     2.7542967265    -0.0016417702
   10      C       1.3685131234     1.4430534087     0.4696288832
   11      C       2.7796202115     1.0485712259    -0.0732146306
   12      C       3.3744703822    -0.2196695134     0.6639501985
   13      C       2.4589047843    -0.8144816215     1.8011353085
   14      O       1.8288355219    -1.8922120491     1.7704509723
   15      O      -3.4057872420     0.5354507528     0.8781686843
   16      O       2.6156365153     0.0052520079     2.9723801881
   17      O       0.6707020008     0.7809778754     1.2702006895
   18      C       1.7143761078    -0.4838028738     4.0379981365
   19      C       2.7136148776     0.5228170280    -1.5723685715
   20      C       4.1840719812     0.4630033211    -2.1480741146
   21      C       4.7421186998    -0.8187601020    -1.4239155680
   22      C       3.4987475080    -1.2375520131    -0.5473269170
   23      O       2.3421235973    -0.9001419698    -1.4112417091
   24      H       3.4431620789     1.9276956523     0.0110163670
   25      H       4.3594826173     0.0171207033     1.1043313189
   26      H       1.9794014155     1.0535228071    -2.2092362596
   27      H       4.1646403976     0.3349060338    -3.2420633248
   28      H       4.7585060060     1.3721157112    -1.9083746320
   29      H       4.9915754927    -1.6126857120    -2.1457577795
   30      H       5.6317668578    -0.6069594982    -0.8097928069
   31      H       3.4527142222    -2.3022346637    -0.2471496117
   32      O      -3.3327877647     1.9004808377    -1.8904868124
   33      C      -4.3114954074     1.1346909662     1.8836146555
   34      C      -1.6301249234    -2.0414544607     0.0291623241
   35      C      -1.1392447587    -3.1654190465    -0.9646485606
   36      C      -0.5674996444    -2.2884643538    -2.1402201717
   37      C      -0.7868871942    -0.8316511747    -1.5758608502
   38      O      -0.6031929625    -0.9930404478    -0.1152830480
   39      H      -3.5501009842    -2.1687552207    -1.0938007238
   40      H      -2.7460421144    -0.6265862968    -2.6845804732
   41      H      -4.4227463705     0.4837515986     2.7745091628
   42      H      -1.7238812616    -2.3519022259     1.0877613877
   43      H      -0.3476347658    -3.7673581601    -0.4904662222
   44      H      -1.9553162010    -3.8345553555    -1.2814013903
   45      H       0.5113150676    -2.4592052604    -2.2867481657
   46      H      -1.0941753963    -2.4544096793    -3.0939720071
   47      H      -0.0832058495    -0.0754913846    -1.9685704926
   48      H      -5.3184037608     1.3286148297     1.4603385765
   49      H      -3.8443510573     2.0920612793     2.1788930678
   50      H       1.8950000295     0.1626050834     4.9166454029
   51      H       1.9261904192    -1.5397962405     4.3040848206
   52      H       0.6516294987    -0.4043177054     3.7293205950
   53      H      -0.0850939413     4.2989311809     0.8827933301
   54      H      -0.3778912389     2.6407966923     1.5963084087
   55      H      -2.3729300191     3.3367021842     0.1538462102
   56      H      -1.2739950863     3.5458878378    -1.2626913629
 ----------------------------------------------------------------

    8   -1510.2861950085      8.71E-09 Convergence criterion met
 Total energy in the final basis set = -1510.28619501
 Final energy is   -1510.28619500854
 **  OPTIMIZATION CONVERGED  **

                    Orbital Energies (a.u.)
 --------------------------------------------------------------

 Alpha MOs
 -- Occupied --
-18.934 -18.933 -18.923 -18.912 -18.886 -18.884 -18.877 -18.868
-18.861 -18.854 -10.098 -10.094 -10.092 -10.084 -10.072 -10.071
-10.063 -10.060 -10.055 -10.049 -10.049 -10.046 -10.037 -10.030
-10.029 -10.028 -10.020 -10.018 -10.007 -10.005  -1.015  -1.009
 -0.999  -0.991  -0.969  -0.957  -0.937  -0.931  -0.925  -0.917
 -0.760  -0.752  -0.724  -0.715  -0.708  -0.699  -0.690  -0.658
 -0.650  -0.612  -0.592  -0.574  -0.543  -0.536  -0.533  -0.524
 -0.511  -0.505  -0.485  -0.475  -0.461  -0.454  -0.449  -0.430
 -0.425  -0.423  -0.417  -0.410  -0.409  -0.402  -0.398  -0.397
 -0.390  -0.374  -0.366  -0.364  -0.355  -0.348  -0.346  -0.342
 -0.337  -0.334  -0.331  -0.328  -0.323  -0.322  -0.316  -0.309
 -0.302  -0.299  -0.298  -0.293  -0.289  -0.284  -0.271  -0.269
 -0.266  -0.249  -0.244  -0.239  -0.239  -0.233  -0.219  -0.174
 -0.173  -0.167  -0.158  -0.153  -0.149  -0.143  -0.140  -0.135
 -0.128

          Ground-State Mulliken Net Atomic Charges

     Atom                 Charge (a.u.)
  ----------------------------------------
      1 O                    -0.215912
      2 C                     0.206981
      3 C                    -0.080489
      4 C                    -0.080074
      5 C                     0.214288
      6 O                    -0.166600
      7 C                    -0.044300
      8 C                    -0.049885
      9 O                    -0.174686
     10 C                     0.218093
     11 C                    -0.077410
     12 C                    -0.080346
     13 C                     0.218870
     14 O                    -0.215973
     15 O                    -0.165431
     16 O                    -0.178810
     17 O                    -0.188132
     18 C                    -0.128612
     19 C                     0.025780
     20 C                    -0.143866
     21 C                    -0.144335
     22 C                     0.025595
     23 O                    -0.189509
     24 H                     0.085804
     25 H                     0.082328
     26 H                     0.081173
     27 H                     0.077057
     28 H                     0.073535
     29 H                     0.076887
     30 H                     0.073258
     31 H                     0.088820
     32 O                    -0.222580
     33 C                    -0.126775
     34 C                     0.028629
     35 C                    -0.142285
     36 C                    -0.145755
     37 C                     0.030309
     38 O                    -0.175068
     39 H                     0.084047
     40 H                     0.082186
     41 H                     0.090908
     42 H                     0.083947
     43 H                     0.081006
     44 H                     0.070318
     45 H                     0.086927
     46 H                     0.068711
     47 H                     0.081820
     48 H                     0.089360
     49 H                     0.087601
     50 H                     0.083665
     51 H                     0.084930
     52 H                     0.092140
     53 H                     0.086483
     54 H                     0.103420
     55 H                     0.086590
     56 H                     0.085365
  ----------------------------------------
  Sum of atomic charges =    -0.000000

                    Cartesian Multipole Moments
 -----------------------------------------------------------------
    Charge (ESU x 10^10)
                -0.0000
    Dipole Moment (Debye)
         X       2.2868      Y       1.8311      Z       0.0285
       Tot       2.9297
    Quadrupole Moments (Debye-Ang)
        XX    -159.6983     XY      -1.1685     YY    -154.5839
        XZ      -5.3276     YZ       6.8630     ZZ    -153.2311

 Total job time:  60.42s(wall), 2874.18s(cpu)
        *  Thank you very much for using Q-Chem.  Have a nice day.  *
