 Q-Chem 5.0, Q-Chem, Inc., Pleasanton, CA (2017)
 Q-Chem 5.0.1 for Intel X86 EM64T Linux

User input:
--------------------------------------------------------------
$molecule
0  1
O -4.9070305039 -1.286227239 0.9747488634
C -3.8887200208 -0.7513281548 0.4818659568
C -2.9493197695 -1.3861687524 -0.5964939501
C -2.3174387911 -0.4184757784 -1.688012232
C -2.4801289459 1.1241739965 -1.4071876877
O -1.4260575585 1.5299781136 -0.532903351
C -1.4217453231 2.9921357308 -0.3094402113
C -0.2135705171 3.2192366097 0.6626370561
O 1.0294621195 2.7542967265 -0.0016417702
C 1.3685131234 1.4430534087 0.4696288832
C 2.7796202115 1.0485712259 -0.0732146306
C 3.3744703822 -0.2196695134 0.6639501985
C 2.4589047843 -0.8144816215 1.8011353085
O 1.8288355219 -1.8922120491 1.7704509723
O -3.405787242 0.5354507528 0.8781686843
O 2.6156365153 0.0052520079 2.9723801881
O 0.6707020008 0.7809778754 1.2702006895
C 1.7143761078 -0.4838028738 4.0379981365
C 2.7136148776 0.522817028 -1.5723685715
C 4.1840719812 0.4630033211 -2.1480741146
C 4.7421186998 -0.818760102 -1.423915568
C 3.498747508 -1.2375520131 -0.547326917
O 2.3421235973 -0.9001419698 -1.4112417091
H 3.4431620789 1.9276956523 0.011016367
H 4.3594826173 0.0171207033 1.1043313189
H 1.9794014155 1.0535228071 -2.2092362596
H 4.1646403976 0.3349060338 -3.2420633248
H 4.758506006 1.3721157112 -1.908374632
H 4.9915754927 -1.612685712 -2.1457577795
H 5.6317668578 -0.6069594982 -0.8097928069
H 3.4527142222 -2.3022346637 -0.2471496117
O -3.3327877647 1.9004808377 -1.8904868124
C -4.3114954074 1.1346909662 1.8836146555
C -1.6301249234 -2.0414544607 0.0291623241
C -1.1392447587 -3.1654190465 -0.9646485606
C -0.5674996444 -2.2884643538 -2.1402201717
C -0.7868871942 -0.8316511747 -1.5758608502
O -0.6031929625 -0.9930404478 -0.115283048
H -3.5501009842 -2.1687552207 -1.0938007238
H -2.7460421144 -0.6265862968 -2.6845804732
H -4.4227463705 0.4837515986 2.7745091628
H -1.7238812616 -2.3519022259 1.0877613877
H -0.3476347658 -3.7673581601 -0.4904662222
H -1.955316201 -3.8345553555 -1.2814013903
H 0.5113150676 -2.4592052604 -2.2867481657
H -1.0941753963 -2.4544096793 -3.0939720071
H -0.0832058495 -0.0754913846 -1.9685704926
H -5.3184037608 1.3286148297 1.4603385765
H -3.8443510573 2.0920612793 2.1788930678
H 1.8950000295 0.1626050834 4.9166454029
H 1.9261904192 -1.5397962405 4.3040848206
H 0.6516294987 -0.4043177054 3.729320595
H -0.0850939413 4.2989311809 0.8827933301
H -0.3778912389 2.6407966923 1.5963084087
H -2.3729300191 3.3367021842 0.1538462102
H -1.2739950863 3.5458878378 -1.2626913629
$end

$rem
JOBTYPE                   OPT
METHOD                    B3LYP
DFT_D                     d3_op
BASIS                     STO-3G
GEOM_OPT_MAX_CYCLES       100
GEOM_OPT_TOL_GRADIENT     300
GEOM_OPT_TOL_DISPLACEMENT 1200
GEOM_OPT_TOL_ENERGY       100
SYMMETRY                  False
THRESH                    12
SCF_CONVERGENCE           8
MAX_SUB_FILE_NUM          128
MEM_STATIC                400
MEM_TOTAL                 4000
$end
--------------------------------------------------------------

   16   -1510.2862465488      5.69E-09 Convergence criterion met
 Total energy in the final basis set = -1510.28624655
   15   -1510.2802965744      2.29E-09 Convergence criterion met
 Total energy in the final basis set = -1510.28029657
   14   -1510.2869961991      2.31E-09 Convergence criterion met
 Total energy in the final basis set = -1510.28699620
   14   -1510.2895109002      3.39E-09 Convergence criterion met
 Total energy in the final basis set = -1510.28951090
   14   -1510.2910474943      7.08E-09 Convergence criterion met
 Total energy in the final basis set = -1510.29104749
   14   -1510.2922860597      4.99E-09 Convergence criterion met
 Total energy in the final basis set = -1510.29228606
   14   -1510.2936749619      6.35E-09 Convergence criterion met
 Total energy in the final basis set = -1510.29367496
   14   -1510.2904272473      7.24E-09 Convergence criterion met
   11   -1510.3001604687      5.49E-09 Convergence criterion met
 Total energy in the final basis set = -1510.30016047
   10   -1510.3001638877      7.68E-09 Convergence criterion met
 Total energy in the final basis set = -1510.30016389
    9   -1510.3001658234      8.77E-09 Convergence criterion met
 Total energy in the final basis set = -1510.30016582
    9   -1510.3001688297      4.53E-09 Convergence criterion met
 Total energy in the final basis set = -1510.30016883
    9   -1510.3001708337      5.41E-09 Convergence criterion met
 Total energy in the final basis set = -1510.30017083
    9   -1510.3001726197      4.12E-09 Convergence criterion met
 Total energy in the final basis set = -1510.30017262

             Standard Nuclear Orientation (Angstroms)
    I     Atom           X                Y                Z
 ----------------------------------------------------------------
    1      O      -4.6553301667     0.1594216400     1.0420304197
    2      C      -3.4346082892    -0.1052145913     1.0963874364
    3      C      -2.7539348114    -1.4484023084     0.6382312949
    4      C      -1.8350022300    -1.3189199780    -0.6490898467
    5      C      -1.9407069260     0.0994017023    -1.2997924362
    6      O      -1.0615362085     0.1885430049    -2.4296832309
    7      C      -1.2057510663     1.5160581980    -3.0781182417
    8      C      -0.5634073509     2.6813408453    -2.2352358122
    9      O       0.8800121578     2.4407479804    -2.0087709581
   10      C       1.0677098170     1.5884957222    -0.8684239410
   11      C       2.5734130077     1.1663038208    -0.8578860951
   12      C       3.0759021503     0.4448277480     0.4586828234
   13      C       2.0731662655     0.3682505713     1.6709683711
   14      O       1.7874738167    -0.6795745475     2.2901685246
   15      O      -2.4623490653     0.7364500988     1.7462123615
   16      O       1.6014176340     1.6700303745     2.0175035820
   17      O       0.1490948513     1.2168623655    -0.1084170554
   18      C       0.4500945340     1.5331239974     2.9442371055
   19      C       2.7508500566    -0.0059696736    -1.9212732767
   20      C       4.2881557644    -0.2473994149    -2.1826158600
   21      C       4.7060861891    -1.0255558115    -0.8798928955
   22      C       3.3499500948    -1.0216326252    -0.0799582908
   23      O       2.3310095483    -1.1976612691    -1.1482055495
   24      H       3.1921488588     2.0441803266    -1.1145057676
   25      H       4.0096353473     0.9199200409     0.8117093665
   26      H       2.1276849621     0.1086031374    -2.8298982814
   27      H       4.4341224406    -0.8601523465    -3.0864060664
   28      H       4.8350797486     0.7009098069    -2.3065447332
   29      H       5.0166225437    -2.0572706033    -1.1099913871
   30      H       5.5167404180    -0.5263220986    -0.3255397687
   31      H       3.2281235001    -1.8007591711     0.6979269597
   32      O      -2.7286526949     1.0149252100    -0.9680548778
   33      C      -3.1037972136     2.0184687236     2.1109403589
   34      C      -1.6963422477    -1.9604792409     1.7022062469
   35      C      -1.3287185248    -3.4606292469     1.3715847785
   36      C      -0.3809670019    -3.2721264502     0.1307580558
   37      C      -0.4066273309    -1.7032674665    -0.0503745247
   38      O      -0.4765978879    -1.2073568219     1.3414797582
   39      H      -3.5638366863    -2.1800699169     0.4712703892
   40      H      -2.1337183645    -2.0522951559    -1.4215455537
   41      H      -3.9772290592     1.8669928001     2.7776836831
   42      H      -1.9748555047    -1.7640925897     2.7552330631
   43      H      -0.7999600544    -3.9235702020     2.2197847567
   44      H      -2.2214190743    -4.0632471431     1.1392130236
   45      H       0.6451946403    -3.6050552158     0.3537475200
   46      H      -0.7365022633    -3.8050141199    -0.7654647342
   47      H       0.4946368737    -1.2981830369    -0.5715382702
   48      H      -3.4415069220     2.5660986029     1.2073966823
   49      H      -2.3338867793     2.6115097814     2.6362722953
   50      H       0.1458642704     2.5645945096     3.2001365732
   51      H       0.7336002792     0.9899986102     3.8683553880
   52      H      -0.3894813698     0.9960464968     2.4454119467
   53      H      -0.6388506795     3.6281288556    -2.8071656739
   54      H      -1.1062387126     2.7755547068    -1.2711321110
   55      H      -2.2767332720     1.7565041349    -3.2556419442
   56      H      -0.6832255769     1.4202308669    -4.0511247357
 ----------------------------------------------------------------

    9   -1510.3001733071      2.35E-09 Convergence criterion met
 Total energy in the final basis set = -1510.30017331
 Final energy is   -1510.30017330706
 **  OPTIMIZATION CONVERGED  **

                    Orbital Energies (a.u.)
 --------------------------------------------------------------

 Alpha MOs
 -- Occupied --
-18.935 -18.934 -18.914 -18.913 -18.899 -18.882 -18.878 -18.871
-18.860 -18.848 -10.102 -10.102 -10.084 -10.081 -10.077 -10.073
-10.066 -10.059 -10.047 -10.044 -10.041 -10.037 -10.033 -10.033
-10.028 -10.025 -10.023 -10.022 -10.006 -10.002  -1.022  -1.008
 -0.993  -0.988  -0.977  -0.953  -0.942  -0.936  -0.918  -0.914
 -0.765  -0.749  -0.728  -0.716  -0.708  -0.702  -0.687  -0.645
 -0.642  -0.619  -0.593  -0.575  -0.546  -0.539  -0.530  -0.523
 -0.512  -0.498  -0.481  -0.470  -0.457  -0.452  -0.448  -0.435
 -0.433  -0.424  -0.418  -0.415  -0.401  -0.399  -0.396  -0.390
 -0.387  -0.378  -0.367  -0.359  -0.354  -0.351  -0.347  -0.343
 -0.338  -0.335  -0.329  -0.324  -0.322  -0.318  -0.313  -0.311
 -0.305  -0.302  -0.299  -0.291  -0.287  -0.276  -0.270  -0.268
 -0.265  -0.253  -0.252  -0.240  -0.237  -0.232  -0.215  -0.194
 -0.167  -0.161  -0.155  -0.154  -0.151  -0.148  -0.136  -0.130
 -0.125

          Ground-State Mulliken Net Atomic Charges

     Atom                 Charge (a.u.)
  ----------------------------------------
      1 O                    -0.223642
      2 C                     0.214533
      3 C                    -0.081248
      4 C                    -0.078659
      5 C                     0.222357
      6 O                    -0.173616
      7 C                    -0.051276
      8 C                    -0.055290
      9 O                    -0.176341
     10 C                     0.216038
     11 C                    -0.077948
     12 C                    -0.081567
     13 C                     0.215253
     14 O                    -0.205327
     15 O                    -0.170293
     16 O                    -0.175411
     17 O                    -0.201828
     18 C                    -0.134989
     19 C                     0.026023
     20 C                    -0.143676
     21 C                    -0.143425
     22 C                     0.024191
     23 O                    -0.189204
     24 H                     0.087725
     25 H                     0.082852
     26 H                     0.086654
     27 H                     0.078940
     28 H                     0.075375
     29 H                     0.078869
     30 H                     0.075206
     31 H                     0.095422
     32 O                    -0.212105
     33 C                    -0.127634
     34 C                     0.026647
     35 C                    -0.144901
     36 C                    -0.143335
     37 C                     0.015975
     38 O                    -0.182267
     39 H                     0.080557
     40 H                     0.083147
     41 H                     0.085017
     42 H                     0.080989
     43 H                     0.076047
     44 H                     0.069595
     45 H                     0.076449
     46 H                     0.068538
     47 H                     0.105840
     48 H                     0.089002
     49 H                     0.084173
     50 H                     0.077484
     51 H                     0.082766
     52 H                     0.116870
     53 H                     0.089545
     54 H                     0.104484
     55 H                     0.092553
     56 H                     0.088868
  ----------------------------------------
  Sum of atomic charges =    -0.000000

                    Cartesian Multipole Moments
 -----------------------------------------------------------------
    Charge (ESU x 10^10)
                -0.0000
    Dipole Moment (Debye)
         X       2.4980      Y       0.7805      Z      -2.2748
       Tot       3.4676
    Quadrupole Moments (Debye-Ang)
        XX    -160.5226     XY       1.8688     YY    -152.5070
        XZ      -1.5391     YZ      -1.0392     ZZ    -152.2406

 Total job time:  232.83s(wall), 11115.93s(cpu)
        *  Thank you very much for using Q-Chem.  Have a nice day.  *
