 Q-Chem 5.0, Q-Chem, Inc., Pleasanton, CA (2017)
 Q-Chem 5.0.1 for Intel X86 EM64T Linux

User input:
--------------------------------------------------------------
$molecule
0  1
O -4.4549586561 0.1153517147 2.08194176
C -3.5941036938 -0.0066610995 1.1814410167
C -2.7445177153 -1.2924193802 0.9100761644
C -2.3815313511 -1.6572262922 -0.5935033689
C -2.5963901094 -0.508051547 -1.6476248711
O -1.5082379877 0.4141985831 -1.5455494646
C -1.5816612407 1.454604087 -2.594018285
C -0.3362406507 2.3725307276 -2.3359498825
O 0.9129547743 1.5736027131 -2.317267432
C 1.2632643734 1.2456003905 -0.9656206868
C 2.6426014435 0.5092534147 -0.9637613976
C 3.2963162147 0.4540514793 0.4769785309
C 2.4284626928 1.1132562828 1.6150454955
O 1.8119925289 0.5274842073 2.5297324271
O -3.2490657468 1.0435906245 0.2751212812
O 2.6156809857 2.5376817654 1.5447658552
O 0.596353587 1.5880195598 0.0360122581
C 1.7663337081 3.195886857 2.5605758578
C 2.5349861392 -1.0396841447 -1.3048758575
C 3.9868217811 -1.5727188157 -1.6324984271
C 4.619199674 -1.6413275282 -0.1924326772
C 3.4192865447 -1.1132542151 0.6888082645
O 2.225455693 -1.659063617 0.0007988484
H 3.2988781753 1.0214385984 -1.6904500823
H 4.2849357014 0.9469243297 0.4716676773
H 1.7620345267 -1.2894905619 -2.0567410246
H 3.9325757938 -2.5691299051 -2.0992620321
H 4.5350412875 -0.8961190938 -2.307255715
H 4.8783933988 -2.6753077336 0.0856458033
H 5.5175526129 -1.0117173623 -0.0924119371
H 3.4237786428 -1.4269638724 1.7505893929
O -3.5189685013 -0.4163784393 -2.4867518773
C -4.0658429029 2.2460439804 0.5533450054
C -1.2850896416 -1.2511137726 1.571997323
C -0.8643837029 -2.7422836946 1.8685150016
C -0.6059125348 -3.269440509 0.4085974228
C -0.8300499816 -1.9567729535 -0.4396176713
O -0.3908657641 -0.8696706396 0.4636708941
H -3.3221099719 -2.1206989624 1.3587240239
H -2.9595894109 -2.535257366 -0.9324132102
H -3.9053231464 2.6186438222 1.5854806459
H -1.1749162487 -0.5466117345 2.4188482873
H 0.0590038406 -2.7594968161 2.4690567485
H -1.6478269704 -3.3068240957 2.3989966889
H 0.4314251873 -3.6183470089 0.284146669
H -1.2977042887 -4.0762966651 0.1169681007
H -0.2709770011 -1.920248319 -1.3925787891
H -5.1483020007 2.0469112907 0.4145593584
H -3.7338349545 3.0109305714 -0.1725545785
H 1.9602374125 4.280583193 2.4698729279
H 2.016614579 2.8586129852 3.5875052301
H 0.6914515632 2.9934682482 2.3749125071
H -0.2342176002 3.1151127895 -3.1536511373
H -0.4589709959 2.8853982654 -1.3584836997
H -2.5200383444 2.0473171734 -2.5170508098
H -1.5374345162 1.0013223504 -3.6088926008
$end

$rem
JOBTYPE                   OPT
METHOD                    B3LYP
DFT_D                     d3_op
BASIS                     STO-3G
GEOM_OPT_MAX_CYCLES       100
GEOM_OPT_TOL_GRADIENT     300
GEOM_OPT_TOL_DISPLACEMENT 1200
GEOM_OPT_TOL_ENERGY       100
SYMMETRY                  False
THRESH                    12
SCF_CONVERGENCE           8
MAX_SUB_FILE_NUM          128
MEM_STATIC                400
MEM_TOTAL                 4000
$end
--------------------------------------------------------------

   16   -1510.2861872481      5.79E-09 Convergence criterion met
 Total energy in the final basis set = -1510.28618725
   14   -1510.2870033825      5.53E-09 Convergence criterion met
 Total energy in the final basis set = -1510.28700338
   14   -1510.2877019800      6.58E-09 Convergence criterion met
 Total energy in the final basis set = -1510.28770198
   15   -1510.2869334245      3.62E-09 Convergence criterion met
 Total energy in the final basis set = -1510.28693342
   13   -1510.2887023559      7.01E-09 Convergence criterion met
 Total energy in the final basis set = -1510.28870236
   14   -1510.2869382523      4.40E-09 Convergence criterion met
 Total energy in the final basis set = -1510.28693825
   14   -1510.2898360066      6.06E-09 Convergence criterion met
 Total energy in the final basis set = -1510.28983601
   14   -1510.2887535269      5.82E-09 Convergence criterion met
   11   -1510.3001463204      4.85E-09 Convergence criterion met
 Total energy in the final basis set = -1510.30014632
   11   -1510.3001684901      9.50E-09 Convergence criterion met
 Total energy in the final basis set = -1510.30016849
   10   -1510.3001654742      7.25E-09 Convergence criterion met
 Total energy in the final basis set = -1510.30016547
   11   -1510.3001679823      1.86E-09 Convergence criterion met
 Total energy in the final basis set = -1510.30016798
    9   -1510.3001707299      6.69E-09 Convergence criterion met
 Total energy in the final basis set = -1510.30017073
    9   -1510.3001692868      9.58E-09 Convergence criterion met
 Total energy in the final basis set = -1510.30016929

             Standard Nuclear Orientation (Angstroms)
    I     Atom           X                Y                Z
 ----------------------------------------------------------------
    1      O      -4.5752047607     0.5880025681     1.2171228990
    2      C      -3.3554262035     0.3183244246     1.2671153206
    3      C      -2.7194815841    -1.1198992535     1.2005813395
    4      C      -1.8916942486    -1.4143940900    -0.1201832382
    5      C      -2.0245274779    -0.2570289292    -1.1630905293
    6      O      -1.1988846352    -0.5266282200    -2.3042965382
    7      C      -1.3670205836     0.5488389544    -3.3137010588
    8      C      -0.6786544664     1.9009445886    -2.8901604698
    9      O       0.7730925118     1.7130155285    -2.6691138356
   10      C       1.0157509225     1.2323312332    -1.3373986493
   11      C       2.5187035435     0.8011686232    -1.2824176314
   12      C       3.0917558388     0.4683875973     0.1555630705
   13      C       2.1695807045     0.7730684904     1.3947318943
   14      O       1.9214088769    -0.0384568232     2.3127313529
   15      O      -2.3328723413     1.2930508981     1.5498272150
   16      O       1.7210488084     2.1278469186     1.3661707809
   17      O       0.1363905938     1.1214348739    -0.4579897066
   18      C       0.6254851933     2.2936116156     2.3538140852
   19      C       2.6264082947    -0.6265284892    -1.9796782436
   20      C       4.1440453138    -0.9710550519    -2.2398524886
   21      C       4.6246092290    -1.3656108758    -0.7934963520
   22      C       3.3166170647    -1.0980395068     0.0405019476
   23      O       2.2380751363    -1.5414774699    -0.8812407374
   24      H       3.1258314419     1.5586608170    -1.8086312621
   25      H       4.0522117375     0.9959513240     0.3033342570
   26      H       1.9535375680    -0.7546287096    -2.8499061755
   27      H       4.2335083284    -1.8147518731    -2.9423767739
   28      H       4.6936710409    -0.1092408645    -2.6509950524
   29      H       4.9059577367    -2.4294647503    -0.7398951665
   30      H       5.4733000995    -0.7563534167    -0.4443688571
   31      H       3.2299753046    -1.6234622855     1.0118983217
   32      O      -2.7938179690     0.7288696533    -1.0897321576
   33      C      -2.9353296970     2.6436260440     1.5194341286
   34      C      -1.5947319400    -1.3178769794     2.3006162977
   35      C      -1.2655320772    -2.8579790093     2.4213578282
   36      C      -0.4089930955    -3.0854946167     1.1219772249
   37      C      -0.4297679404    -1.6446489769     0.4732413350
   38      O      -0.3960294272    -0.7485792100     1.6500635602
   39      H      -3.5464243591    -1.8428745528     1.3139010702
   40      H      -2.2525170930    -2.3374005364    -0.6112837048
   41      H      -3.7572895941     2.7448195676     2.2573884829
   42      H      -1.7961260452    -0.8019132576     3.2589545374
   43      H      -0.6808711994    -3.0562539563     3.3336708689
   44      H      -2.1772584194    -3.4760881555     2.4440653313
   45      H       0.6267800762    -3.3697904384     1.3665135468
   46      H      -0.8372246996    -3.8514933723     0.4558787730
   47      H       0.4372029858    -1.4435373855    -0.2021810854
   48      H      -3.3352758953     2.8776506193     0.5116525182
   49      H      -2.1234255688     3.3501614614     1.7683783825
   50      H       0.3552774847     3.3651109325     2.3271456559
   51      H       0.9542899956     2.0184701712     3.3762133110
   52      H      -0.2515536252     1.6674343718     2.0686422178
   53      H      -0.7778541225     2.6330482207    -3.7169339525
   54      H      -1.1728058775     2.2928198956    -1.9761838592
   55      H      -2.4441904366     0.7458213251    -3.5068397904
   56      H      -0.8931925228     0.1557964744    -4.2356617776
 ----------------------------------------------------------------

    9   -1510.3001699342      3.95E-09 Convergence criterion met
 Total energy in the final basis set = -1510.30016993
 Final energy is   -1510.30016993421
 **  OPTIMIZATION CONVERGED  **

                    Orbital Energies (a.u.)
 --------------------------------------------------------------

 Alpha MOs
 -- Occupied --
-18.935 -18.933 -18.913 -18.913 -18.899 -18.882 -18.878 -18.871
-18.859 -18.849 -10.102 -10.102 -10.084 -10.081 -10.077 -10.073
-10.066 -10.059 -10.047 -10.045 -10.040 -10.036 -10.033 -10.033
-10.028 -10.025 -10.023 -10.022 -10.006 -10.003  -1.021  -1.008
 -0.992  -0.989  -0.977  -0.953  -0.942  -0.936  -0.917  -0.914
 -0.764  -0.749  -0.728  -0.716  -0.708  -0.702  -0.687  -0.645
 -0.642  -0.619  -0.593  -0.575  -0.545  -0.539  -0.530  -0.523
 -0.512  -0.498  -0.481  -0.470  -0.457  -0.452  -0.448  -0.436
 -0.433  -0.423  -0.418  -0.415  -0.401  -0.399  -0.396  -0.390
 -0.387  -0.378  -0.367  -0.359  -0.354  -0.351  -0.347  -0.342
 -0.337  -0.335  -0.329  -0.325  -0.322  -0.318  -0.313  -0.311
 -0.305  -0.302  -0.299  -0.291  -0.288  -0.276  -0.270  -0.268
 -0.265  -0.253  -0.252  -0.240  -0.237  -0.232  -0.215  -0.194
 -0.167  -0.161  -0.156  -0.154  -0.152  -0.148  -0.136  -0.131
 -0.125

          Ground-State Mulliken Net Atomic Charges

     Atom                 Charge (a.u.)
  ----------------------------------------
      1 O                    -0.223157
      2 C                     0.214565
      3 C                    -0.081164
      4 C                    -0.078675
      5 C                     0.222418
      6 O                    -0.173460
      7 C                    -0.051336
      8 C                    -0.055148
      9 O                    -0.176879
     10 C                     0.216073
     11 C                    -0.077699
     12 C                    -0.081592
     13 C                     0.215550
     14 O                    -0.205602
     15 O                    -0.170171
     16 O                    -0.175431
     17 O                    -0.201244
     18 C                    -0.135473
     19 C                     0.025976
     20 C                    -0.143768
     21 C                    -0.143376
     22 C                     0.024330
     23 O                    -0.189379
     24 H                     0.087726
     25 H                     0.082787
     26 H                     0.086675
     27 H                     0.078929
     28 H                     0.075355
     29 H                     0.078866
     30 H                     0.075232
     31 H                     0.095209
     32 O                    -0.212575
     33 C                    -0.127577
     34 C                     0.026708
     35 C                    -0.144910
     36 C                    -0.143292
     37 C                     0.015711
     38 O                    -0.182515
     39 H                     0.080649
     40 H                     0.083267
     41 H                     0.085059
     42 H                     0.080941
     43 H                     0.076228
     44 H                     0.069695
     45 H                     0.076340
     46 H                     0.068466
     47 H                     0.106033
     48 H                     0.089284
     49 H                     0.084413
     50 H                     0.077170
     51 H                     0.082924
     52 H                     0.116983
     53 H                     0.089465
     54 H                     0.104062
     55 H                     0.092534
     56 H                     0.088803
  ----------------------------------------
  Sum of atomic charges =    -0.000000

                    Cartesian Multipole Moments
 -----------------------------------------------------------------
    Charge (ESU x 10^10)
                -0.0000
    Dipole Moment (Debye)
         X       2.3401      Y       0.0043      Z      -2.5363
       Tot       3.4509
    Quadrupole Moments (Debye-Ang)
        XX    -160.7577     XY       1.5450     YY    -153.1501
        XZ      -1.4925     YZ      -0.8818     ZZ    -151.5967

 Total job time:  230.11s(wall), 10976.33s(cpu)
        *  Thank you very much for using Q-Chem.  Have a nice day.  *
