 Q-Chem 5.0, Q-Chem, Inc., Pleasanton, CA (2017)
 Q-Chem 5.0.1 for Intel X86 EM64T Linux

User input:
--------------------------------------------------------------
$molecule
0  1
O -3.94934 -3.66094 2.70899
C -3.26408 -4.56952 2.26188
C -3.36658 -6.02376 2.66595
C -3.12935 -7.07586 1.57021
C -2.64159 -6.56025 0.23442
O -1.30683 -6.2794 0.30477
C -0.74436 -5.8984 -0.95528
C 0.74197 -5.59513 -0.79726
O 1.4098 -6.71792 -0.20042
C 1.58269 -6.64698 1.14279
C 2.3881 -7.79943 1.69402
C 2.9287 -7.58973 3.11601
C 2.30551 -6.4514 3.89866
O 1.54242 -6.57655 4.84555
O -2.15172 -4.20651 1.57089
O 2.71197 -5.19976 3.55198
O 0.90527 -5.89067 1.82488
C 2.27741 -4.0436 4.1662
C 1.56792 -9.08897 1.87135
C 2.50424 -10.29464 1.84355
C 3.22827 -10.1183 3.16272
C 2.45821 -8.92367 3.74028
O 1.15999 -9.06535 3.21558
H 3.21738 -7.98622 0.97366
H 4.03362 -7.47467 3.1689
H 0.76346 -9.20665 1.11353
H 1.86161 -11.20211 1.90791
H 3.16041 -10.37488 0.9503
H 3.0655 -11.03246 3.77568
H 4.31494 -9.8981 3.08362
H 2.53733 -8.92184 4.84996
O -3.28793 -6.63857 -0.80364
C -1.83614 -2.91469 1.20381
C -2.27309 -6.44961 3.67247
C -2.75702 -7.64906 4.48696
C -2.71459 -8.7414 3.4354
C -2.08976 -7.97362 2.26493
O -1.25883 -7.02957 2.89175
H -4.35126 -6.13912 3.17361
H -4.07637 -7.6207 1.35744
H -1.72339 -2.27584 2.1055
H -1.95755 -5.62564 4.34949
H -1.97025 -7.85996 5.24686
H -3.73375 -7.52143 5.00111
H -2.03133 -9.54464 3.79052
H -3.70076 -9.1732 3.15899
H -1.5996 -8.67015 1.55107
H -2.62907 -2.5015 0.54455
H -0.87645 -2.91934 0.64802
H 2.76455 -3.17101 3.68492
H 2.54906 -4.05668 5.24335
H 1.17601 -3.94356 4.05734
H 1.19094 -5.38962 -1.7918
H 0.86877 -4.66063 -0.20355
H -1.25485 -4.99854 -1.36721
H -0.84509 -6.74252 -1.67484
$end

$opt
CONSTRAINT
tors           1           2           3           4    +144.577
tors           3           4           5           6     +77.787
tors           4           5           6           7    +174.759
tors           5           6           7           8    +179.741
tors           6           7           8           9     +54.813
tors           7           8           9          10     -96.137
tors           8           9          10          11    -175.291
tors           9          10          11          12    +164.538
tors          11          12          13          14    +108.338
ENDCONSTRAINT
$end

$rem
JOBTYPE                   OPT
METHOD                    B3LYP
DFT_D                     d3_op
BASIS                     STO-3G
GEOM_OPT_MAX_CYCLES       100
GEOM_OPT_TOL_GRADIENT     300
GEOM_OPT_TOL_DISPLACEMENT 1200
GEOM_OPT_TOL_ENERGY       100
SYMMETRY                  False
THRESH                    12
SCF_CONVERGENCE           8
MAX_SUB_FILE_NUM          128
MEM_STATIC                400
MEM_TOTAL                 4000
$end
--------------------------------------------------------------

   15   -1510.1530851167      6.31E-09 Convergence criterion met
 Total energy in the final basis set = -1510.15308512
   14   -1510.2227970343      6.90E-09 Convergence criterion met
 Total energy in the final basis set = -1510.22279703
   14   -1510.2597568424      6.05E-09 Convergence criterion met
 Total energy in the final basis set = -1510.25975684
   14   -1510.2757139445      4.89E-09 Convergence criterion met
 Total energy in the final basis set = -1510.27571394
   14   -1510.2812294126      3.59E-09 Convergence criterion met
 Total energy in the final basis set = -1510.28122941
    2   -1510.2812294125      1.52E-09 Convergence criterion met
 Total energy in the final basis set = -1510.28122941
   14   -1510.2835251108      4.40E-09 Convergence criterion met
 Total energy in the final basis set = -1510.28352511
   13   -1510.2845387743      3.70E-09 Convergence criterion met
   11   -1510.2861364246      6.86E-09 Convergence criterion met
 Total energy in the final basis set = -1510.28613642
   11   -1510.2861415609      3.81E-09 Convergence criterion met
 Total energy in the final basis set = -1510.28614156
   11   -1510.2861518304      2.91E-09 Convergence criterion met
 Total energy in the final basis set = -1510.28615183
   11   -1510.2861595067      2.39E-09 Convergence criterion met
 Total energy in the final basis set = -1510.28615951
    9   -1510.2861640588      5.28E-09 Convergence criterion met
 Total energy in the final basis set = -1510.28616406
    9   -1510.2861662115      5.15E-09 Convergence criterion met
 Total energy in the final basis set = -1510.28616621

             Standard Nuclear Orientation (Angstroms)
    I     Atom           X                Y                Z
 ----------------------------------------------------------------
    1      O      -4.4549586561     0.1153517147     2.0819417600
    2      C      -3.5941036938    -0.0066610995     1.1814410167
    3      C      -2.7445177153    -1.2924193802     0.9100761644
    4      C      -2.3815313511    -1.6572262922    -0.5935033689
    5      C      -2.5963901094    -0.5080515470    -1.6476248711
    6      O      -1.5082379877     0.4141985831    -1.5455494646
    7      C      -1.5816612407     1.4546040870    -2.5940182850
    8      C      -0.3362406507     2.3725307276    -2.3359498825
    9      O       0.9129547743     1.5736027131    -2.3172674320
   10      C       1.2632643734     1.2456003905    -0.9656206868
   11      C       2.6426014435     0.5092534147    -0.9637613976
   12      C       3.2963162147     0.4540514793     0.4769785309
   13      C       2.4284626928     1.1132562828     1.6150454955
   14      O       1.8119925289     0.5274842073     2.5297324271
   15      O      -3.2490657468     1.0435906245     0.2751212812
   16      O       2.6156809857     2.5376817654     1.5447658552
   17      O       0.5963535870     1.5880195598     0.0360122581
   18      C       1.7663337081     3.1958868570     2.5605758578
   19      C       2.5349861392    -1.0396841447    -1.3048758575
   20      C       3.9868217811    -1.5727188157    -1.6324984271
   21      C       4.6191996740    -1.6413275282    -0.1924326772
   22      C       3.4192865447    -1.1132542151     0.6888082645
   23      O       2.2254556930    -1.6590636170     0.0007988484
   24      H       3.2988781753     1.0214385984    -1.6904500823
   25      H       4.2849357014     0.9469243297     0.4716676773
   26      H       1.7620345267    -1.2894905619    -2.0567410246
   27      H       3.9325757938    -2.5691299051    -2.0992620321
   28      H       4.5350412875    -0.8961190938    -2.3072557150
   29      H       4.8783933988    -2.6753077336     0.0856458033
   30      H       5.5175526129    -1.0117173623    -0.0924119371
   31      H       3.4237786428    -1.4269638724     1.7505893929
   32      O      -3.5189685013    -0.4163784393    -2.4867518773
   33      C      -4.0658429029     2.2460439804     0.5533450054
   34      C      -1.2850896416    -1.2511137726     1.5719973230
   35      C      -0.8643837029    -2.7422836946     1.8685150016
   36      C      -0.6059125348    -3.2694405090     0.4085974228
   37      C      -0.8300499816    -1.9567729535    -0.4396176713
   38      O      -0.3908657641    -0.8696706396     0.4636708941
   39      H      -3.3221099719    -2.1206989624     1.3587240239
   40      H      -2.9595894109    -2.5352573660    -0.9324132102
   41      H      -3.9053231464     2.6186438222     1.5854806459
   42      H      -1.1749162487    -0.5466117345     2.4188482873
   43      H       0.0590038406    -2.7594968161     2.4690567485
   44      H      -1.6478269704    -3.3068240957     2.3989966889
   45      H       0.4314251873    -3.6183470089     0.2841466690
   46      H      -1.2977042887    -4.0762966651     0.1169681007
   47      H      -0.2709770011    -1.9202483190    -1.3925787891
   48      H      -5.1483020007     2.0469112907     0.4145593584
   49      H      -3.7338349545     3.0109305714    -0.1725545785
   50      H       1.9602374125     4.2805831930     2.4698729279
   51      H       2.0166145790     2.8586129852     3.5875052301
   52      H       0.6914515632     2.9934682482     2.3749125071
   53      H      -0.2342176002     3.1151127895    -3.1536511373
   54      H      -0.4589709959     2.8853982654    -1.3584836997
   55      H      -2.5200383444     2.0473171734    -2.5170508098
   56      H      -1.5374345162     1.0013223504    -3.6088926008
 ----------------------------------------------------------------

    9   -1510.2861660455      2.80E-09 Convergence criterion met
 Total energy in the final basis set = -1510.28616605
 Final energy is   -1510.28616604550
 **  OPTIMIZATION CONVERGED  **

                    Orbital Energies (a.u.)
 --------------------------------------------------------------

 Alpha MOs
 -- Occupied --
-18.933 -18.932 -18.924 -18.913 -18.884 -18.881 -18.878 -18.866
-18.862 -18.854 -10.099 -10.094 -10.092 -10.085 -10.072 -10.070
-10.063 -10.059 -10.053 -10.050 -10.049 -10.048 -10.035 -10.030
-10.029 -10.028 -10.019 -10.017 -10.008 -10.007  -1.014  -1.008
 -0.999  -0.991  -0.967  -0.958  -0.936  -0.930  -0.925  -0.918
 -0.759  -0.752  -0.724  -0.715  -0.707  -0.698  -0.691  -0.658
 -0.650  -0.611  -0.592  -0.573  -0.543  -0.536  -0.533  -0.525
 -0.511  -0.504  -0.484  -0.475  -0.462  -0.453  -0.447  -0.429
 -0.424  -0.424  -0.418  -0.409  -0.408  -0.402  -0.399  -0.397
 -0.390  -0.374  -0.366  -0.364  -0.354  -0.347  -0.345  -0.342
 -0.337  -0.332  -0.330  -0.328  -0.323  -0.322  -0.317  -0.308
 -0.302  -0.299  -0.297  -0.292  -0.290  -0.285  -0.271  -0.268
 -0.267  -0.248  -0.243  -0.239  -0.239  -0.230  -0.220  -0.174
 -0.174  -0.166  -0.158  -0.153  -0.148  -0.142  -0.140  -0.135
 -0.126

          Ground-State Mulliken Net Atomic Charges

     Atom                 Charge (a.u.)
  ----------------------------------------
      1 O                    -0.216532
      2 C                     0.206806
      3 C                    -0.080762
      4 C                    -0.079796
      5 C                     0.213777
      6 O                    -0.164966
      7 C                    -0.044558
      8 C                    -0.049845
      9 O                    -0.173817
     10 C                     0.223220
     11 C                    -0.076626
     12 C                    -0.079904
     13 C                     0.218943
     14 O                    -0.218136
     15 O                    -0.165201
     16 O                    -0.178475
     17 O                    -0.193034
     18 C                    -0.128479
     19 C                     0.027610
     20 C                    -0.143990
     21 C                    -0.144568
     22 C                     0.025779
     23 O                    -0.185518
     24 H                     0.084915
     25 H                     0.082257
     26 H                     0.081002
     27 H                     0.076247
     28 H                     0.073072
     29 H                     0.076441
     30 H                     0.072772
     31 H                     0.087662
     32 O                    -0.221646
     33 C                    -0.126362
     34 C                     0.029412
     35 C                    -0.141238
     36 C                    -0.144766
     37 C                     0.030173
     38 O                    -0.175283
     39 H                     0.083912
     40 H                     0.082419
     41 H                     0.090352
     42 H                     0.088080
     43 H                     0.081708
     44 H                     0.070702
     45 H                     0.083919
     46 H                     0.069175
     47 H                     0.077522
     48 H                     0.089562
     49 H                     0.087425
     50 H                     0.083970
     51 H                     0.084796
     52 H                     0.091369
     53 H                     0.086530
     54 H                     0.100408
     55 H                     0.087253
     56 H                     0.084312
  ----------------------------------------
  Sum of atomic charges =     0.000000

                    Cartesian Multipole Moments
 -----------------------------------------------------------------
    Charge (ESU x 10^10)
                -0.0000
    Dipole Moment (Debye)
         X       2.0902      Y       0.8817      Z      -1.6623
       Tot       2.8124
    Quadrupole Moments (Debye-Ang)
        XX    -159.5415     XY      -4.7341     YY    -146.4737
        XZ      -1.3413     YZ      -1.0432     ZZ    -161.3835

 Total job time:  64.42s(wall), 3062.72s(cpu)
        *  Thank you very much for using Q-Chem.  Have a nice day.  *
