 Q-Chem 5.0, Q-Chem, Inc., Pleasanton, CA (2017)
 Q-Chem 5.0.1 for Intel X86 EM64T Linux

User input:
--------------------------------------------------------------
$molecule
0  1
O -3.94934 -3.66094 2.70899
C -3.26408 -4.56952 2.26188
C -3.36658 -6.02376 2.66595
C -3.05691 -7.0759 1.58847
C -2.5072 -6.5576 0.27802
O -1.14772 -6.45107 0.35483
C -0.54091 -6.07945 -0.88732
C 0.97168 -5.97417 -0.72265
O 1.49237 -7.20132 -0.18799
C 1.73587 -7.19921 1.14612
C 2.41668 -8.46046 1.62194
C 3.1529 -8.33202 2.96349
C 2.81182 -7.10834 3.78991
O 2.18817 -7.11445 4.84138
O -2.13863 -4.21284 1.58637
O 3.30293 -5.92588 3.33053
O 1.10869 -6.46439 1.89694
C 3.10999 -4.70987 3.95209
C 1.44105 -9.60966 1.93493
C 2.17221 -10.94596 1.82219
C 3.07665 -10.87483 3.03473
C 2.57305 -9.5751 3.67453
O 1.21254 -9.51809 3.31817
H 3.0978 -8.79289 0.80495
H 4.26016 -8.37681 2.87054
H 0.54466 -9.6142 1.2808
H 1.41178 -11.74225 1.99097
H 2.6889 -11.13548 0.8568
H 2.86073 -11.75192 3.68433
H 4.1647 -10.81915 2.81412
H 2.79173 -9.57955 4.76529
O -3.19842 -6.06247 -0.6038
C -1.81209 -2.92389 1.22043
C -2.33268 -6.40522 3.74447
C -2.83149 -7.61149 4.5389
C -2.68374 -8.70827 3.50489
C -2.02323 -7.9237 2.36556
O -1.25751 -6.95039 3.02919
H -4.38024 -6.15013 3.1093
H -3.93497 -7.70745 1.32883
H -1.70987 -2.28284 2.12183
H -2.08749 -5.56581 4.43176
H -2.09501 -7.79211 5.35475
H -3.84631 -7.50704 4.97935
H -1.98494 -9.4763 3.90531
H -3.63229 -9.1879 3.18028
H -1.4738 -8.61437 1.69394
H -2.59353 -2.50913 0.54855
H -0.84414 -2.93574 0.67848
H 3.6153 -3.91672 3.36392
H 3.5438 -4.7292 4.97467
H 2.0249 -4.47722 4.00809
H 1.45229 -5.7655 -1.7016
H 1.19741 -5.09848 -0.07018
H -0.92628 -5.09883 -1.2478
H -0.75461 -6.86257 -1.64959
$end

$opt
CONSTRAINT
tors           1           2           3           4    +147.707
tors           3           4           5           6     +87.019
tors           4           5           6           7    +174.759
tors           5           6           7           8    +179.735
tors           6           7           8           9     +54.813
tors           7           8           9          10     -99.349
tors           8           9          10          11    -173.881
tors           9          10          11          12    +159.326
tors          11          12          13          14    +110.233
ENDCONSTRAINT
$end

$rem
JOBTYPE                   OPT
METHOD                    B3LYP
DFT_D                     d3_op
BASIS                     STO-3G
GEOM_OPT_MAX_CYCLES       100
GEOM_OPT_TOL_GRADIENT     300
GEOM_OPT_TOL_DISPLACEMENT 1200
GEOM_OPT_TOL_ENERGY       100
SYMMETRY                  False
THRESH                    12
SCF_CONVERGENCE           8
MAX_SUB_FILE_NUM          128
MEM_STATIC                400
MEM_TOTAL                 4000
$end
--------------------------------------------------------------

   15   -1510.1466340010      7.91E-09 Convergence criterion met
 Total energy in the final basis set = -1510.14663400
   14   -1510.2168152547      6.26E-09 Convergence criterion met
 Total energy in the final basis set = -1510.21681525
   14   -1510.2546055756      7.24E-09 Convergence criterion met
 Total energy in the final basis set = -1510.25460558
   14   -1510.2718932252      4.97E-09 Convergence criterion met
 Total energy in the final basis set = -1510.27189323
   14   -1510.2785747493      3.85E-09 Convergence criterion met
 Total energy in the final basis set = -1510.27857475
   13   -1510.2814886156      9.76E-09 Convergence criterion met
 Total energy in the final basis set = -1510.28148862
   13   -1510.2836338340      6.64E-09 Convergence criterion met
 Total energy in the final basis set = -1510.28363383
   13   -1510.2842448735      6.94E-09 Convergence criterion met
   12   -1510.2855742099      4.41E-09 Convergence criterion met
 Total energy in the final basis set = -1510.28557421
   11   -1510.2856084930      9.55E-09 Convergence criterion met
 Total energy in the final basis set = -1510.28560849
   11   -1510.2856355192      4.73E-09 Convergence criterion met
 Total energy in the final basis set = -1510.28563552
   10   -1510.2856578831      9.49E-09 Convergence criterion met
 Total energy in the final basis set = -1510.28565788
    9   -1510.2856749559      9.49E-09 Convergence criterion met
 Total energy in the final basis set = -1510.28567496
   10   -1510.2856809261      9.19E-09 Convergence criterion met
 Total energy in the final basis set = -1510.28568093

             Standard Nuclear Orientation (Angstroms)
    I     Atom           X                Y                Z
 ----------------------------------------------------------------
    1      O      -4.7711804039    -0.2298491017     1.8954311557
    2      C      -3.8377877572    -0.2204801583     1.0622394313
    3      C      -2.9765297414    -1.4542759515     0.6334103026
    4      C      -2.4381615695    -1.4962709999    -0.8609137467
    5      C      -2.6220007397    -0.1654727150    -1.6852145377
    6      O      -1.4909099039     0.6739401145    -1.4381540900
    7      C      -1.5250666147     1.8940458281    -2.2732321465
    8      C      -0.2331205003     2.6840436270    -1.8690814989
    9      O       0.9672626909     1.8274657616    -2.0266750787
   10      C       1.3567778620     1.2878562136    -0.7565892805
   11      C       2.7092576220     0.5197829984    -0.9256745975
   12      C       3.4753588677     0.3455783411     0.4500288198
   13      C       2.7475712447     0.9858523215     1.6911749933
   14      O       2.2026894426     0.3855247926     2.6408486844
   15      O      -3.3832007955     0.9628908611     0.4004374557
   16      O       2.9373442035     2.4095642454     1.6301681731
   17      O       0.7381599416     1.4876122203     0.3123613872
   18      C       2.1926652743     3.0536915479     2.7338054390
   19      C       2.5124675379    -0.9970112526    -1.3518009963
   20      C       3.9121074158    -1.5766667339    -1.8028691055
   21      C       4.6208360302    -1.7825638531    -0.4127249787
   22      C       3.5143448468    -1.2369026377     0.5717637769
   23      O       2.2476860149    -1.6746993423    -0.0642922441
   24      H       3.3186344588     1.0628458073    -1.6700563021
   25      H       4.4906305803     0.7756436593     0.3837952635
   26      H       1.6870210684    -1.1657843274    -2.0689290291
   27      H       3.7788499130    -2.5316795376    -2.3355829395
   28      H       4.4565425728    -0.8793246453    -2.4593820095
   29      H       4.8211617701    -2.8479478339    -0.2163547845
   30      H       5.5664851645    -1.2236140687    -0.3289853387
   31      H       3.5651326224    -1.6065347379     1.6141833921
   32      O      -3.5434189816     0.1117021687    -2.4833781954
   33      C      -4.2100394932     2.1238777355     0.7978521629
   34      C      -1.6040181297    -1.5565351406     1.4512207515
   35      C      -1.1567409288    -3.0700084627     1.4466796135
   36      C      -0.6901780062    -3.2344543358    -0.0468629689
   37      C      -0.8979059598    -1.7709117786    -0.5990181812
   38      O      -0.6114045897    -0.9088201967     0.5711962842
   39      H      -3.5981981660    -2.3447619626     0.8358164986
   40      H      -2.9280592818    -2.3096351550    -1.4256847877
   41      H      -4.1823430913     2.2876783998     1.8942587292
   42      H      -1.6217624631    -1.0694072550     2.4452597622
   43      H      -0.3199517508    -3.2193591317     2.1474652936
   44      H      -1.9769861449    -3.7534724358     1.7192871038
   45      H       0.3770849925    -3.5019454635    -0.1084028342
   46      H      -1.2843248746    -3.9792270277    -0.6007597183
   47      H      -0.2488565746    -1.4977327941    -1.4495612116
   48      H      -5.2670252500     1.9971768653     0.4858290964
   49      H      -3.7735134610     2.9976608757     0.2801976720
   50      H       2.3951175830     4.1375534810     2.6520906376
   51      H       2.5272812218     2.6868027256     3.7258109178
   52      H       1.1024489969     2.8704136681     2.6393309934
   53      H      -0.0969453127     3.5636357479    -2.5314041765
   54      H      -0.3172176522     3.0032732081    -0.8085550775
   55      H      -2.4330132569     2.5043519025    -2.0704350148
   56      H      -1.5121212434     1.6367133794    -3.3553584537
 ----------------------------------------------------------------

    9   -1510.2856829039      6.06E-09 Convergence criterion met
 Total energy in the final basis set = -1510.28568290
 Final energy is   -1510.28568290392
 **  OPTIMIZATION CONVERGED  **

                    Orbital Energies (a.u.)
 --------------------------------------------------------------

 Alpha MOs
 -- Occupied --
-18.935 -18.932 -18.923 -18.914 -18.885 -18.881 -18.879 -18.869
-18.861 -18.857 -10.098 -10.095 -10.092 -10.086 -10.072 -10.071
-10.064 -10.060 -10.054 -10.051 -10.050 -10.049 -10.036 -10.031
-10.029 -10.029 -10.020 -10.018 -10.009 -10.008  -1.014  -1.009
 -0.999  -0.993  -0.967  -0.959  -0.937  -0.932  -0.925  -0.920
 -0.760  -0.754  -0.724  -0.716  -0.709  -0.699  -0.692  -0.659
 -0.651  -0.612  -0.593  -0.573  -0.544  -0.537  -0.533  -0.526
 -0.513  -0.504  -0.485  -0.476  -0.463  -0.454  -0.448  -0.430
 -0.426  -0.425  -0.418  -0.410  -0.409  -0.403  -0.400  -0.398
 -0.391  -0.374  -0.367  -0.365  -0.355  -0.348  -0.347  -0.343
 -0.337  -0.334  -0.331  -0.330  -0.323  -0.323  -0.317  -0.308
 -0.302  -0.299  -0.298  -0.294  -0.289  -0.287  -0.272  -0.270
 -0.267  -0.248  -0.244  -0.241  -0.240  -0.231  -0.221  -0.175
 -0.174  -0.166  -0.160  -0.153  -0.150  -0.142  -0.140  -0.137
 -0.130

          Ground-State Mulliken Net Atomic Charges

     Atom                 Charge (a.u.)
  ----------------------------------------
      1 O                    -0.215377
      2 C                     0.208073
      3 C                    -0.080364
      4 C                    -0.080079
      5 C                     0.215659
      6 O                    -0.167659
      7 C                    -0.044485
      8 C                    -0.050188
      9 O                    -0.173874
     10 C                     0.220247
     11 C                    -0.076966
     12 C                    -0.080143
     13 C                     0.217669
     14 O                    -0.214329
     15 O                    -0.165268
     16 O                    -0.178813
     17 O                    -0.193229
     18 C                    -0.128837
     19 C                     0.026866
     20 C                    -0.144127
     21 C                    -0.144290
     22 C                     0.025333
     23 O                    -0.186438
     24 H                     0.085486
     25 H                     0.082470
     26 H                     0.080141
     27 H                     0.076609
     28 H                     0.073463
     29 H                     0.076796
     30 H                     0.073033
     31 H                     0.089157
     32 O                    -0.223140
     33 C                    -0.126092
     34 C                     0.028015
     35 C                    -0.141868
     36 C                    -0.145630
     37 C                     0.029772
     38 O                    -0.175184
     39 H                     0.084296
     40 H                     0.082126
     41 H                     0.091449
     42 H                     0.084867
     43 H                     0.080751
     44 H                     0.070956
     45 H                     0.085289
     46 H                     0.069154
     47 H                     0.079258
     48 H                     0.089861
     49 H                     0.088143
     50 H                     0.084203
     51 H                     0.085762
     52 H                     0.092136
     53 H                     0.086338
     54 H                     0.101484
     55 H                     0.086903
     56 H                     0.084614
  ----------------------------------------
  Sum of atomic charges =    -0.000000

                    Cartesian Multipole Moments
 -----------------------------------------------------------------
    Charge (ESU x 10^10)
                -0.0000
    Dipole Moment (Debye)
         X       2.0943      Y       0.9649      Z      -1.7206
       Tot       2.8770
    Quadrupole Moments (Debye-Ang)
        XX    -160.0387     XY      -4.0724     YY    -145.2201
        XZ      -2.7904     YZ       1.7599     ZZ    -162.0873

 Total job time:  57.16s(wall), 2715.45s(cpu)
        *  Thank you very much for using Q-Chem.  Have a nice day.  *
