 Q-Chem 5.0, Q-Chem, Inc., Pleasanton, CA (2017)
 Q-Chem 5.0.1 for Intel X86 EM64T Linux

User input:
--------------------------------------------------------------
$molecule
0  1
O -4.7711804039 -0.2298491017 1.8954311557
C -3.8377877572 -0.2204801583 1.0622394313
C -2.9765297414 -1.4542759515 0.6334103026
C -2.4381615695 -1.4962709999 -0.8609137467
C -2.6220007397 -0.165472715 -1.6852145377
O -1.4909099039 0.6739401145 -1.43815409
C -1.5250666147 1.8940458281 -2.2732321465
C -0.2331205003 2.684043627 -1.8690814989
O 0.9672626909 1.8274657616 -2.0266750787
C 1.356777862 1.2878562136 -0.7565892805
C 2.709257622 0.5197829984 -0.9256745975
C 3.4753588677 0.3455783411 0.4500288198
C 2.7475712447 0.9858523215 1.6911749933
O 2.2026894426 0.3855247926 2.6408486844
O -3.3832007955 0.9628908611 0.4004374557
O 2.9373442035 2.4095642454 1.6301681731
O 0.7381599416 1.4876122203 0.3123613872
C 2.1926652743 3.0536915479 2.733805439
C 2.5124675379 -0.9970112526 -1.3518009963
C 3.9121074158 -1.5766667339 -1.8028691055
C 4.6208360302 -1.7825638531 -0.4127249787
C 3.5143448468 -1.2369026377 0.5717637769
O 2.2476860149 -1.6746993423 -0.0642922441
H 3.3186344588 1.0628458073 -1.6700563021
H 4.4906305803 0.7756436593 0.3837952635
H 1.6870210684 -1.1657843274 -2.0689290291
H 3.778849913 -2.5316795376 -2.3355829395
H 4.4565425728 -0.8793246453 -2.4593820095
H 4.8211617701 -2.8479478339 -0.2163547845
H 5.5664851645 -1.2236140687 -0.3289853387
H 3.5651326224 -1.6065347379 1.6141833921
O -3.5434189816 0.1117021687 -2.4833781954
C -4.2100394932 2.1238777355 0.7978521629
C -1.6040181297 -1.5565351406 1.4512207515
C -1.1567409288 -3.0700084627 1.4466796135
C -0.6901780062 -3.2344543358 -0.0468629689
C -0.8979059598 -1.7709117786 -0.5990181812
O -0.6114045897 -0.9088201967 0.5711962842
H -3.598198166 -2.3447619626 0.8358164986
H -2.9280592818 -2.309635155 -1.4256847877
H -4.1823430913 2.2876783998 1.8942587292
H -1.6217624631 -1.069407255 2.4452597622
H -0.3199517508 -3.2193591317 2.1474652936
H -1.9769861449 -3.7534724358 1.7192871038
H 0.3770849925 -3.5019454635 -0.1084028342
H -1.2843248746 -3.9792270277 -0.6007597183
H -0.2488565746 -1.4977327941 -1.4495612116
H -5.26702525 1.9971768653 0.4858290964
H -3.773513461 2.9976608757 0.280197672
H 2.395117583 4.137553481 2.6520906376
H 2.5272812218 2.6868027256 3.7258109178
H 1.1024489969 2.8704136681 2.6393309934
H -0.0969453127 3.5636357479 -2.5314041765
H -0.3172176522 3.0032732081 -0.8085550775
H -2.4330132569 2.5043519025 -2.0704350148
H -1.5121212434 1.6367133794 -3.3553584537
$end

$rem
JOBTYPE                   OPT
METHOD                    B3LYP
DFT_D                     d3_op
BASIS                     STO-3G
GEOM_OPT_MAX_CYCLES       100
GEOM_OPT_TOL_GRADIENT     300
GEOM_OPT_TOL_DISPLACEMENT 1200
GEOM_OPT_TOL_ENERGY       100
SYMMETRY                  False
THRESH                    12
SCF_CONVERGENCE           8
MAX_SUB_FILE_NUM          128
MEM_STATIC                400
MEM_TOTAL                 4000
$end
--------------------------------------------------------------

   16   -1510.2856418842      5.41E-09 Convergence criterion met
 Total energy in the final basis set = -1510.28564188
   14   -1510.2862008676      2.98E-09 Convergence criterion met
 Total energy in the final basis set = -1510.28620087
   14   -1510.2879594758      9.65E-09 Convergence criterion met
 Total energy in the final basis set = -1510.28795948
   13   -1510.2896346768      5.59E-09 Convergence criterion met
 Total energy in the final basis set = -1510.28963468
   14   -1510.2910944503      3.34E-09 Convergence criterion met
 Total energy in the final basis set = -1510.29109445
   13   -1510.2931178530      6.34E-09 Convergence criterion met
 Total energy in the final basis set = -1510.29311785
   13   -1510.2905564601      9.93E-09 Convergence criterion met
 Total energy in the final basis set = -1510.29055646
   14   -1510.2919447609      8.49E-09 Convergence criterion met
   12   -1510.2973266453      5.28E-09 Convergence criterion met
 Total energy in the final basis set = -1510.29732665
   12   -1510.2972888180      5.72E-09 Convergence criterion met
 Total energy in the final basis set = -1510.29728882
   11   -1510.2973143883      8.40E-09 Convergence criterion met
 Total energy in the final basis set = -1510.29731439
   11   -1510.2973153315      3.91E-09 Convergence criterion met
 Total energy in the final basis set = -1510.29731533
   12   -1510.2973062529      2.59E-09 Convergence criterion met
 Total energy in the final basis set = -1510.29730625
   10   -1510.2972973736      9.81E-09 Convergence criterion met
 Total energy in the final basis set = -1510.29729737

             Standard Nuclear Orientation (Angstroms)
    I     Atom           X                Y                Z
 ----------------------------------------------------------------
    1      O      -5.0298633579     0.1789763537     1.0141790789
    2      C      -3.7967020985     0.0692008630     0.8450426209
    3      C      -2.9110268282    -1.1997144319     1.0688942393
    4      C      -2.0013806491    -1.5799485684    -0.1821245854
    5      C      -2.2464523914    -0.5880276628    -1.3764308653
    6      O      -1.0284215717     0.0769788632    -1.7266985207
    7      C      -1.2942031245     1.1832548392    -2.6760424825
    8      C      -0.4792819247     2.4189671969    -2.1594859657
    9      O       0.9591430444     2.0652624280    -2.1695312690
   10      C       1.3409958560     1.4991374704    -0.9053799340
   11      C       2.6920923324     0.7407639310    -1.1361648855
   12      C       3.2706470859     0.0299749602     0.1537140715
   13      C       2.4879074039     0.3122790826     1.4888695389
   14      O       1.8266394702    -0.5144905654     2.1517081062
   15      O      -2.9466907006     1.1472090132     0.4201237813
   16      O       2.7584496868     1.6570157767     1.9024462869
   17      O       0.6795213770     1.5937650341     0.1499367694
   18      C       1.9232045050     1.9794253690     3.0812955953
   19      C       2.4188924245    -0.5128344980    -2.0751703718
   20      C       3.7986255845    -1.0936815558    -2.5739577968
   21      C       4.3081559374    -1.8314743616    -1.2794321600
   22      C       3.1517997692    -1.4952493971    -0.2624254755
   23      O       1.9380939693    -1.5356745498    -1.1172419458
   24      H       3.4207948514     1.4347943699    -1.5919131510
   25      H       4.3249170003     0.3225206226     0.3079642700
   26      H       1.6604884331    -0.3267370480    -2.8600948185
   27      H       3.6436623996    -1.7971148639    -3.4072921425
   28      H       4.4824316544    -0.2960707530    -2.9053073491
   29      H       4.3776066405    -2.9195709461    -1.4377349000
   30      H       5.2865170782    -1.4609704033    -0.9339626975
   31      H       3.0383867288    -2.1878835461     0.5937567738
   32      O      -3.3361434493    -0.3836818109    -1.9585338020
   33      C      -3.7651581162     2.3370510713     0.0993790863
   34      C      -1.7934768969    -0.9390109429     2.1728452113
   35      C      -1.2314325117    -2.3342722940     2.6461274011
   36      C      -0.3507951740    -2.7334484521     1.4075418892
   37      C      -0.5515304047    -1.4889262517     0.4553601658
   38      O      -0.6820621758    -0.3513340034     1.3981352624
   39      H      -3.5830824188    -2.0299661279     1.3481733916
   40      H      -2.2374943530    -2.6015428068    -0.5334233202
   41      H      -4.3967983231     2.6460533103     0.9566221232
   42      H      -2.1066566920    -0.2555877930     2.9858308074
   43      H      -0.6180792593    -2.2096051113     3.5526573436
   44      H      -2.0346653349    -3.0584446780     2.8572244856
   45      H       0.7116195074    -2.8131998935     1.6860350185
   46      H      -0.6733602501    -3.6767265116     0.9384574103
   47      H       0.2966273919    -1.3336859649    -0.2557130351
   48      H      -4.4236944007     2.1474273156    -0.7735995336
   49      H      -3.0506260421     3.1442436532    -0.1450458771
   50      H       2.1198170571     3.0416785258     3.3162941992
   51      H       2.1882086678     1.3508120312     3.9563498012
   52      H       0.8471976177     1.8360138310     2.8527290624
   53      H      -0.6129018235     3.2863018036    -2.8375116634
   54      H      -0.8007648419     2.6773296482    -1.1278884072
   55      H      -2.3865607773     1.3863076835    -2.7170058025
   56      H      -0.9446866623     0.8939545601    -3.6909638538
 ----------------------------------------------------------------

    9   -1510.2972978528      4.79E-09 Convergence criterion met
 Total energy in the final basis set = -1510.29729785
 Final energy is   -1510.29729785277
 **  OPTIMIZATION CONVERGED  **

                    Orbital Energies (a.u.)
 --------------------------------------------------------------

 Alpha MOs
 -- Occupied --
-18.929 -18.927 -18.926 -18.917 -18.902 -18.885 -18.867 -18.867
-18.862 -18.861 -10.100 -10.093 -10.089 -10.087 -10.073 -10.068
-10.065 -10.062 -10.058 -10.049 -10.044 -10.040 -10.034 -10.025
-10.025 -10.025 -10.024 -10.024 -10.002  -9.997  -1.015  -1.006
 -0.999  -0.995  -0.978  -0.949  -0.939  -0.929  -0.927  -0.921
 -0.765  -0.747  -0.727  -0.715  -0.707  -0.701  -0.684  -0.653
 -0.650  -0.614  -0.591  -0.573  -0.547  -0.540  -0.529  -0.517
 -0.511  -0.501  -0.479  -0.478  -0.462  -0.454  -0.452  -0.434
 -0.429  -0.423  -0.416  -0.408  -0.407  -0.404  -0.398  -0.393
 -0.387  -0.373  -0.369  -0.361  -0.355  -0.350  -0.345  -0.344
 -0.339  -0.337  -0.333  -0.332  -0.326  -0.318  -0.313  -0.308
 -0.305  -0.299  -0.292  -0.287  -0.284  -0.280  -0.274  -0.270
 -0.262  -0.251  -0.245  -0.242  -0.241  -0.234  -0.211  -0.182
 -0.169  -0.163  -0.163  -0.155  -0.152  -0.149  -0.141  -0.139
 -0.120

          Ground-State Mulliken Net Atomic Charges

     Atom                 Charge (a.u.)
  ----------------------------------------
      1 O                    -0.212618
      2 C                     0.209350
      3 C                    -0.080184
      4 C                    -0.078434
      5 C                     0.215900
      6 O                    -0.172846
      7 C                    -0.053038
      8 C                    -0.051476
      9 O                    -0.179336
     10 C                     0.217894
     11 C                    -0.077327
     12 C                    -0.081837
     13 C                     0.217048
     14 O                    -0.209967
     15 O                    -0.168425
     16 O                    -0.174814
     17 O                    -0.189996
     18 C                    -0.128116
     19 C                     0.027236
     20 C                    -0.143773
     21 C                    -0.143306
     22 C                     0.025781
     23 O                    -0.186977
     24 H                     0.087372
     25 H                     0.083808
     26 H                     0.089988
     27 H                     0.079070
     28 H                     0.075349
     29 H                     0.078850
     30 H                     0.074984
     31 H                     0.090548
     32 O                    -0.226512
     33 C                    -0.129193
     34 C                     0.026816
     35 C                    -0.143398
     36 C                    -0.144300
     37 C                     0.011659
     38 O                    -0.182214
     39 H                     0.082805
     40 H                     0.081856
     41 H                     0.089981
     42 H                     0.077112
     43 H                     0.077222
     44 H                     0.068462
     45 H                     0.079827
     46 H                     0.066088
     47 H                     0.110231
     48 H                     0.088552
     49 H                     0.085478
     50 H                     0.084541
     51 H                     0.083226
     52 H                     0.100697
     53 H                     0.087224
     54 H                     0.101910
     55 H                     0.099355
     56 H                     0.081865
  ----------------------------------------
  Sum of atomic charges =    -0.000000

                    Cartesian Multipole Moments
 -----------------------------------------------------------------
    Charge (ESU x 10^10)
                -0.0000
    Dipole Moment (Debye)
         X       3.0570      Y       0.8265      Z      -1.3664
       Tot       3.4490
    Quadrupole Moments (Debye-Ang)
        XX    -163.5962     XY      -5.3273     YY    -150.8866
        XZ      -3.4196     YZ      -1.9961     ZZ    -153.5710

 Total job time:  118.13s(wall), 5632.18s(cpu)
        *  Thank you very much for using Q-Chem.  Have a nice day.  *
