 Q-Chem 5.0, Q-Chem, Inc., Pleasanton, CA (2017)
 Q-Chem 5.0.1 for Intel X86 EM64T Linux

User input:
--------------------------------------------------------------
$molecule
0  1
O -3.94934 -3.66094 2.70899
C -3.26408 -4.56952 2.26188
C -3.36658 -6.02376 2.66595
C -3.12372 -7.07591 1.57148
C -2.63114 -6.56012 0.23754
O -1.27928 -6.37101 0.28369
C -0.70934 -6.06644 -0.99367
C 0.79703 -5.86668 -0.86298
O 1.38302 -6.99076 -0.18775
C 1.61903 -6.81737 1.1364
C 2.36711 -7.97317 1.757
C 2.92512 -7.70338 3.16203
C 2.3652 -6.4879 3.87322
O 1.60997 -6.51434 4.8342
O -2.1529 -4.2153 1.56294
O 2.87367 -5.2867 3.48271
O 1.129 -5.87805 1.74744
C 2.53307 -4.07638 4.05041
C 1.50514 -9.22075 1.99594
C 2.4006 -10.45631 2.04757
C 3.11158 -10.23412 3.36704
C 2.38839 -8.97501 3.86153
O 1.089 -9.0989 3.33258
H 3.20394 -8.21018 1.06063
H 4.03497 -7.64708 3.21137
H 0.70455 -9.35382 1.23717
H 1.72987 -11.3397 2.14839
H 3.06608 -10.60003 1.16927
H 2.89363 -11.09982 4.03125
H 4.20913 -10.07364 3.29582
H 2.4588 -8.90996 4.96983
O -3.29232 -6.61481 -0.79279
C -1.82404 -2.92575 1.20147
C -2.26366 -6.43521 3.66974
C -2.73446 -7.63243 4.49429
C -2.69318 -8.72924 3.44886
C -2.07701 -7.96435 2.27204
O -1.24715 -7.01015 2.88706
H -4.34859 -6.14283 3.17778
H -4.06453 -7.63111 1.35822
H -1.69424 -2.29514 2.10676
H -1.95151 -5.60552 4.34149
H -1.9406 -7.83391 5.24939
H -3.70824 -7.50832 5.01485
H -2.00642 -9.52889 3.80528
H -3.6793 -9.16459 3.17792
H -1.58738 -8.66466 1.56188
H -2.61747 -2.49713 0.55288
H -0.8692 -2.94063 0.63683
H 3.09085 -3.26523 3.53928
H 2.8001 -4.0703 5.12877
H 1.44376 -3.8915 3.93183
H 1.25634 -5.75841 -1.8681
H 0.98641 -4.90012 -0.34264
H -1.16284 -5.14999 -1.4348
H -0.87575 -6.92796 -1.67971
$end

$opt
CONSTRAINT
tors           1           2           3           4    +144.818
tors           3           4           5           6     +82.222
tors           4           5           6           7    +171.616
tors           5           6           7           8    +179.892
tors           6           7           8           9     +52.193
tors           7           8           9          10     -98.522
tors           8           9          10          11    -173.881
tors           9          10          11          12    +167.326
tors          11          12          13          14    +108.951
ENDCONSTRAINT
$end

$rem
JOBTYPE                   OPT
METHOD                    B3LYP
DFT_D                     d3_op
BASIS                     STO-3G
GEOM_OPT_MAX_CYCLES       100
GEOM_OPT_TOL_GRADIENT     300
GEOM_OPT_TOL_DISPLACEMENT 1200
GEOM_OPT_TOL_ENERGY       100
SYMMETRY                  False
THRESH                    12
SCF_CONVERGENCE           8
MAX_SUB_FILE_NUM          128
MEM_STATIC                400
MEM_TOTAL                 4000
$end
--------------------------------------------------------------

   15   -1510.1549595705      6.40E-09 Convergence criterion met
 Total energy in the final basis set = -1510.15495957
   14   -1510.2246101043      7.39E-09 Convergence criterion met
 Total energy in the final basis set = -1510.22461010
   14   -1510.2613722483      5.50E-09 Convergence criterion met
 Total energy in the final basis set = -1510.26137225
   14   -1510.2764658282      6.06E-09 Convergence criterion met
 Total energy in the final basis set = -1510.27646583
   14   -1510.2780467324      8.23E-09 Convergence criterion met
 Total energy in the final basis set = -1510.27804673
   15   -1510.2816000527      1.79E-09 Convergence criterion met
 Total energy in the final basis set = -1510.28160005
   14   -1510.2830038475      5.38E-09 Convergence criterion met
 Total energy in the final basis set = -1510.28300385
   13   -1510.2846836061      2.82E-09 Convergence criterion met
   11   -1510.2861745886      4.05E-09 Convergence criterion met
 Total energy in the final basis set = -1510.28617459
   11   -1510.2862148943      5.93E-09 Convergence criterion met
 Total energy in the final basis set = -1510.28621489
   11   -1510.2862338701      2.21E-09 Convergence criterion met
 Total energy in the final basis set = -1510.28623387
   11   -1510.2862492910      3.11E-09 Convergence criterion met
 Total energy in the final basis set = -1510.28624929
   11   -1510.2862569266      1.87E-09 Convergence criterion met
 Total energy in the final basis set = -1510.28625693
    9   -1510.2862579015      6.99E-09 Convergence criterion met
 Total energy in the final basis set = -1510.28625790

             Standard Nuclear Orientation (Angstroms)
    I     Atom           X                Y                Z
 ----------------------------------------------------------------
    1      O      -4.4797483586     0.2841937087     2.0980852453
    2      C      -3.6168914575     0.0838661802     1.2141687357
    3      C      -2.7689189683    -1.2190979083     1.0412117099
    4      C      -2.4079212927    -1.6817227756    -0.4359080641
    5      C      -2.6511167490    -0.6011106665    -1.5566300677
    6      O      -1.5245708259     0.2799694222    -1.5851605072
    7      C      -1.5835975813     1.2006567992    -2.7405804048
    8      C      -0.2918808616     2.0807939108    -2.6124275750
    9      O       0.9165683925     1.2335181107    -2.4706076439
   10      C       1.2933753647     1.1293368486    -1.0919812575
   11      C       2.6539514968     0.3622474552    -1.0019103054
   12      C       3.3171204941     0.4692809567     0.4309117060
   13      C       2.4800671748     1.2949677645     1.4796628281
   14      O       1.8627013954     0.8486076499     2.4693536794
   15      O      -3.2512764746     1.0587045643     0.2341300722
   16      O       2.7123351546     2.6919082644     1.2275246066
   17      O       0.6570344023     1.6454086115    -0.1465674856
   18      C       1.8881885016     3.5029817238     2.1489331691
   19      C       2.5119676130    -1.2140071922    -1.1497863896
   20      C       3.9518872772    -1.8148982071    -1.4114146550
   21      C       4.5875768196    -1.7210662441     0.0254941283
   22      C       3.4040257493    -1.0611431650     0.8363696868
   23      O       2.1962517648    -1.6624027419     0.2228323928
   24      H       3.3168213101     0.7658931104    -1.7885485211
   25      H       4.3188363512     0.9287649195     0.3570739891
   26      H       1.7316424857    -1.5374380522    -1.8647438978
   27      H       3.8742962489    -2.8593600466    -1.7532239608
   28      H       4.5122646661    -1.2383501672    -2.1646555757
   29      H       4.8229765197    -2.7190446800     0.4280281861
   30      H       5.5010503893    -1.1057715254     0.0465424062
   31      H       3.4061424256    -1.2392755424     1.9289616521
   32      O      -3.6108843868    -0.5408875205    -2.3555954509
   33      C      -4.0648181741     2.2834540534     0.4005497151
   34      C      -1.3061276651    -1.1113617207     1.6881972350
   35      C      -0.8612524890    -2.5717038236     2.0842127652
   36      C      -0.5999880160    -3.1930338173     0.6621501183
   37      C      -0.8529072288    -1.9463457940    -0.2730835973
   38      O      -0.4249087428    -0.7919119773     0.5497886223
   39      H      -3.3386625682    -2.0159609399     1.5520632521
   40      H      -2.9764623244    -2.5874449770    -0.7126032044
   41      H      -3.9218207029     2.7346930111     1.4034685642
   42      H      -1.2024018848    -0.3486141894     2.4840373398
   43      H       0.0647841028    -2.5348575641     2.6797711526
   44      H      -1.6345993081    -3.1097217828     2.6554307958
   45      H       0.4444407357    -3.5269185094     0.5568137080
   46      H      -1.2763014962    -4.0317306671     0.4304794452
   47      H      -0.3027591935    -1.9664351769    -1.2313442066
   48      H      -5.1456209305     2.0793247311     0.2560687929
   49      H      -3.7137768975     2.9872699304    -0.3763279399
   50      H       2.1381057037     4.5593246008     1.9390943289
   51      H       2.1095452309     3.2722362453     3.2112074365
   52      H       0.8063781817     3.3344699088     1.9690175294
   53      H      -0.1543172606     2.6941600514    -3.5267028715
   54      H      -0.3858910407     2.7333094906    -1.7185552887
   55      H      -2.4918204266     1.8425249807    -2.7105851668
   56      H      -1.5876410883     0.6354332983    -3.6985730300
 ----------------------------------------------------------------

    9   -1510.2862574317      4.57E-09 Convergence criterion met
 Total energy in the final basis set = -1510.28625743
 Final energy is   -1510.28625743167
 **  OPTIMIZATION CONVERGED  **

                    Orbital Energies (a.u.)
 --------------------------------------------------------------

 Alpha MOs
 -- Occupied --
-18.934 -18.933 -18.923 -18.912 -18.885 -18.882 -18.878 -18.867
-18.862 -18.854 -10.100 -10.094 -10.092 -10.085 -10.072 -10.070
-10.063 -10.059 -10.054 -10.050 -10.049 -10.049 -10.036 -10.030
-10.029 -10.028 -10.019 -10.017 -10.008 -10.007  -1.014  -1.008
 -0.998  -0.991  -0.967  -0.958  -0.937  -0.931  -0.925  -0.918
 -0.759  -0.753  -0.724  -0.715  -0.708  -0.698  -0.691  -0.658
 -0.650  -0.612  -0.592  -0.573  -0.543  -0.536  -0.533  -0.525
 -0.512  -0.504  -0.484  -0.476  -0.462  -0.453  -0.448  -0.430
 -0.425  -0.424  -0.418  -0.409  -0.408  -0.402  -0.399  -0.397
 -0.390  -0.375  -0.366  -0.364  -0.355  -0.347  -0.346  -0.342
 -0.337  -0.333  -0.330  -0.328  -0.323  -0.322  -0.317  -0.308
 -0.302  -0.299  -0.297  -0.293  -0.290  -0.285  -0.271  -0.269
 -0.266  -0.248  -0.242  -0.239  -0.239  -0.230  -0.221  -0.175
 -0.174  -0.166  -0.158  -0.153  -0.148  -0.142  -0.140  -0.135
 -0.127

          Ground-State Mulliken Net Atomic Charges

     Atom                 Charge (a.u.)
  ----------------------------------------
      1 O                    -0.215806
      2 C                     0.207368
      3 C                    -0.080819
      4 C                    -0.079746
      5 C                     0.214933
      6 O                    -0.166176
      7 C                    -0.044686
      8 C                    -0.049622
      9 O                    -0.174061
     10 C                     0.224295
     11 C                    -0.076481
     12 C                    -0.080125
     13 C                     0.218930
     14 O                    -0.218074
     15 O                    -0.165076
     16 O                    -0.178330
     17 O                    -0.194232
     18 C                    -0.128580
     19 C                     0.027620
     20 C                    -0.143995
     21 C                    -0.144536
     22 C                     0.025650
     23 O                    -0.185690
     24 H                     0.084913
     25 H                     0.082313
     26 H                     0.081394
     27 H                     0.076196
     28 H                     0.073014
     29 H                     0.076470
     30 H                     0.072826
     31 H                     0.087861
     32 O                    -0.222374
     33 C                    -0.126108
     34 C                     0.029137
     35 C                    -0.141236
     36 C                    -0.145077
     37 C                     0.030030
     38 O                    -0.175984
     39 H                     0.083913
     40 H                     0.082410
     41 H                     0.090633
     42 H                     0.087515
     43 H                     0.081633
     44 H                     0.070655
     45 H                     0.084643
     46 H                     0.068950
     47 H                     0.077730
     48 H                     0.089681
     49 H                     0.088102
     50 H                     0.083904
     51 H                     0.085324
     52 H                     0.091273
     53 H                     0.086373
     54 H                     0.100023
     55 H                     0.087346
     56 H                     0.083758
  ----------------------------------------
  Sum of atomic charges =     0.000000

                    Cartesian Multipole Moments
 -----------------------------------------------------------------
    Charge (ESU x 10^10)
                -0.0000
    Dipole Moment (Debye)
         X       2.1599      Y       0.5878      Z      -1.8798
       Tot       2.9231
    Quadrupole Moments (Debye-Ang)
        XX    -160.0890     XY      -4.6442     YY    -146.5443
        XZ      -0.8431     YZ      -2.3910     ZZ    -160.7723

 Total job time:  62.56s(wall), 2970.81s(cpu)
        *  Thank you very much for using Q-Chem.  Have a nice day.  *
