 Q-Chem 5.0, Q-Chem, Inc., Pleasanton, CA (2017)
 Q-Chem 5.0.1 for Intel X86 EM64T Linux

User input:
--------------------------------------------------------------
$molecule
0  1
O -4.4797483586 0.2841937087 2.0980852453
C -3.6168914575 0.0838661802 1.2141687357
C -2.7689189683 -1.2190979083 1.0412117099
C -2.4079212927 -1.6817227756 -0.4359080641
C -2.651116749 -0.6011106665 -1.5566300677
O -1.5245708259 0.2799694222 -1.5851605072
C -1.5835975813 1.2006567992 -2.7405804048
C -0.2918808616 2.0807939108 -2.612427575
O 0.9165683925 1.2335181107 -2.4706076439
C 1.2933753647 1.1293368486 -1.0919812575
C 2.6539514968 0.3622474552 -1.0019103054
C 3.3171204941 0.4692809567 0.430911706
C 2.4800671748 1.2949677645 1.4796628281
O 1.8627013954 0.8486076499 2.4693536794
O -3.2512764746 1.0587045643 0.2341300722
O 2.7123351546 2.6919082644 1.2275246066
O 0.6570344023 1.6454086115 -0.1465674856
C 1.8881885016 3.5029817238 2.1489331691
C 2.511967613 -1.2140071922 -1.1497863896
C 3.9518872772 -1.8148982071 -1.411414655
C 4.5875768196 -1.7210662441 0.0254941283
C 3.4040257493 -1.061143165 0.8363696868
O 2.1962517648 -1.6624027419 0.2228323928
H 3.3168213101 0.7658931104 -1.7885485211
H 4.3188363512 0.9287649195 0.3570739891
H 1.7316424857 -1.5374380522 -1.8647438978
H 3.8742962489 -2.8593600466 -1.7532239608
H 4.5122646661 -1.2383501672 -2.1646555757
H 4.8229765197 -2.71904468 0.4280281861
H 5.5010503893 -1.1057715254 0.0465424062
H 3.4061424256 -1.2392755424 1.9289616521
O -3.6108843868 -0.5408875205 -2.3555954509
C -4.0648181741 2.2834540534 0.4005497151
C -1.3061276651 -1.1113617207 1.688197235
C -0.861252489 -2.5717038236 2.0842127652
C -0.599988016 -3.1930338173 0.6621501183
C -0.8529072288 -1.946345794 -0.2730835973
O -0.4249087428 -0.7919119773 0.5497886223
H -3.3386625682 -2.0159609399 1.5520632521
H -2.9764623244 -2.587444977 -0.7126032044
H -3.9218207029 2.7346930111 1.4034685642
H -1.2024018848 -0.3486141894 2.4840373398
H 0.0647841028 -2.5348575641 2.6797711526
H -1.6345993081 -3.1097217828 2.6554307958
H 0.4444407357 -3.5269185094 0.556813708
H -1.2763014962 -4.0317306671 0.4304794452
H -0.3027591935 -1.9664351769 -1.2313442066
H -5.1456209305 2.0793247311 0.2560687929
H -3.7137768975 2.9872699304 -0.3763279399
H 2.1381057037 4.5593246008 1.9390943289
H 2.1095452309 3.2722362453 3.2112074365
H 0.8063781817 3.3344699088 1.9690175294
H -0.1543172606 2.6941600514 -3.5267028715
H -0.3858910407 2.7333094906 -1.7185552887
H -2.4918204266 1.8425249807 -2.7105851668
H -1.5876410883 0.6354332983 -3.69857303
$end

$rem
JOBTYPE                   OPT
METHOD                    B3LYP
DFT_D                     d3_op
BASIS                     STO-3G
GEOM_OPT_MAX_CYCLES       100
GEOM_OPT_TOL_GRADIENT     300
GEOM_OPT_TOL_DISPLACEMENT 1200
GEOM_OPT_TOL_ENERGY       100
SYMMETRY                  False
THRESH                    12
SCF_CONVERGENCE           8
MAX_SUB_FILE_NUM          128
MEM_STATIC                400
MEM_TOTAL                 4000
$end
--------------------------------------------------------------

   16   -1510.2861978800      5.72E-09 Convergence criterion met
 Total energy in the final basis set = -1510.28619788
   15   -1510.2873630503      4.67E-09 Convergence criterion met
 Total energy in the final basis set = -1510.28736305
   14   -1510.2880224045      4.76E-09 Convergence criterion met
 Total energy in the final basis set = -1510.28802240
   14   -1510.2888393566      8.90E-09 Convergence criterion met
 Total energy in the final basis set = -1510.28883936
   13   -1510.2901087769      7.90E-09 Convergence criterion met
 Total energy in the final basis set = -1510.29010878
   13   -1510.2898286652      7.27E-09 Convergence criterion met
 Total energy in the final basis set = -1510.28982867
   13   -1510.2900989459      7.51E-09 Convergence criterion met
 Total energy in the final basis set = -1510.29009895
   13   -1510.2905634035      7.51E-09 Convergence criterion met
   12   -1510.3001308552      2.78E-09 Convergence criterion met
 Total energy in the final basis set = -1510.30013086
   11   -1510.3001676253      7.32E-09 Convergence criterion met
 Total energy in the final basis set = -1510.30016763
   11   -1510.3001757986      3.48E-09 Convergence criterion met
 Total energy in the final basis set = -1510.30017580
   11   -1510.3001812675      2.91E-09 Convergence criterion met
 Total energy in the final basis set = -1510.30018127
   11   -1510.3001840320      3.17E-09 Convergence criterion met
 Total energy in the final basis set = -1510.30018403
    9   -1510.3001866881      6.53E-09 Convergence criterion met
 Total energy in the final basis set = -1510.30018669

             Standard Nuclear Orientation (Angstroms)
    I     Atom           X                Y                Z
 ----------------------------------------------------------------
    1      O      -4.5540652318     0.6570139699     1.2308372340
    2      C      -3.3379423921     0.3707778639     1.2775825278
    3      C      -2.7225541922    -1.0766923554     1.2178019156
    4      C      -1.9077753593    -1.3924467457    -0.1060854964
    5      C      -2.0290155779    -0.2400443039    -1.1557613859
    6      O      -1.2148657180    -0.5303303194    -2.3002378603
    7      C      -1.3741437162     0.5391749137    -3.3173527093
    8      C      -0.6625935893     1.8841659792    -2.9099715817
    9      O       0.7874844903     1.6764433171    -2.6956055545
   10      C       1.0305119722     1.2031637249    -1.3613155324
   11      C       2.5276502782     0.7515089802    -1.3101894766
   12      C       3.1032358413     0.4241494682     0.1280062708
   13      C       2.1916276462     0.7527178307     1.3689317285
   14      O       1.9383111112    -0.0463520622     2.2963715191
   15      O      -2.3009542740     1.3331535539     1.5502327769
   16      O       1.7609645698     2.1130401336     1.3295526343
   17      O       0.1543888001     1.1116808330    -0.4764395672
   18      C       0.6738318586     2.3036862192     2.3219493606
   19      C       2.6122062411    -0.6839485416    -1.9946262213
   20      C       4.1235804710    -1.0520831901    -2.2589657071
   21      C       4.6056787946    -1.4405389954    -0.8114338386
   22      C       3.3060620422    -1.1462064180     0.0264269822
   23      O       2.2168329151    -1.5832535001    -0.8858044106
   24      H       3.1424271474     1.4957120939    -1.8463630798
   25      H       4.0713098372     0.9402703367     0.2664826229
   26      H       1.9333092600    -0.8109135964    -2.8603306349
   27      H       4.1977331741    -1.9031853913    -2.9542929236
   28      H       4.6833453035    -0.2018352989    -2.6803750843
   29      H       4.8712369454    -2.5079900471    -0.7495683872
   30      H       5.4652572095    -0.8411029569    -0.4721635203
   31      H       3.2166439818    -1.6608786134     1.0033012595
   32      O      -2.7824628185     0.7581349931    -1.0840425946
   33      C      -2.8854261976     2.6915476258     1.5158127873
   34      C      -1.5934999460    -1.2821249414     2.3120632919
   35      C      -1.2858287691    -2.8256907661     2.4433849433
   36      C      -0.4428559998    -3.0768201358     1.1395351027
   37      C      -0.4457866102    -1.6406588872     0.4797166817
   38      O      -0.3909169153    -0.7360100931     1.6492812244
   39      H      -3.5588297672    -1.7869686475     1.3422066831
   40      H      -2.2854915648    -2.3130444961    -0.5890008981
   41      H      -3.7065943629     2.8054621241     2.2527420053
   42      H      -1.7811145204    -0.7556584764     3.2674915927
   43      H      -0.6968011497    -3.0243792620     3.3528046783
   44      H      -2.2060954863    -3.4304286099     2.4788768898
   45      H       0.5899852414    -3.3762102837     1.3784275833
   46      H      -0.8886359065    -3.8408664404     0.4827923786
   47      H       0.4198555683    -1.4572800127    -0.2024192101
   48      H      -3.2814594736     2.9281020059     0.5070660483
   49      H      -2.0645544511     3.3880803604     1.7635064583
   50      H       0.4207565277     3.3791824035     2.2889987326
   51      H       1.0038818584     2.0305243348     3.3444627941
   52      H      -0.2149639162     1.6898446350     2.0463842001
   53      H      -0.7555256521     2.6104072377    -3.7426203616
   54      H      -1.1454137561     2.2915220112    -1.9966054164
   55      H      -2.4495835932     0.7508619014    -3.5044686332
   56      H      -0.9130063826     0.1314499312    -4.2394010262
 ----------------------------------------------------------------

    9   -1510.3001875895      5.05E-09 Convergence criterion met
 Total energy in the final basis set = -1510.30018759
 Final energy is   -1510.30018758946
 **  OPTIMIZATION CONVERGED  **

                    Orbital Energies (a.u.)
 --------------------------------------------------------------

 Alpha MOs
 -- Occupied --
-18.935 -18.933 -18.913 -18.913 -18.899 -18.882 -18.878 -18.871
-18.859 -18.849 -10.102 -10.102 -10.084 -10.081 -10.077 -10.073
-10.066 -10.059 -10.047 -10.045 -10.040 -10.036 -10.033 -10.033
-10.028 -10.025 -10.023 -10.022 -10.006 -10.003  -1.021  -1.008
 -0.992  -0.989  -0.977  -0.953  -0.942  -0.936  -0.917  -0.914
 -0.764  -0.749  -0.728  -0.716  -0.708  -0.702  -0.687  -0.645
 -0.642  -0.619  -0.593  -0.575  -0.545  -0.539  -0.530  -0.523
 -0.512  -0.498  -0.481  -0.470  -0.457  -0.452  -0.448  -0.436
 -0.433  -0.423  -0.418  -0.415  -0.401  -0.399  -0.396  -0.390
 -0.387  -0.378  -0.367  -0.359  -0.354  -0.351  -0.347  -0.342
 -0.337  -0.335  -0.329  -0.325  -0.322  -0.318  -0.313  -0.311
 -0.305  -0.302  -0.299  -0.291  -0.288  -0.276  -0.270  -0.268
 -0.265  -0.253  -0.252  -0.240  -0.237  -0.232  -0.215  -0.194
 -0.167  -0.161  -0.156  -0.154  -0.152  -0.148  -0.136  -0.131
 -0.125

          Ground-State Mulliken Net Atomic Charges

     Atom                 Charge (a.u.)
  ----------------------------------------
      1 O                    -0.223183
      2 C                     0.214594
      3 C                    -0.081175
      4 C                    -0.078668
      5 C                     0.222460
      6 O                    -0.173482
      7 C                    -0.051328
      8 C                    -0.055134
      9 O                    -0.176837
     10 C                     0.216095
     11 C                    -0.077692
     12 C                    -0.081586
     13 C                     0.215621
     14 O                    -0.205601
     15 O                    -0.170196
     16 O                    -0.175436
     17 O                    -0.201257
     18 C                    -0.135506
     19 C                     0.025965
     20 C                    -0.143763
     21 C                    -0.143388
     22 C                     0.024338
     23 O                    -0.189383
     24 H                     0.087716
     25 H                     0.082785
     26 H                     0.086660
     27 H                     0.078927
     28 H                     0.075350
     29 H                     0.078884
     30 H                     0.075251
     31 H                     0.095237
     32 O                    -0.212510
     33 C                    -0.127601
     34 C                     0.026746
     35 C                    -0.144901
     36 C                    -0.143324
     37 C                     0.015640
     38 O                    -0.182563
     39 H                     0.080671
     40 H                     0.083268
     41 H                     0.085175
     42 H                     0.080960
     43 H                     0.076215
     44 H                     0.069676
     45 H                     0.076318
     46 H                     0.068447
     47 H                     0.106053
     48 H                     0.089215
     49 H                     0.084398
     50 H                     0.077158
     51 H                     0.082991
     52 H                     0.116886
     53 H                     0.089460
     54 H                     0.104031
     55 H                     0.092523
     56 H                     0.088801
  ----------------------------------------
  Sum of atomic charges =    -0.000000

                    Cartesian Multipole Moments
 -----------------------------------------------------------------
    Charge (ESU x 10^10)
                -0.0000
    Dipole Moment (Debye)
         X       2.3219      Y      -0.0475      Z      -2.5480
       Tot       3.4475
    Quadrupole Moments (Debye-Ang)
        XX    -160.6799     XY       1.6219     YY    -153.1984
        XZ      -1.4980     YZ      -0.8324     ZZ    -151.5228

 Total job time:  226.07s(wall), 10789.59s(cpu)
        *  Thank you very much for using Q-Chem.  Have a nice day.  *
