 Q-Chem 5.0, Q-Chem, Inc., Pleasanton, CA (2017)
 Q-Chem 5.0.1 for Intel X86 EM64T Linux

User input:
--------------------------------------------------------------
$molecule
0  1
O -3.94934 -3.66094 2.70899
C -3.26408 -4.56952 2.26188
C -3.36658 -6.02376 2.66595
C -2.05424 -6.81773 2.77194
C -0.77335 -6.02476 2.63554
O -0.83211 -4.9095 3.42178
C -0.85946 -5.20811 4.82154
C -1.38624 -4.00989 5.60442
O -1.01052 -4.1244 6.98594
C 0.0088 -3.32208 7.38144
C 1.36822 -3.92432 7.11701
C 2.2664 -4.06361 8.35481
C 1.57148 -3.92508 9.69443
O 0.74159 -4.70091 10.14601
O -2.50106 -4.31103 1.16546
O 1.9537 -2.8667 10.45743
O -0.16319 -2.16033 7.71599
C 1.44478 -2.5854 11.70799
C 1.41358 -5.53165 6.9132
C 2.59317 -5.86902 6.00601
C 3.73537 -5.57115 6.95992
C 2.94253 -5.4086 8.26784
O 1.81523 -6.17234 8.09846
H 1.85762 -3.41047 6.25947
H 3.01398 -3.23907 8.31876
H 0.49519 -6.04339 6.64617
H 2.54983 -6.97071 5.8422
H 2.64539 -5.36317 5.01847
H 4.4227 -6.44516 6.97436
H 4.2995 -4.63789 6.74236
H 3.55128 -5.6301 9.17201
O 0.01361 -6.14044 1.70895
C -2.33597 -3.06099 0.60679
C -4.13642 -6.45309 3.92303
C -4.75826 -7.83151 3.69169
C -3.51409 -8.70749 3.68589
C -2.42941 -7.66849 4.0199
O -3.13433 -6.76338 4.84969
H -3.92474 -6.42464 1.78787
H -1.97607 -7.53472 1.92252
H -1.87897 -2.37017 1.34735
H -4.90136 -5.71521 4.24647
H -5.36253 -8.07677 4.59447
H -5.40226 -7.9182 2.79015
H -3.60718 -9.44546 4.51359
H -3.31168 -9.24081 2.73226
H -1.54586 -8.18591 4.4534
H -3.31517 -2.65835 0.27032
H -1.66187 -3.1412 -0.27044
H 1.93062 -1.66879 12.10075
H 1.65196 -3.42643 12.40378
H 0.34936 -2.41086 11.64456
H -0.98428 -3.07448 5.145
H -2.49256 -3.96385 5.53037
H 0.21264 -5.08307 4.93337
H -1.01409 -6.20805 5.2092
$end

$opt
CONSTRAINT
tors           1           2           3           4    -142.105
tors           3           4           5           6     +47.368
tors           4           5           6           7     +66.316
tors           5           6           7           8    -161.053
tors           6           7           8           9    -161.053
tors           7           8           9          10    +104.211
tors           8           9          10          11     -85.263
tors           9          10          11          12    -123.158
tors          11          12          13          14     +66.316
ENDCONSTRAINT
$end

$rem
JOBTYPE                   OPT
METHOD                    B3LYP
DFT_D                     d3_op
BASIS                     STO-3G
GEOM_OPT_MAX_CYCLES       100
GEOM_OPT_TOL_GRADIENT     300
GEOM_OPT_TOL_DISPLACEMENT 1200
GEOM_OPT_TOL_ENERGY       100
SYMMETRY                  False
THRESH                    12
SCF_CONVERGENCE           8
MAX_SUB_FILE_NUM          128
MEM_STATIC                400
MEM_TOTAL                 4000
$end
--------------------------------------------------------------

   16   -1510.0403874359      2.09E-09 Convergence criterion met
 Total energy in the final basis set = -1510.04038744
   13   -1510.1214009934      7.31E-09 Convergence criterion met
 Total energy in the final basis set = -1510.12140099
   14   -1510.1683723558      4.88E-09 Convergence criterion met
 Total energy in the final basis set = -1510.16837236
   14   -1510.1963589104      5.88E-09 Convergence criterion met
 Total energy in the final basis set = -1510.19635891
   14   -1510.2113568125      3.37E-09 Convergence criterion met
 Total energy in the final basis set = -1510.21135681
   14   -1510.2205637303      2.68E-09 Convergence criterion met
 Total energy in the final basis set = -1510.22056373
   13   -1510.2266191492      9.73E-09 Convergence criterion met
 Total energy in the final basis set = -1510.22661915
   13   -1510.2304645455      5.35E-09 Convergence criterion met
   12   -1510.2346346193      7.67E-09 Convergence criterion met
 Total energy in the final basis set = -1510.23463462
   12   -1510.2349136765      9.21E-09 Convergence criterion met
 Total energy in the final basis set = -1510.23491368
   12   -1510.2351509277      7.42E-09 Convergence criterion met
 Total energy in the final basis set = -1510.23515093
   11   -1510.2352193964      8.61E-09 Convergence criterion met
 Total energy in the final basis set = -1510.23521940
   11   -1510.2352432593      5.61E-09 Convergence criterion met
 Total energy in the final basis set = -1510.23524326
   10   -1510.2352572625      9.33E-09 Convergence criterion met
 Total energy in the final basis set = -1510.23525726

             Standard Nuclear Orientation (Angstroms)
    I     Atom           X                Y                Z
 ----------------------------------------------------------------
    1      O       3.6355570368    -2.4036811970     1.2079317398
    2      C       3.9943784380    -1.5248337644     0.3959325145
    3      C       4.5373336643    -0.0898304074     0.7269716509
    4      C       4.0534906861     1.0456911568    -0.2629854322
    5      C       3.0610079474     0.5306847330    -1.3926827981
    6      O       1.9457073670    -0.3172863874    -1.0132473942
    7      C       0.9319149461     0.3575016392    -0.1729488973
    8      C       0.1515693415    -0.8461781586     0.4907031932
    9      O      -1.1979460767    -0.5884245280     1.0622304278
   10      C      -2.2587638320    -1.0973384219     0.2044210433
   11      C      -2.8198831876    -0.2202527792    -0.9992406035
   12      C      -4.3983926400    -0.0012106655    -0.8681272789
   13      C      -5.0247851405    -0.6197881867     0.4302542595
   14      O      -4.8286895412    -0.2749357873     1.6152425832
   15      O       4.1571166547    -1.7365995284    -1.0113379521
   16      O      -5.9166551553    -1.6689832407     0.0340314746
   17      O      -2.8185439599    -2.1718113360     0.5184467970
   18      C      -6.4996555001    -2.3142275775     1.2328167935
   19      C      -2.3462753911     1.2965355433    -1.0056983502
   20      C      -2.6708123603     1.9145674629    -2.4232014839
   21      C      -4.2281611649     2.1114671999    -2.3169959487
   22      C      -4.5002889981     1.5789883680    -0.8547054731
   23      O      -3.2944790281     1.9805556393    -0.1012354848
   24      H      -2.5667595765    -0.7351091162    -1.9441097469
   25      H      -4.9255365049    -0.4366287006    -1.7355166659
   26      H      -1.3200979682     1.4636799448    -0.6435671369
   27      H      -2.1504921029     2.8772669358    -2.5507419710
   28      H      -2.3798578555     1.2443151777    -3.2477219028
   29      H      -4.5106753556     3.1729122931    -2.4009562871
   30      H      -4.7822533776     1.5367930820    -3.0762534064
   31      H      -5.4122258315     1.9749096853    -0.3674340068
   32      O       3.2996579447     0.7120859330    -2.6064268267
   33      C       3.5890982922    -3.0455298164    -1.4045207432
   34      C       4.0274472172     0.4730827133     2.1210241117
   35      C       5.0423578872     1.5855052539     2.5856109172
   36      C       4.7122952745     2.7371851672     1.5619399919
   37      C       3.4959983440     2.1150144423     0.7678226152
   38      O       2.8202558331     1.2752370128     1.7858871774
   39      H       5.6411737154    -0.1541155461     0.7206814123
   40      H       4.9100304917     1.4672392493    -0.8186516328
   41      H       2.4856030401    -3.0448665481    -1.2917678833
   42      H       3.7794490827    -0.3088069048     2.8654412878
   43      H       4.8268025186     1.8940914635     3.6210545635
   44      H       6.0893659596     1.2479577743     2.5263311351
   45      H       4.4023571804     3.6605110973     2.0762272334
   46      H       5.5605789708     2.9696562165     0.8984645105
   47      H       2.7905134378     2.8537592131     0.3407462349
   48      H       4.0119014148    -3.8719690842    -0.7979760794
   49      H       3.8508769139    -3.1865307941    -2.4690952791
   50      H      -7.1885817442    -3.0930471977     0.8573505385
   51      H      -7.0622863855    -1.5890194370     1.8557151545
   52      H      -5.7148746170    -2.7837551830     1.8604575077
   53      H       0.1203542609    -1.6700019837    -0.2559482699
   54      H       0.7720223199    -1.2005016271     1.3417531115
   55      H       0.2898665349     1.0024357650    -0.8050198315
   56      H       1.4167604312     0.9405304802     0.6427439972
 ----------------------------------------------------------------

    9   -1510.2352574463      7.73E-09 Convergence criterion met
 Total energy in the final basis set = -1510.23525745
 Final energy is   -1510.23525744627
 **  OPTIMIZATION CONVERGED  **

                    Orbital Energies (a.u.)
 --------------------------------------------------------------

 Alpha MOs
 -- Occupied --
-18.940 -18.926 -18.910 -18.905 -18.904 -18.897 -18.890 -18.887
-18.883 -18.865 -10.107 -10.105 -10.105 -10.091 -10.075 -10.072
-10.066 -10.065 -10.059 -10.057 -10.056 -10.054 -10.047 -10.043
-10.038 -10.033 -10.032 -10.030 -10.020 -10.019  -1.018  -1.006
 -1.001  -0.998  -0.988  -0.970  -0.943  -0.937  -0.928  -0.926
 -0.774  -0.760  -0.731  -0.720  -0.715  -0.705  -0.697  -0.665
 -0.656  -0.606  -0.598  -0.584  -0.559  -0.549  -0.546  -0.538
 -0.521  -0.508  -0.491  -0.474  -0.467  -0.459  -0.449  -0.446
 -0.440  -0.432  -0.429  -0.417  -0.415  -0.410  -0.406  -0.403
 -0.395  -0.383  -0.375  -0.369  -0.363  -0.359  -0.355  -0.350
 -0.347  -0.343  -0.337  -0.335  -0.330  -0.326  -0.324  -0.322
 -0.314  -0.309  -0.306  -0.301  -0.296  -0.287  -0.285  -0.280
 -0.275  -0.261  -0.254  -0.247  -0.238  -0.232  -0.228  -0.182
 -0.172  -0.168  -0.165  -0.161  -0.155  -0.154  -0.146  -0.143
 -0.141

          Ground-State Mulliken Net Atomic Charges

     Atom                 Charge (a.u.)
  ----------------------------------------
      1 O                    -0.211277
      2 C                     0.213746
      3 C                    -0.082031
      4 C                    -0.084418
      5 C                     0.217684
      6 O                    -0.198375
      7 C                    -0.068059
      8 C                    -0.048856
      9 O                    -0.184929
     10 C                     0.221565
     11 C                    -0.081240
     12 C                    -0.079056
     13 C                     0.208237
     14 O                    -0.211721
     15 O                    -0.168431
     16 O                    -0.169196
     17 O                    -0.180950
     18 C                    -0.128603
     19 C                     0.022083
     20 C                    -0.144798
     21 C                    -0.144026
     22 C                     0.025569
     23 O                    -0.186309
     24 H                     0.085022
     25 H                     0.085176
     26 H                     0.083422
     27 H                     0.077165
     28 H                     0.073350
     29 H                     0.077865
     30 H                     0.073956
     31 H                     0.084357
     32 O                    -0.188426
     33 C                    -0.126561
     34 C                     0.024574
     35 C                    -0.141777
     36 C                    -0.143274
     37 C                     0.022248
     38 O                    -0.189109
     39 H                     0.088679
     40 H                     0.087707
     41 H                     0.092245
     42 H                     0.094590
     43 H                     0.081712
     44 H                     0.076343
     45 H                     0.081446
     46 H                     0.076853
     47 H                     0.085002
     48 H                     0.091477
     49 H                     0.093795
     50 H                     0.088441
     51 H                     0.087465
     52 H                     0.093036
     53 H                     0.079888
     54 H                     0.090923
     55 H                     0.070335
     56 H                     0.105464
  ----------------------------------------
  Sum of atomic charges =     0.000000

                    Cartesian Multipole Moments
 -----------------------------------------------------------------
    Charge (ESU x 10^10)
                 0.0000
    Dipole Moment (Debye)
         X       2.1535      Y       1.0654      Z      -1.6243
       Tot       2.9002
    Quadrupole Moments (Debye-Ang)
        XX    -139.4395     XY       4.7099     YY    -156.8772
        XZ      14.8888     YZ       2.6264     ZZ    -166.4437

 Total job time:  57.33s(wall), 2727.79s(cpu)
        *  Thank you very much for using Q-Chem.  Have a nice day.  *
