 Q-Chem 5.0, Q-Chem, Inc., Pleasanton, CA (2017)
 Q-Chem 5.0.1 for Intel X86 EM64T Linux

User input:
--------------------------------------------------------------
$molecule
0  1
O 3.6355570368 -2.403681197 1.2079317398
C 3.994378438 -1.5248337644 0.3959325145
C 4.5373336643 -0.0898304074 0.7269716509
C 4.0534906861 1.0456911568 -0.2629854322
C 3.0610079474 0.530684733 -1.3926827981
O 1.945707367 -0.3172863874 -1.0132473942
C 0.9319149461 0.3575016392 -0.1729488973
C 0.1515693415 -0.8461781586 0.4907031932
O -1.1979460767 -0.588424528 1.0622304278
C -2.258763832 -1.0973384219 0.2044210433
C -2.8198831876 -0.2202527792 -0.9992406035
C -4.39839264 -0.0012106655 -0.8681272789
C -5.0247851405 -0.6197881867 0.4302542595
O -4.8286895412 -0.2749357873 1.6152425832
O 4.1571166547 -1.7365995284 -1.0113379521
O -5.9166551553 -1.6689832407 0.0340314746
O -2.8185439599 -2.171811336 0.518446797
C -6.4996555001 -2.3142275775 1.2328167935
C -2.3462753911 1.2965355433 -1.0056983502
C -2.6708123603 1.9145674629 -2.4232014839
C -4.2281611649 2.1114671999 -2.3169959487
C -4.5002889981 1.578988368 -0.8547054731
O -3.2944790281 1.9805556393 -0.1012354848
H -2.5667595765 -0.7351091162 -1.9441097469
H -4.9255365049 -0.4366287006 -1.7355166659
H -1.3200979682 1.4636799448 -0.6435671369
H -2.1504921029 2.8772669358 -2.550741971
H -2.3798578555 1.2443151777 -3.2477219028
H -4.5106753556 3.1729122931 -2.4009562871
H -4.7822533776 1.536793082 -3.0762534064
H -5.4122258315 1.9749096853 -0.3674340068
O 3.2996579447 0.712085933 -2.6064268267
C 3.5890982922 -3.0455298164 -1.4045207432
C 4.0274472172 0.4730827133 2.1210241117
C 5.0423578872 1.5855052539 2.5856109172
C 4.7122952745 2.7371851672 1.5619399919
C 3.495998344 2.1150144423 0.7678226152
O 2.8202558331 1.2752370128 1.7858871774
H 5.6411737154 -0.1541155461 0.7206814123
H 4.9100304917 1.4672392493 -0.8186516328
H 2.4856030401 -3.0448665481 -1.2917678833
H 3.7794490827 -0.3088069048 2.8654412878
H 4.8268025186 1.8940914635 3.6210545635
H 6.0893659596 1.2479577743 2.5263311351
H 4.4023571804 3.6605110973 2.0762272334
H 5.5605789708 2.9696562165 0.8984645105
H 2.7905134378 2.8537592131 0.3407462349
H 4.0119014148 -3.8719690842 -0.7979760794
H 3.8508769139 -3.1865307941 -2.4690952791
H -7.1885817442 -3.0930471977 0.8573505385
H -7.0622863855 -1.589019437 1.8557151545
H -5.714874617 -2.783755183 1.8604575077
H 0.1203542609 -1.6700019837 -0.2559482699
H 0.7720223199 -1.2005016271 1.3417531115
H 0.2898665349 1.002435765 -0.8050198315
H 1.4167604312 0.9405304802 0.6427439972
$end

$rem
JOBTYPE                   OPT
METHOD                    B3LYP
DFT_D                     d3_op
BASIS                     STO-3G
GEOM_OPT_MAX_CYCLES       100
GEOM_OPT_TOL_GRADIENT     300
GEOM_OPT_TOL_DISPLACEMENT 1200
GEOM_OPT_TOL_ENERGY       100
SYMMETRY                  False
THRESH                    12
SCF_CONVERGENCE           8
MAX_SUB_FILE_NUM          128
MEM_STATIC                400
MEM_TOTAL                 4000
$end
--------------------------------------------------------------

   16   -1510.2352866074      4.12E-09 Convergence criterion met
 Total energy in the final basis set = -1510.23528661
   14   -1510.2410762857      7.38E-09 Convergence criterion met
 Total energy in the final basis set = -1510.24107629
   15   -1510.2460397669      3.79E-09 Convergence criterion met
 Total energy in the final basis set = -1510.24603977
   14   -1510.2509407646      5.54E-09 Convergence criterion met
 Total energy in the final basis set = -1510.25094076
   14   -1510.2545332991      4.76E-09 Convergence criterion met
 Total energy in the final basis set = -1510.25453330
   14   -1510.2579972297      8.20E-09 Convergence criterion met
 Total energy in the final basis set = -1510.25799723
   14   -1510.2607164724      3.28E-09 Convergence criterion met
 Total energy in the final basis set = -1510.26071647
   14   -1510.2637738985      3.48E-09 Convergence criterion met
   12   -1510.2820154719      8.80E-09 Convergence criterion met
 Total energy in the final basis set = -1510.28201547
   11   -1510.2820278011      4.82E-09 Convergence criterion met
 Total energy in the final basis set = -1510.28202780
   10   -1510.2820330756      4.61E-09 Convergence criterion met
 Total energy in the final basis set = -1510.28203308
   10   -1510.2820358439      8.56E-09 Convergence criterion met
 Total energy in the final basis set = -1510.28203584
   10   -1510.2820437087      8.66E-09 Convergence criterion met
 Total energy in the final basis set = -1510.28204371
    9   -1510.2820462963      7.19E-09 Convergence criterion met
 Total energy in the final basis set = -1510.28204630

             Standard Nuclear Orientation (Angstroms)
    I     Atom           X                Y                Z
 ----------------------------------------------------------------
    1      O       2.9750243562    -0.7733832872     1.9464335748
    2      C       3.6981784641    -1.0732858791     0.9708650190
    3      C       4.1993301190    -0.1344022266    -0.1830479261
    4      C       3.6460037961    -0.5517514984    -1.6158176941
    5      C       2.8390168695    -1.9257891856    -1.6442934488
    6      O       1.7552019479    -2.1886104651    -0.7411284947
    7      C       0.8619705976    -1.0381536645    -0.4482948930
    8      C       0.2069839144    -1.3316195637     0.9477960842
    9      O      -0.6649174264    -0.2089183207     1.3812300618
   10      C      -1.8856999710    -0.2012837743     0.6438481874
   11      C      -2.7772192741     0.9757444021     1.1610103947
   12      C      -3.9270771985     1.3586449593     0.1437764604
   13      C      -3.8867473794     0.5550420594    -1.2089742353
   14      O      -4.7261133470    -0.2713705841    -1.6234723496
   15      O       4.2297583222    -2.3745013212     0.7175967126
   16      O      -2.7683556334     1.0323513336    -1.9750202042
   17      O      -2.1865425569    -1.0328161437    -0.2434153982
   18      C      -2.6514641875     0.2482692072    -3.2238120554
   19      C      -3.6396387636     0.5059643319     2.4147717243
   20      C      -4.2853740111     1.7823365102     3.0876204985
   21      C      -5.4421917631     2.1116430703     2.0719111764
   22      C      -5.2175511160     0.9896219281     0.9855174267
   23      O      -4.7880678705    -0.1821106898     1.7860267389
   24      H      -2.1296971992     1.8348365881     1.4099082095
   25      H      -3.8886024744     2.4367672254    -0.0948928966
   26      H      -3.1053029785    -0.1733184883     3.1073160462
   27      H      -4.6805928578     1.5320695032     4.0849540112
   28      H      -3.5609800762     2.6060611211     3.1908747763
   29      H      -6.4330431970     2.0022623468     2.5408163408
   30      H      -5.3618646828     3.1251448953     1.6473435953
   31      H      -6.0980787055     0.7289163642     0.3668232233
   32      O       3.2340899142    -2.8758079654    -2.3584675745
   33      C       3.6450254193    -3.3624806098     1.6540612057
   34      C       3.6572325040     1.3456308778    -0.0559002451
   35      C       4.5239821582     2.2764748122    -0.9853171944
   36      C       3.9988170392     1.8623038043    -2.4128153407
   37      C       2.9063267139     0.7855855970    -2.0465065407
   38      O       2.3522075694     1.3093710006    -0.7700671106
   39      H       5.3041596259    -0.1576811152    -0.1824562804
   40      H       4.4911984548    -0.7406425270    -2.3013315765
   41      H       2.5830978097    -3.5539096234     1.3953398315
   42      H       3.5099478029     1.6920246792     0.9856132513
   43      H       4.3138472757     3.3366330253    -0.7719419322
   44      H       5.6038245865     2.0973581078    -0.8606720482
   45      H       3.5368597529     2.7152223339    -2.9353053727
   46      H       4.7927116967     1.4443402498    -3.0520834967
   47      H       2.0982336294     0.6569785724    -2.7922683546
   48      H       3.7061454966    -3.0162724651     2.7054428488
   49      H       4.2296974320    -4.2917594681     1.5266099668
   50      H      -1.7975620771     0.6785142209    -3.7789713959
   51      H      -3.5697895006     0.3192219494    -3.8419832796
   52      H      -2.4537874549    -0.8220233667    -3.0081103489
   53      H      -0.3634087559    -2.2843162388     0.9146188778
   54      H       1.0099258809    -1.3875714797     1.7132314832
   55      H       0.0666967402    -0.9963935405    -1.2239953026
   56      H       1.4078892136    -0.0566606735    -0.4182848641
 ----------------------------------------------------------------

    9   -1510.2820458090      3.47E-09 Convergence criterion met
 Total energy in the final basis set = -1510.28204581
 Final energy is   -1510.28204580901
 **  OPTIMIZATION CONVERGED  **

                    Orbital Energies (a.u.)
 --------------------------------------------------------------

 Alpha MOs
 -- Occupied --
-18.944 -18.933 -18.923 -18.919 -18.916 -18.888 -18.883 -18.875
-18.874 -18.859 -10.112 -10.099 -10.098 -10.087 -10.079 -10.078
-10.067 -10.058 -10.057 -10.053 -10.052 -10.051 -10.045 -10.041
-10.036 -10.035 -10.034 -10.029 -10.017 -10.016  -1.023  -1.011
 -1.000  -0.995  -0.994  -0.966  -0.947  -0.936  -0.930  -0.922
 -0.778  -0.758  -0.735  -0.720  -0.720  -0.705  -0.690  -0.668
 -0.652  -0.609  -0.604  -0.576  -0.564  -0.553  -0.540  -0.533
 -0.523  -0.505  -0.489  -0.473  -0.466  -0.456  -0.452  -0.448
 -0.447  -0.433  -0.427  -0.417  -0.416  -0.411  -0.403  -0.401
 -0.385  -0.382  -0.375  -0.368  -0.363  -0.361  -0.354  -0.353
 -0.347  -0.341  -0.338  -0.333  -0.329  -0.327  -0.323  -0.322
 -0.316  -0.307  -0.303  -0.299  -0.294  -0.291  -0.286  -0.274
 -0.267  -0.263  -0.260  -0.248  -0.242  -0.232  -0.230  -0.185
 -0.184  -0.172  -0.167  -0.162  -0.157  -0.150  -0.144  -0.141
 -0.138

          Ground-State Mulliken Net Atomic Charges

     Atom                 Charge (a.u.)
  ----------------------------------------
      1 O                    -0.213927
      2 C                     0.212569
      3 C                    -0.082470
      4 C                    -0.085179
      5 C                     0.207551
      6 O                    -0.183504
      7 C                    -0.081324
      8 C                    -0.055517
      9 O                    -0.169320
     10 C                     0.213521
     11 C                    -0.078368
     12 C                    -0.080850
     13 C                     0.216079
     14 O                    -0.214496
     15 O                    -0.166614
     16 O                    -0.178430
     17 O                    -0.211193
     18 C                    -0.129016
     19 C                     0.025325
     20 C                    -0.143762
     21 C                    -0.144035
     22 C                     0.024730
     23 O                    -0.188576
     24 H                     0.086900
     25 H                     0.082653
     26 H                     0.083485
     27 H                     0.077593
     28 H                     0.073375
     29 H                     0.077537
     30 H                     0.072585
     31 H                     0.089758
     32 O                    -0.198344
     33 C                    -0.129222
     34 C                     0.024924
     35 C                    -0.142300
     36 C                    -0.142099
     37 C                     0.023009
     38 O                    -0.181446
     39 H                     0.090159
     40 H                     0.090324
     41 H                     0.095908
     42 H                     0.095390
     43 H                     0.082317
     44 H                     0.077859
     45 H                     0.082302
     46 H                     0.079008
     47 H                     0.089061
     48 H                     0.091640
     49 H                     0.094590
     50 H                     0.083450
     51 H                     0.086829
     52 H                     0.092238
     53 H                     0.087734
     54 H                     0.099173
     55 H                     0.078189
     56 H                     0.112228
  ----------------------------------------
  Sum of atomic charges =     0.000000

                    Cartesian Multipole Moments
 -----------------------------------------------------------------
    Charge (ESU x 10^10)
                 0.0000
    Dipole Moment (Debye)
         X       3.6207      Y       4.0445      Z       0.7505
       Tot       5.4800
    Quadrupole Moments (Debye-Ang)
        XX    -156.6004     XY      -3.2513     YY    -161.6829
        XZ      -2.6022     YZ      -8.7816     ZZ    -155.7799

 Total job time:  106.11s(wall), 5059.11s(cpu)
        *  Thank you very much for using Q-Chem.  Have a nice day.  *
