 Q-Chem 5.0, Q-Chem, Inc., Pleasanton, CA (2017)
 Q-Chem 5.0.1 for Intel X86 EM64T Linux

User input:
--------------------------------------------------------------
$molecule
0  1
O -5.6121134076 1.511019957 1.4534796305
C -4.8862651577 1.4160453911 0.4423304098
C -4.9496875707 0.3295565415 -0.6899063005
C -3.5826056079 -0.4533682787 -0.8897295229
C -2.4643827163 -0.0122328209 0.1353500684
O -1.244609073 0.4584015269 -0.5101641046
C -0.3745482227 -0.6980599799 -0.8243337783
C 0.8281095481 -0.7914405131 0.1866862631
O 1.913681392 0.0845768099 -0.3038134056
C 2.5739736154 0.7452027875 0.7827739231
C 3.9800080642 1.2594236484 0.2984945728
C 5.1630171995 0.2003773607 0.3744816188
C 4.9389721984 -1.1171613503 1.186382576
O 5.8023509821 -1.6843856322 1.89306251
O -3.8323445001 2.3273245668 0.1076189248
O 3.6204128792 -1.6353509509 0.991124019
O 2.0994104521 0.8609220603 1.9344912439
C 3.4489233768 -2.8723745849 1.7890114654
C 3.9614805843 1.5419236005 -1.2650495543
C 5.2732886349 2.3249120361 -1.6731645561
C 6.3365814998 1.1648972449 -1.685456469
C 5.4574911222 -0.0439364177 -1.1782370975
O 4.1586071017 0.1898420599 -1.8402911839
H 4.2339149829 2.1596014238 0.8863613231
H 6.0453169009 0.6755495962 0.8401479054
H 3.0162783966 1.9832111504 -1.6349094288
H 5.1587609094 2.7813369756 -2.6689254644
H 5.5213374594 3.1166915643 -0.9483808955
H 6.702921088 0.9658639737 -2.7054983057
H 7.2007677632 1.3653235523 -1.0321988226
H 5.846219427 -1.0513379389 -1.4237542904
O -2.6150916307 0.0420961642 1.3733764687
C -3.6373294337 3.3039583791 1.2030290226
C -5.933738404 -0.8515562981 -0.3091067669
C -6.2705988359 -1.6616092928 -1.6209223571
C -4.9172723512 -2.4307405747 -1.8570819012
C -4.0687149729 -1.9451727185 -0.6153602799
O -5.0725350021 -1.782543765 0.4581868283
H -5.2510142928 0.8249897598 -1.6311253963
H -3.1899101867 -0.3288176009 -1.9135968974
H -3.3095736686 2.7976384399 2.1341858021
H -6.7998616939 -0.5343486786 0.3036349915
H -7.1030986484 -2.3595697619 -1.4383709781
H -6.5391691097 -1.0023711459 -2.4617743738
H -5.0609250928 -3.5223502035 -1.8214870039
H -4.4397076974 -2.1679354584 -2.8145224803
H -3.2694940284 -2.6405912054 -0.2924188609
H -4.5655956686 3.8728486635 1.4146046117
H -2.8458319322 3.994884771 0.8594394938
H 2.4329479289 -3.2441705551 1.5633399579
H 3.5348495893 -2.6699831237 2.8760550982
H 4.1976899557 -3.6420404592 1.5123431119
H 0.517740893 -0.4825546576 1.2089020105
H 1.2110061806 -1.8343690849 0.2169217161
H 0.0439148985 -0.5354707419 -1.8420950865
H -0.9277577516 -1.6612879762 -0.830014242
$end

$rem
JOBTYPE                   OPT
METHOD                    B3LYP
DFT_D                     d3_op
BASIS                     STO-3G
GEOM_OPT_MAX_CYCLES       100
GEOM_OPT_TOL_GRADIENT     300
GEOM_OPT_TOL_DISPLACEMENT 1200
GEOM_OPT_TOL_ENERGY       100
SYMMETRY                  False
THRESH                    12
SCF_CONVERGENCE           8
MAX_SUB_FILE_NUM          128
MEM_STATIC                400
MEM_TOTAL                 4000
$end
--------------------------------------------------------------

   16   -1510.2557958464      5.55E-09 Convergence criterion met
 Total energy in the final basis set = -1510.25579585
   14   -1510.2582636434      7.60E-09 Convergence criterion met
 Total energy in the final basis set = -1510.25826364
   14   -1510.2610218220      9.64E-09 Convergence criterion met
 Total energy in the final basis set = -1510.26102182
   14   -1510.2628187596      7.98E-09 Convergence criterion met
 Total energy in the final basis set = -1510.26281876
   14   -1510.2642868402      7.15E-09 Convergence criterion met
 Total energy in the final basis set = -1510.26428684
   14   -1510.2660191004      7.65E-09 Convergence criterion met
 Total energy in the final basis set = -1510.26601910
   14   -1510.2678740345      9.72E-09 Convergence criterion met
 Total energy in the final basis set = -1510.26787403
   15   -1510.2693385758      2.22E-09 Convergence criterion met
   13   -1510.2793197533      3.83E-09 Convergence criterion met
 Total energy in the final basis set = -1510.27931975
   12   -1510.2793432353      4.44E-09 Convergence criterion met
 Total energy in the final basis set = -1510.27934324
   12   -1510.2794139337      3.58E-09 Convergence criterion met
 Total energy in the final basis set = -1510.27941393
   12   -1510.2794288635      3.88E-09 Convergence criterion met
 Total energy in the final basis set = -1510.27942886
   12   -1510.2794921762      5.05E-09 Convergence criterion met
 Total energy in the final basis set = -1510.27949218
   12   -1510.2794959296      1.70E-09 Convergence criterion met
 Total energy in the final basis set = -1510.27949593

             Standard Nuclear Orientation (Angstroms)
    I     Atom           X                Y                Z
 ----------------------------------------------------------------
    1      O      -4.9950812022     2.0134166161     1.4293840396
    2      C      -4.6717194801     1.6044035091     0.2949274874
    3      C      -4.2104991526     0.1525132668    -0.1028735901
    4      C      -2.7190596415     0.0578071087    -0.6286113779
    5      C      -1.9817407180     1.4458861122    -0.5779205136
    6      O      -0.8458157968     1.7190975618    -1.4217312308
    7      C      -0.5920042095     0.7880751876    -2.5395586797
    8      C       0.3312950013    -0.4247946018    -2.1407697009
    9      O       1.6417526215     0.0720928676    -1.6652501088
   10      C       1.7091952809     0.0851255970    -0.2391197367
   11      C       3.0963573580     0.6572257687     0.2284439080
   12      C       3.9465701289    -0.4129512352     1.0398586107
   13      C       3.2546961214    -1.8120387190     1.1403592542
   14      O       3.1025634047    -2.5173528878     2.1598597097
   15      O      -4.8042687980     2.3680265741    -0.9152792650
   16      O       2.8061649679    -2.1849635216    -0.1717565192
   17      O       0.7916999912    -0.2875970139     0.5287800545
   18      C       2.0198088687    -3.4368847966    -0.1077810879
   19      C       4.0894040233     1.0016225802    -0.9579791759
   20      C       5.2460260497     1.9122897273    -0.3869732541
   21      C       6.0887726427     0.8607276817     0.4255507727
   22      C       5.2689905742    -0.4622291822     0.1541661519
   23      O       4.7657038277    -0.2894072274    -1.2259575903
   24      H       2.8883139632     1.5422706053     0.8577638271
   25      H       4.1583001551    -0.0706677900     2.0678250321
   26      H       3.5912150088     1.3758059907    -1.8720770404
   27      H       5.8323608070     2.3479753127    -1.2114417349
   28      H       4.8602294828     2.7298339246     0.2426650866
   29      H       7.1120431174     0.7678984901     0.0282447302
   30      H       6.1461178486     1.0981538081     1.4996867108
   31      H       5.8468038078    -1.4027609180     0.2430194864
   32      O      -2.2879544411     2.3492864110     0.2339403736
   33      C      -5.1747562481     3.7617020822    -0.5868562093
   34      C      -4.1474627540    -0.7889919885     1.1684233193
   35      C      -4.0878570929    -2.2905283643     0.6834183154
   36      C      -2.6042417945    -2.3824641364     0.1655704237
   37      C      -2.0822701878    -0.9212975405     0.4612987765
   38      O      -2.7876865467    -0.5438237291     1.7029462619
   39      H      -4.9101365971    -0.2318364013    -0.8674406967
   40      H      -2.6912655909    -0.3848831850    -1.6363277367
   41      H      -4.3664888984     4.2667415735    -0.0188161124
   42      H      -4.9118711308    -0.5571588068     1.9351036672
   43      H      -4.2635726871    -2.9759918118     1.5276116198
   44      H      -4.8283465622    -2.5036286632    -0.1042061524
   45      H      -2.0216461262    -3.1206135249     0.7398260995
   46      H      -2.5420095088    -2.6414571842    -0.9036705904
   47      H      -0.9797653379    -0.8008161988     0.5786029109
   48      H      -6.1082945324     3.8086133610     0.0102919328
   49      H      -5.3252750931     4.2772706663    -1.5532775341
   50      H       1.7966179152    -3.7121392913    -1.1549069428
   51      H       1.0702363295    -3.2843485570     0.4464249774
   52      H       2.5873616449    -4.2539104257     0.3815730014
   53      H      -0.1488196572    -1.0543731329    -1.3667303754
   54      H       0.5317579372    -1.0352925777    -3.0457914710
   55      H      -0.0524638806     1.3978471285    -3.2945150765
   56      H      -1.5229996912     0.4078720562    -3.0098342272
 ----------------------------------------------------------------

   11   -1510.2794950826      4.06E-09 Convergence criterion met
 Total energy in the final basis set = -1510.27949508
 Final energy is   -1510.27949508256
 **  OPTIMIZATION CONVERGED  **

                    Orbital Energies (a.u.)
 --------------------------------------------------------------

 Alpha MOs
 -- Occupied --
-18.948 -18.939 -18.936 -18.915 -18.891 -18.884 -18.882 -18.879
-18.878 -18.859 -10.115 -10.103 -10.102 -10.087 -10.086 -10.085
-10.069 -10.064 -10.061 -10.051 -10.050 -10.043 -10.043 -10.041
-10.035 -10.029 -10.023 -10.022 -10.017 -10.015  -1.026  -1.014
 -1.008  -0.994  -0.973  -0.962  -0.950  -0.941  -0.937  -0.921
 -0.767  -0.757  -0.732  -0.722  -0.718  -0.705  -0.699  -0.665
 -0.651  -0.622  -0.599  -0.590  -0.551  -0.542  -0.539  -0.534
 -0.521  -0.505  -0.494  -0.480  -0.475  -0.456  -0.456  -0.443
 -0.436  -0.427  -0.424  -0.424  -0.417  -0.412  -0.407  -0.399
 -0.397  -0.392  -0.385  -0.370  -0.364  -0.361  -0.357  -0.350
 -0.347  -0.342  -0.335  -0.327  -0.326  -0.318  -0.315  -0.312
 -0.308  -0.306  -0.302  -0.300  -0.298  -0.296  -0.281  -0.274
 -0.268  -0.259  -0.254  -0.246  -0.240  -0.237  -0.225  -0.195
 -0.181  -0.170  -0.166  -0.161  -0.156  -0.150  -0.147  -0.138
 -0.136

          Ground-State Mulliken Net Atomic Charges

     Atom                 Charge (a.u.)
  ----------------------------------------
      1 O                    -0.213095
      2 C                     0.216394
      3 C                    -0.079373
      4 C                    -0.086095
      5 C                     0.214241
      6 O                    -0.170876
      7 C                    -0.048448
      8 C                    -0.053673
      9 O                    -0.163906
     10 C                     0.228288
     11 C                    -0.076626
     12 C                    -0.079139
     13 C                     0.210963
     14 O                    -0.206335
     15 O                    -0.180196
     16 O                    -0.168728
     17 O                    -0.223137
     18 C                    -0.129214
     19 C                     0.025053
     20 C                    -0.144182
     21 C                    -0.143727
     22 C                     0.026004
     23 O                    -0.186512
     24 H                     0.089698
     25 H                     0.088003
     26 H                     0.091892
     27 H                     0.078429
     28 H                     0.074990
     29 H                     0.078451
     30 H                     0.075115
     31 H                     0.083236
     32 O                    -0.194007
     33 C                    -0.128973
     34 C                     0.025027
     35 C                    -0.144488
     36 C                    -0.146238
     37 C                     0.005001
     38 O                    -0.186424
     39 H                     0.080150
     40 H                     0.072423
     41 H                     0.092824
     42 H                     0.089326
     43 H                     0.077481
     44 H                     0.070707
     45 H                     0.075337
     46 H                     0.065562
     47 H                     0.108567
     48 H                     0.086809
     49 H                     0.085059
     50 H                     0.089373
     51 H                     0.089106
     52 H                     0.092836
     53 H                     0.095554
     54 H                     0.091163
     55 H                     0.094990
     56 H                     0.085339
  ----------------------------------------
  Sum of atomic charges =    -0.000000

                    Cartesian Multipole Moments
 -----------------------------------------------------------------
    Charge (ESU x 10^10)
                -0.0000
    Dipole Moment (Debye)
         X       1.2691      Y      -1.6767      Z      -4.2079
       Tot       4.7041
    Quadrupole Moments (Debye-Ang)
        XX    -152.4214     XY      10.9688     YY    -156.3325
        XZ      13.0246     YZ       0.8662     ZZ    -164.6148

 Total job time:  90.65s(wall), 4319.79s(cpu)
        *  Thank you very much for using Q-Chem.  Have a nice day.  *
