 Q-Chem 5.0, Q-Chem, Inc., Pleasanton, CA (2017)
 Q-Chem 5.0.1 for Intel X86 EM64T Linux

User input:
--------------------------------------------------------------
$molecule
0  1
O -3.94934 -3.66094 2.70899
C -3.26408 -4.56952 2.26188
C -3.36658 -6.02376 2.66595
C -2.09215 -6.69516 3.20345
C -0.90361 -5.79095 3.44399
O 0.17112 -6.23721 2.729
C 0.91828 -7.25123 3.40928
C 2.20914 -6.66495 3.97149
O 3.2322 -6.67773 2.96348
C 4.05477 -5.59957 2.95381
C 5.34863 -5.85324 2.21745
C 6.45511 -6.50587 3.0589
C 6.01081 -7.12508 4.36882
O 6.64151 -7.09769 5.41573
O -2.38164 -4.29426 1.26577
O 5.00219 -8.035 4.2961
O 3.70663 -4.47962 3.30479
C 4.65055 -8.89528 5.31855
C 5.25712 -6.83362 1.03171
C 6.40929 -6.57809 0.06031
C 7.58119 -7.10292 0.86637
C 6.84823 -7.64757 2.09751
O 5.60746 -8.07666 1.58629
H 5.68801 -4.86178 1.83902
H 7.31135 -5.82923 3.27572
H 4.28232 -6.78644 0.49894
H 6.25416 -7.24668 -0.81672
H 6.5079 -5.5289 -0.29232
H 8.05341 -7.93417 0.29697
H 8.34737 -6.34619 1.14169
H 7.46161 -8.42634 2.60279
O -0.8977 -4.76358 4.10534
C -2.16194 -3.03542 0.74759
C -4.32296 -6.24403 3.85459
C -4.79881 -7.69737 3.88693
C -3.54869 -8.39208 4.38181
C -2.61653 -7.19233 4.56553
O -3.48248 -6.16241 4.97809
H -3.75037 -6.55598 1.76683
H -1.78228 -7.55324 2.56276
H -1.79615 -2.3529 1.54428
H -5.20105 -5.56216 3.84598
H -5.58513 -7.78721 4.67014
H -5.19738 -8.06697 2.91762
H -3.76737 -8.84171 5.37631
H -3.13159 -9.16669 3.70267
H -1.7998 -7.4506 5.27421
H -3.09969 -2.63287 0.30835
H -1.39274 -3.0994 -0.04909
H 3.80096 -9.52715 4.98749
H 4.34347 -8.31925 6.21767
H 5.50605 -9.55706 5.57206
H 2.03871 -5.69892 4.49767
H 2.53823 -7.38192 4.7462
H 1.1008 -8.13034 2.75536
H 0.35314 -7.63625 4.29177
$end

$opt
CONSTRAINT
tors           1           2           3           4    -123.158
tors           3           4           5           6    -123.158
tors           4           5           6           7     -85.263
tors           5           6           7           8    -104.211
tors           6           7           8           9     -85.263
tors           7           8           9          10    +142.105
tors           8           9          10          11    +161.053
tors           9          10          11          12     -85.263
tors          11          12          13          14    -142.105
ENDCONSTRAINT
$end

$rem
JOBTYPE                   OPT
METHOD                    B3LYP
DFT_D                     d3_op
BASIS                     STO-3G
GEOM_OPT_MAX_CYCLES       100
GEOM_OPT_TOL_GRADIENT     300
GEOM_OPT_TOL_DISPLACEMENT 1200
GEOM_OPT_TOL_ENERGY       100
SYMMETRY                  False
THRESH                    12
SCF_CONVERGENCE           8
MAX_SUB_FILE_NUM          128
MEM_STATIC                400
MEM_TOTAL                 4000
$end
--------------------------------------------------------------

   16   -1510.1202573281      2.42E-09 Convergence criterion met
 Total energy in the final basis set = -1510.12025733
   13   -1510.1912672410      8.74E-09 Convergence criterion met
 Total energy in the final basis set = -1510.19126724
   14   -1510.2288037268      6.60E-09 Convergence criterion met
 Total energy in the final basis set = -1510.22880373
   14   -1510.2450744373      7.41E-09 Convergence criterion met
 Total energy in the final basis set = -1510.24507444
   14   -1510.2502431594      5.62E-09 Convergence criterion met
 Total energy in the final basis set = -1510.25024316
   14   -1510.2526294095      3.27E-09 Convergence criterion met
 Total energy in the final basis set = -1510.25262941
   12   -1510.2537713920      8.44E-09 Convergence criterion met
 Total energy in the final basis set = -1510.25377139
   13   -1510.2542452953      3.77E-09 Convergence criterion met
   11   -1510.2558231235      3.58E-09 Convergence criterion met
 Total energy in the final basis set = -1510.25582312
   11   -1510.2558329614      2.94E-09 Convergence criterion met
 Total energy in the final basis set = -1510.25583296
   11   -1510.2558427426      3.05E-09 Convergence criterion met
 Total energy in the final basis set = -1510.25584274
   10   -1510.2558444764      7.05E-09 Convergence criterion met
 Total energy in the final basis set = -1510.25584448
   10   -1510.2558462293      3.66E-09 Convergence criterion met
 Total energy in the final basis set = -1510.25584623
    9   -1510.2558475612      2.56E-09 Convergence criterion met
 Total energy in the final basis set = -1510.25584756

             Standard Nuclear Orientation (Angstroms)
    I     Atom           X                Y                Z
 ----------------------------------------------------------------
    1      O      -5.6121134076     1.5110199570     1.4534796305
    2      C      -4.8862651577     1.4160453911     0.4423304098
    3      C      -4.9496875707     0.3295565415    -0.6899063005
    4      C      -3.5826056079    -0.4533682787    -0.8897295229
    5      C      -2.4643827163    -0.0122328209     0.1353500684
    6      O      -1.2446090730     0.4584015269    -0.5101641046
    7      C      -0.3745482227    -0.6980599799    -0.8243337783
    8      C       0.8281095481    -0.7914405131     0.1866862631
    9      O       1.9136813920     0.0845768099    -0.3038134056
   10      C       2.5739736154     0.7452027875     0.7827739231
   11      C       3.9800080642     1.2594236484     0.2984945728
   12      C       5.1630171995     0.2003773607     0.3744816188
   13      C       4.9389721984    -1.1171613503     1.1863825760
   14      O       5.8023509821    -1.6843856322     1.8930625100
   15      O      -3.8323445001     2.3273245668     0.1076189248
   16      O       3.6204128792    -1.6353509509     0.9911240190
   17      O       2.0994104521     0.8609220603     1.9344912439
   18      C       3.4489233768    -2.8723745849     1.7890114654
   19      C       3.9614805843     1.5419236005    -1.2650495543
   20      C       5.2732886349     2.3249120361    -1.6731645561
   21      C       6.3365814998     1.1648972449    -1.6854564690
   22      C       5.4574911222    -0.0439364177    -1.1782370975
   23      O       4.1586071017     0.1898420599    -1.8402911839
   24      H       4.2339149829     2.1596014238     0.8863613231
   25      H       6.0453169009     0.6755495962     0.8401479054
   26      H       3.0162783966     1.9832111504    -1.6349094288
   27      H       5.1587609094     2.7813369756    -2.6689254644
   28      H       5.5213374594     3.1166915643    -0.9483808955
   29      H       6.7029210880     0.9658639737    -2.7054983057
   30      H       7.2007677632     1.3653235523    -1.0321988226
   31      H       5.8462194270    -1.0513379389    -1.4237542904
   32      O      -2.6150916307     0.0420961642     1.3733764687
   33      C      -3.6373294337     3.3039583791     1.2030290226
   34      C      -5.9337384040    -0.8515562981    -0.3091067669
   35      C      -6.2705988359    -1.6616092928    -1.6209223571
   36      C      -4.9172723512    -2.4307405747    -1.8570819012
   37      C      -4.0687149729    -1.9451727185    -0.6153602799
   38      O      -5.0725350021    -1.7825437650     0.4581868283
   39      H      -5.2510142928     0.8249897598    -1.6311253963
   40      H      -3.1899101867    -0.3288176009    -1.9135968974
   41      H      -3.3095736686     2.7976384399     2.1341858021
   42      H      -6.7998616939    -0.5343486786     0.3036349915
   43      H      -7.1030986484    -2.3595697619    -1.4383709781
   44      H      -6.5391691097    -1.0023711459    -2.4617743738
   45      H      -5.0609250928    -3.5223502035    -1.8214870039
   46      H      -4.4397076974    -2.1679354584    -2.8145224803
   47      H      -3.2694940284    -2.6405912054    -0.2924188609
   48      H      -4.5655956686     3.8728486635     1.4146046117
   49      H      -2.8458319322     3.9948847710     0.8594394938
   50      H       2.4329479289    -3.2441705551     1.5633399579
   51      H       3.5348495893    -2.6699831237     2.8760550982
   52      H       4.1976899557    -3.6420404592     1.5123431119
   53      H       0.5177408930    -0.4825546576     1.2089020105
   54      H       1.2110061806    -1.8343690849     0.2169217161
   55      H       0.0439148985    -0.5354707419    -1.8420950865
   56      H      -0.9277577516    -1.6612879762    -0.8300142420
 ----------------------------------------------------------------

    9   -1510.2558482963      6.52E-09 Convergence criterion met
 Total energy in the final basis set = -1510.25584830
 Final energy is   -1510.25584829630
 **  OPTIMIZATION CONVERGED  **

                    Orbital Energies (a.u.)
 --------------------------------------------------------------

 Alpha MOs
 -- Occupied --
-18.940 -18.931 -18.922 -18.899 -18.898 -18.890 -18.889 -18.876
-18.875 -18.867 -10.106 -10.101 -10.098 -10.095 -10.073 -10.068
-10.065 -10.062 -10.062 -10.059 -10.059 -10.059 -10.039 -10.039
-10.037 -10.036 -10.024 -10.022 -10.021 -10.020  -1.016  -1.011
 -1.003  -0.999  -0.972  -0.970  -0.938  -0.937  -0.934  -0.926
 -0.764  -0.762  -0.725  -0.723  -0.711  -0.706  -0.695  -0.665
 -0.658  -0.609  -0.600  -0.580  -0.548  -0.545  -0.540  -0.537
 -0.516  -0.512  -0.488  -0.474  -0.470  -0.458  -0.452  -0.437
 -0.433  -0.433  -0.416  -0.414  -0.414  -0.410  -0.407  -0.402
 -0.394  -0.383  -0.373  -0.371  -0.359  -0.358  -0.356  -0.349
 -0.343  -0.339  -0.338  -0.334  -0.330  -0.328  -0.322  -0.312
 -0.308  -0.308  -0.306  -0.300  -0.292  -0.290  -0.286  -0.278
 -0.275  -0.252  -0.251  -0.240  -0.240  -0.234  -0.234  -0.181
 -0.174  -0.170  -0.159  -0.156  -0.151  -0.150  -0.147  -0.144
 -0.142

          Ground-State Mulliken Net Atomic Charges

     Atom                 Charge (a.u.)
  ----------------------------------------
      1 O                    -0.206548
      2 C                     0.213093
      3 C                    -0.078564
      4 C                    -0.083075
      5 C                     0.222322
      6 O                    -0.194456
      7 C                    -0.048010
      8 C                    -0.049551
      9 O                    -0.169893
     10 C                     0.215407
     11 C                    -0.078238
     12 C                    -0.080587
     13 C                     0.206981
     14 O                    -0.213765
     15 O                    -0.172748
     16 O                    -0.168504
     17 O                    -0.215329
     18 C                    -0.127182
     19 C                     0.027001
     20 C                    -0.145517
     21 C                    -0.142495
     22 C                     0.026194
     23 O                    -0.184753
     24 H                     0.084146
     25 H                     0.086143
     26 H                     0.087097
     27 H                     0.077719
     28 H                     0.073749
     29 H                     0.077727
     30 H                     0.074437
     31 H                     0.082490
     32 O                    -0.180830
     33 C                    -0.128488
     34 C                     0.024536
     35 C                    -0.143734
     36 C                    -0.144138
     37 C                     0.024108
     38 O                    -0.185749
     39 H                     0.085216
     40 H                     0.082724
     41 H                     0.094620
     42 H                     0.091715
     43 H                     0.078872
     44 H                     0.073760
     45 H                     0.078271
     46 H                     0.073301
     47 H                     0.077913
     48 H                     0.088689
     49 H                     0.091696
     50 H                     0.088010
     51 H                     0.092419
     52 H                     0.091160
     53 H                     0.102624
     54 H                     0.081474
     55 H                     0.090731
     56 H                     0.075818
  ----------------------------------------
  Sum of atomic charges =     0.000000

                    Cartesian Multipole Moments
 -----------------------------------------------------------------
    Charge (ESU x 10^10)
                 0.0000
    Dipole Moment (Debye)
         X       0.6591      Y      -0.4824      Z      -3.6349
       Tot       3.7255
    Quadrupole Moments (Debye-Ang)
        XX    -158.3307     XY       5.8891     YY    -148.2177
        XZ       9.1548     YZ       1.3071     ZZ    -166.6323

 Total job time:  87.97s(wall), 4182.34s(cpu)
        *  Thank you very much for using Q-Chem.  Have a nice day.  *
