 Q-Chem 5.0, Q-Chem, Inc., Pleasanton, CA (2017)
 Q-Chem 5.0.1 for Intel X86 EM64T Linux

User input:
--------------------------------------------------------------
$molecule
0  1
O -3.3376070015 -2.443792293 -1.0383868653
C -2.3029380177 -1.7469680694 -1.0037474968
C -1.1250993709 -1.7732891426 0.0197009255
C -1.1698653272 -0.5618149453 1.0408797123
C -2.5213871204 0.207374085 1.0107715486
O -2.53393357 1.6720316385 1.1560697434
C -2.318243196 2.3326891673 -0.1387714217
C -1.0823825388 2.4098197255 -1.1530266394
O 0.3082937974 2.7138658763 -0.679847196
C 1.229109878 2.2727429458 -1.7152857808
C 2.3768097687 1.2340690268 -1.4099651611
C 2.7367107019 0.7795034427 0.0642529863
C 1.9549953221 1.5292437059 1.1936070095
O 0.8275900195 1.2991514175 1.6865325477
O -2.0537344368 -0.6536077008 -1.9164681675
O 2.7564555436 2.6405721792 1.5911561738
O 1.093912626 2.6660181219 -2.8986668377
C 2.0169203031 3.4703806335 2.5736236586
C 2.0229710869 -0.1715144616 -2.0765572443
C 3.3710345966 -0.9625847617 -2.3047347214
C 3.7118654051 -1.4120970813 -0.8343547971
C 2.5069406929 -0.7824330113 -0.0314198679
O 1.3795586706 -0.9138727529 -0.9751916642
H 3.2782535547 1.6503662121 -1.8954714884
H 3.8043094833 0.9941725284 0.250924741
H 1.3474555746 -0.111363104 -2.9525208767
H 3.2028820289 -1.8284387449 -2.964724459
H 4.1520834432 -0.3251649248 -2.7487457784
H 3.6982717681 -2.509412572 -0.736618063
H 4.6872730954 -1.0380914703 -0.4852719257
H 2.2717326009 -1.2748967359 0.928751306
O -3.6306962257 -0.3716865919 0.997184238
C -3.198978121 -0.5022713007 -2.8415536611
C -1.1926986459 -3.0171760519 0.9937098395
C 0.2318990513 -3.2033978654 1.6522288797
C 0.2537637553 -1.9947310799 2.6615877975
C -1.1727166704 -1.3710497158 2.4226138402
O -2.0235520836 -2.5434781203 2.1259170079
H -0.1658053874 -1.7112648254 -0.535933388
H -0.3040173486 0.1309764875 0.9945016843
H -4.1475014068 -0.333068798 -2.2913449149
H -1.6357494357 -3.9286052066 0.5477843702
H 0.2865774283 -4.1674740259 2.1829415588
H 1.0424337101 -3.1645383072 0.9075703389
H 0.3556499057 -2.3402159875 3.7028287587
H 1.051211213 -1.2637363093 2.4555535001
H -1.582846902 -0.7995840334 3.2780275336
H -3.3268375774 -1.394545303 -3.4881472697
H -2.974092711 0.3772728307 -3.4727881744
H 2.636624466 4.3705329155 2.7394921608
H 1.8771370162 2.9322863469 3.5334112369
H 1.0210140069 3.7622506134 2.1830465475
H -1.0665673252 1.4319406286 -1.6879340617
H -1.4048525728 3.188584626 -1.8811879396
H -2.5544321313 3.3898249789 0.1143043308
H -3.1190400342 1.9992767616 -0.8429346024
$end

$rem
JOBTYPE                   OPT
METHOD                    B3LYP
DFT_D                     d3_op
BASIS                     STO-3G
GEOM_OPT_MAX_CYCLES       100
GEOM_OPT_TOL_GRADIENT     300
GEOM_OPT_TOL_DISPLACEMENT 1200
GEOM_OPT_TOL_ENERGY       100
SYMMETRY                  False
THRESH                    12
SCF_CONVERGENCE           8
MAX_SUB_FILE_NUM          128
MEM_STATIC                400
MEM_TOTAL                 4000
$end
--------------------------------------------------------------

   16   -1510.2342290021      5.12E-09 Convergence criterion met
 Total energy in the final basis set = -1510.23422900
   15   -1510.2294948826      3.89E-09 Convergence criterion met
 Total energy in the final basis set = -1510.22949488
   14   -1510.2470519494      6.40E-09 Convergence criterion met
 Total energy in the final basis set = -1510.24705195
   14   -1510.2631849268      2.62E-09 Convergence criterion met
 Total energy in the final basis set = -1510.26318493
   15   -1510.2681011834      2.04E-09 Convergence criterion met
 Total energy in the final basis set = -1510.26810118
   14   -1510.2734140615      4.49E-09 Convergence criterion met
 Total energy in the final basis set = -1510.27341406
   14   -1510.2736959103      2.95E-09 Convergence criterion met
 Total energy in the final basis set = -1510.27369591
   13   -1510.2803611300      7.31E-09 Convergence criterion met
   12   -1510.3022939618      8.77E-09 Convergence criterion met
 Total energy in the final basis set = -1510.30229396
   12   -1510.3024097903      6.77E-09 Convergence criterion met
 Total energy in the final basis set = -1510.30240979
   11   -1510.3024015798      5.98E-09 Convergence criterion met
 Total energy in the final basis set = -1510.30240158
   11   -1510.3024088893      4.65E-09 Convergence criterion met
 Total energy in the final basis set = -1510.30240889
   10   -1510.3024137944      6.72E-09 Convergence criterion met
 Total energy in the final basis set = -1510.30241379
    9   -1510.3024113032      5.07E-09 Convergence criterion met
 Total energy in the final basis set = -1510.30241130

             Standard Nuclear Orientation (Angstroms)
    I     Atom           X                Y                Z
 ----------------------------------------------------------------
    1      O      -3.3384114907     0.0778827838    -1.7702334581
    2      C      -2.1781562149    -0.0260762428    -1.3213361771
    3      C      -1.6267726839    -1.0749785646    -0.2942333468
    4      C      -1.4091185030    -0.5046916062     1.1700959838
    5      C      -1.5431867707     1.0408975449     1.2240870549
    6      O      -0.5679119299     1.5787413434     2.1498041132
    7      C      -0.2888387043     2.9883031910     1.7924778432
    8      C       0.3706123473     3.0533701012     0.3613745245
    9      O       1.0593473463     1.7490744825     0.1505631611
   10      C       1.5248551077     1.6681055996    -1.1960935474
   11      C       2.3176321106     0.3457325203    -1.5024363137
   12      C       2.8637202923    -0.5812302672    -0.3329127405
   13      C       2.2777006158    -0.3253442786     1.1002491650
   14      O       1.3874552553    -1.0066065611     1.6620034256
   15      O      -1.0776301981     0.7867031070    -1.7811820542
   16      O       2.9742075766     0.7385599791     1.7385781138
   17      O       1.3384504690     2.5721980482    -2.0433287686
   18      C       2.3140618458     1.0258003229     3.0386255456
   19      C       1.4533066826    -0.7044902867    -2.3442651998
   20      C       2.4519918212    -1.5368675410    -3.2347989487
   21      C       3.1637317025    -2.4165666399    -2.1370490385
   22      C       2.3685532016    -2.0003474403    -0.8359647603
   23      O       1.0111705951    -1.7020958502    -1.3472660094
   24      H       3.1715687173     0.6711092502    -2.1238967387
   25      H       3.9650474024    -0.5123007559    -0.2761887870
   26      H       0.5705353720    -0.2610919506    -2.8460608247
   27      H       1.8965540362    -2.1623311481    -3.9520595097
   28      H       3.1535183679    -0.8948709872    -3.7905328996
   29      H       3.0409038006    -3.4927636908    -2.3367724304
   30      H       4.2392727116    -2.1943867806    -2.0480762188
   31      H       2.3161383611    -2.7667889332    -0.0386178611
   32      O      -2.2934450655     1.7702162776     0.5388626292
   33      C      -1.5647362523     1.8307264749    -2.7087571550
   34      C      -2.7127398255    -2.1877152683    -0.0137330653
   35      C      -2.0265649768    -3.3740165819     0.7729727469
   36      C      -1.9246639399    -2.7668032594     2.2214737829
   37      C      -2.5103683462    -1.3193971975     1.9803392686
   38      O      -3.5915112168    -1.5496638922     0.9982630229
   39      H      -0.6571524217    -1.4677985885    -0.6812054096
   40      H      -0.3852871856    -0.7570667708     1.5186328759
   41      H      -2.3622849562     2.4431931530    -2.2421431073
   42      H      -3.3053946859    -2.4822811666    -0.9011353325
   43      H      -2.6596735326    -4.2752179349     0.7539678799
   44      H      -1.0397439230    -3.6221541089     0.3510852910
   45      H      -2.5528000585    -3.3219563393     2.9366573055
   46      H      -0.8905911920    -2.7378449956     2.6003369380
   47      H      -2.9029816146    -0.8104137980     2.8820551736
   48      H      -1.9588216519     1.3945875264    -3.6494772923
   49      H      -0.6794505484     2.4604084208    -2.9247978353
   50      H       2.7439952202     1.9798222673     3.3939245898
   51      H       2.5269255300     0.2278534892     3.7788198188
   52      H       1.2124422237     1.1153731221     2.8984911300
   53      H      -0.4058025979     3.1974645912    -0.4174579476
   54      H       1.0947411054     3.8939977687     0.2986170995
   55      H       0.4102461953     3.3580354405     2.5669935665
   56      H      -1.2109638290     3.6078655850     1.8021537657
 ----------------------------------------------------------------

    9   -1510.3024116428      4.85E-09 Convergence criterion met
 Total energy in the final basis set = -1510.30241164
 Final energy is   -1510.30241164284
 **  OPTIMIZATION CONVERGED  **

                    Orbital Energies (a.u.)
 --------------------------------------------------------------

 Alpha MOs
 -- Occupied --
-18.944 -18.939 -18.933 -18.912 -18.907 -18.878 -18.878 -18.875
-18.870 -18.856 -10.108 -10.107 -10.097 -10.080 -10.079 -10.077
-10.071 -10.066 -10.054 -10.047 -10.046 -10.045 -10.045 -10.040
-10.029 -10.027 -10.009 -10.005 -10.004 -10.003  -1.024  -1.014
 -1.008  -0.991  -0.985  -0.953  -0.944  -0.938  -0.933  -0.917
 -0.771  -0.746  -0.731  -0.719  -0.710  -0.702  -0.686  -0.662
 -0.648  -0.616  -0.600  -0.574  -0.551  -0.546  -0.532  -0.523
 -0.520  -0.497  -0.491  -0.473  -0.465  -0.452  -0.451  -0.441
 -0.439  -0.433  -0.419  -0.415  -0.413  -0.407  -0.400  -0.397
 -0.388  -0.376  -0.374  -0.364  -0.360  -0.357  -0.353  -0.345
 -0.343  -0.338  -0.333  -0.331  -0.329  -0.319  -0.316  -0.315
 -0.310  -0.304  -0.298  -0.296  -0.289  -0.285  -0.276  -0.271
 -0.264  -0.258  -0.255  -0.243  -0.238  -0.234  -0.216  -0.187
 -0.178  -0.173  -0.162  -0.160  -0.159  -0.155  -0.152  -0.133
 -0.128

          Ground-State Mulliken Net Atomic Charges

     Atom                 Charge (a.u.)
  ----------------------------------------
      1 O                    -0.213226
      2 C                     0.210226
      3 C                    -0.098382
      4 C                    -0.097178
      5 C                     0.213452
      6 O                    -0.173486
      7 C                    -0.048433
      8 C                    -0.050522
      9 O                    -0.168443
     10 C                     0.217965
     11 C                    -0.078922
     12 C                    -0.079800
     13 C                     0.224733
     14 O                    -0.220877
     15 O                    -0.186917
     16 O                    -0.166430
     17 O                    -0.220927
     18 C                    -0.139161
     19 C                     0.026646
     20 C                    -0.142705
     21 C                    -0.144684
     22 C                     0.028229
     23 O                    -0.188231
     24 H                     0.086819
     25 H                     0.086845
     26 H                     0.099648
     27 H                     0.080220
     28 H                     0.076220
     29 H                     0.080038
     30 H                     0.075097
     31 H                     0.089301
     32 O                    -0.209890
     33 C                    -0.137011
     34 C                     0.023945
     35 C                    -0.144311
     36 C                    -0.142707
     37 C                     0.024839
     38 O                    -0.190400
     39 H                     0.111860
     40 H                     0.111803
     41 H                     0.090263
     42 H                     0.083198
     43 H                     0.073096
     44 H                     0.074691
     45 H                     0.073058
     46 H                     0.077436
     47 H                     0.078021
     48 H                     0.082028
     49 H                     0.094323
     50 H                     0.082571
     51 H                     0.082859
     52 H                     0.111107
     53 H                     0.100870
     54 H                     0.087800
     55 H                     0.088703
     56 H                     0.094733
  ----------------------------------------
  Sum of atomic charges =    -0.000000

                    Cartesian Multipole Moments
 -----------------------------------------------------------------
    Charge (ESU x 10^10)
                -0.0000
    Dipole Moment (Debye)
         X       5.0163      Y       0.2017      Z       0.4776
       Tot       5.0430
    Quadrupole Moments (Debye-Ang)
        XX    -169.5406     XY      -3.4183     YY    -151.2910
        XZ      -3.4837     YZ       7.0667     ZZ    -153.3753

 Total job time:  128.55s(wall), 6132.84s(cpu)
        *  Thank you very much for using Q-Chem.  Have a nice day.  *
