 Q-Chem 5.0, Q-Chem, Inc., Pleasanton, CA (2017)
 Q-Chem 5.0.1 for Intel X86 EM64T Linux

User input:
--------------------------------------------------------------
$molecule
0  1
O 2.5940678998 -1.7431124034 0.264823872
C 3.5566699562 -0.9602047886 0.1122537383
C 3.7900059335 0.4305269265 0.7970815217
C 3.0650035936 1.6207345684 0.0256539024
C 2.6988540218 1.2608809645 -1.468030865
O 1.2987696411 1.3895674396 -1.8201042045
C 0.7825615277 0.102298291 -2.3428825607
C -0.1188664747 -0.6438648605 -1.2626313449
O 0.0270501076 0.0777715845 0.0163145864
C -1.2252415563 0.5362826744 0.5583409984
C -2.2774081671 -0.5625590965 1.0393315346
C -3.762377701 -0.1528216155 0.7054950771
C -3.7869509861 0.6658403109 -0.6377902274
O -2.7912679922 1.101638031 -1.2624809544
O 4.6686409244 -1.2245214054 -0.7529649906
O -5.1362247121 0.8538441426 -1.0559884039
O -1.2796427771 1.7097013024 0.9925949377
C -5.174032827 1.6079438428 -2.331832654
C -2.2524222897 -2.0730616084 0.5538905487
C -2.8739103461 -2.935205777 1.7216911286
C -4.3832590416 -2.4962161813 1.6447111841
C -4.3747032981 -1.5770291839 0.3610506388
O -3.3002474651 -2.1472518913 -0.4943988676
H -2.1478823911 -0.5545048312 2.1381487407
H -4.2817517924 0.3889443164 1.5151321255
H -1.2833596977 -2.4434260912 0.1746854844
H -2.7579630613 -4.0091114125 1.5040121955
H -2.4115771891 -2.7184253033 2.6976343692
H -5.0532955112 -3.3586820805 1.5017882504
H -4.7089675945 -1.9421638054 2.5398175097
H -5.3302811834 -1.5291287781 -0.1963172918
O 3.5472516568 0.8487075065 -2.2914260363
C 4.4447756491 -2.487598561 -1.4922488496
C 3.0430085082 0.5078666707 2.1901932839
C 3.4422263704 1.8552021929 2.9199153233
C 2.5402174996 2.899107398 2.1585054261
C 1.8982434867 1.981209819 1.0450200325
O 1.6392999747 0.7248563017 1.7872123926
H 4.877087864 0.6094302183 0.8713486121
H 3.7719536608 2.4701998235 -0.0350470018
H 3.5621126045 -2.4145601461 -2.1603773161
H 3.133499795 -0.408799538 2.8045441696
H 3.1897246617 1.8034909939 3.9907330035
H 4.5179873726 2.0744684894 2.8230796127
H 1.7539717129 3.3029574542 2.8161436837
H 3.1178632865 3.7380098329 1.7387551617
H 0.9547872862 2.3401169988 0.5871738172
H 4.2958979992 -3.3458633878 -0.8053335364
H 5.3527534576 -2.6511061694 -2.1011768151
H -6.2443367119 1.7396574718 -2.5750544543
H -4.6729037698 1.0487541401 -3.1481989613
H -4.6878529998 2.5995875085 -2.2320846634
H -1.1724310353 -0.6745470993 -1.607154848
H 0.2584030231 -1.6824065435 -1.138770621
H 1.6182408163 -0.5504937689 -2.6720950737
H 0.1611851485 0.3401929893 -3.2323205452
$end

$rem
JOBTYPE                   OPT
METHOD                    B3LYP
DFT_D                     d3_op
BASIS                     STO-3G
GEOM_OPT_MAX_CYCLES       100
GEOM_OPT_TOL_GRADIENT     300
GEOM_OPT_TOL_DISPLACEMENT 1200
GEOM_OPT_TOL_ENERGY       100
SYMMETRY                  False
THRESH                    12
SCF_CONVERGENCE           8
MAX_SUB_FILE_NUM          128
MEM_STATIC                400
MEM_TOTAL                 4000
$end
--------------------------------------------------------------

   16   -1510.2392575186      6.30E-09 Convergence criterion met
 Total energy in the final basis set = -1510.23925752
   14   -1510.2446297760      9.47E-09 Convergence criterion met
 Total energy in the final basis set = -1510.24462978
   14   -1510.2498254277      5.43E-09 Convergence criterion met
 Total energy in the final basis set = -1510.24982543
   14   -1510.2536682732      7.30E-09 Convergence criterion met
 Total energy in the final basis set = -1510.25366827
   14   -1510.2568247343      3.28E-09 Convergence criterion met
 Total energy in the final basis set = -1510.25682473
   13   -1510.2593943428      6.60E-09 Convergence criterion met
 Total energy in the final basis set = -1510.25939434
   14   -1510.2621822733      2.82E-09 Convergence criterion met
 Total energy in the final basis set = -1510.26218227
   14   -1510.2644667009      1.81E-09 Convergence criterion met
   12   -1510.2840702242      6.87E-09 Convergence criterion met
 Total energy in the final basis set = -1510.28407022
   11   -1510.2841142075      8.27E-09 Convergence criterion met
 Total energy in the final basis set = -1510.28411421
   11   -1510.2841140181      3.60E-09 Convergence criterion met
 Total energy in the final basis set = -1510.28411402
    9   -1510.2841127166      8.44E-09 Convergence criterion met
 Total energy in the final basis set = -1510.28411272
   10   -1510.2841072208      3.98E-09 Convergence criterion met
 Total energy in the final basis set = -1510.28410722
    9   -1510.2841114015      4.21E-09 Convergence criterion met
 Total energy in the final basis set = -1510.28411140

             Standard Nuclear Orientation (Angstroms)
    I     Atom           X                Y                Z
 ----------------------------------------------------------------
    1      O       5.0134446186    -1.6751110002     0.1114427128
    2      C       4.5979357173    -0.6076727698    -0.3853820252
    3      C       4.0873322440     0.6715085501     0.3723772501
    4      C       2.5366297905     0.9456617735     0.1985025499
    5      C       1.8266839598    -0.1239618772    -0.6881023582
    6      O       0.6607804119     0.4744903622    -1.2715684650
    7      C      -0.1668605621    -0.5632336449    -1.9254623681
    8      C      -0.8014556822    -1.5624364450    -0.8615496858
    9      O      -0.3655267019    -1.1654607011     0.4982116766
   10      C      -1.2927159701    -0.4633425346     1.3255079456
   11      C      -2.8526723855    -0.8189102281     1.3546128222
   12      C      -3.7801610709     0.1048908679     0.4649100982
   13      C      -2.9532936357     1.1132323628    -0.3964561492
   14      O      -1.7197854834     1.3150921658    -0.3112603087
   15      O       4.6198541503    -0.3087256568    -1.7924897682
   16      O      -3.8214569516     1.7945353135    -1.2975544019
   17      O      -0.7983267769     0.2563651859     2.2317403026
   18      C      -3.0465878788     2.7576156991    -2.1173887938
   19      C      -3.2889015636    -2.2570848495     0.8475654803
   20      C      -4.7190610772    -2.5785156307     1.4271495327
   21      C      -5.6346440066    -1.6647574342     0.5280879163
   22      C      -4.5633579761    -0.9718613319    -0.3986959502
   23      O      -3.5622000011    -2.0490402177    -0.6014746643
   24      H      -3.1272993460    -0.6990504370     2.4175875970
   25      H      -4.4872322532     0.6849283529     1.0858137410
   26      H      -2.5303997556    -3.0515596821     0.9849095899
   27      H      -4.9575198834    -3.6453679799     1.2910582460
   28      H      -4.7942381731    -2.3329801728     2.4984175153
   29      H      -6.3343940346    -2.2642920509    -0.0758711288
   30      H      -6.2109374180    -0.9298805278     1.1126285863
   31      H      -4.9365329102    -0.5962104771    -1.3714596166
   32      O       2.1850674493    -1.3054640086    -0.8921587126
   33      C       4.9965307047    -1.5201806323    -2.5521980686
   34      C       4.1872431171     0.4801869362     1.9407644860
   35      C       4.0554939206     1.8975818617     2.6226106377
   36      C       2.5148589713     2.1701952444     2.4508496427
   37      C       2.0399603344     0.8545971516     1.7143488222
   38      O       2.9148369423    -0.1932015893     2.2858568643
   39      H       4.6756985663     1.5381342699     0.0206230488
   40      H       2.3346570174     1.9434693853    -0.2284335484
   41      H       4.2298258109    -2.3147462901    -2.4412308380
   42      H       5.0500223202    -0.1337251940     2.2644043654
   43      H       4.3416009375     1.8430318899     3.6850711884
   44      H       4.6818323759     2.6568445644     2.1275846327
   45      H       2.0103852149     2.2641776451     3.4257396651
   46      H       2.3062158941     3.0760414728     1.8593154113
   47      H       0.9580275463     0.5950476435     1.8584912399
   48      H       5.9746597408    -1.9265518059    -2.2228048861
   49      H       5.0600996849    -1.2134567478    -3.6126122278
   50      H      -3.7892937442     3.3069231832    -2.7244479990
   51      H      -2.3324759527     2.2350355597    -2.7863180843
   52      H      -2.4793126360     3.4679519275    -1.4827420304
   53      H      -1.9159180567    -1.6206972615    -0.9589393955
   54      H      -0.3725861882    -2.5727000747    -1.0183470772
   55      H       0.4314202661    -1.1395580145    -2.6633881517
   56      H      -0.9597328860    -0.0034672924    -2.4587474872
 ----------------------------------------------------------------

    9   -1510.2841082882      5.34E-09 Convergence criterion met
 Total energy in the final basis set = -1510.28410829
 Final energy is   -1510.28410828819
 **  OPTIMIZATION CONVERGED  **

                    Orbital Energies (a.u.)
 --------------------------------------------------------------

 Alpha MOs
 -- Occupied --
-18.958 -18.926 -18.924 -18.919 -18.906 -18.903 -18.872 -18.858
-18.857 -18.849 -10.120 -10.105 -10.084 -10.083 -10.080 -10.080
-10.075 -10.060 -10.057 -10.048 -10.048 -10.044 -10.039 -10.037
-10.034 -10.018 -10.014 -10.013  -9.998  -9.994  -1.034  -1.007
 -0.999  -0.992  -0.984  -0.958  -0.942  -0.931  -0.919  -0.911
 -0.782  -0.739  -0.738  -0.724  -0.704  -0.693  -0.679  -0.675
 -0.642  -0.613  -0.599  -0.568  -0.566  -0.555  -0.530  -0.521
 -0.511  -0.494  -0.487  -0.475  -0.463  -0.461  -0.449  -0.441
 -0.429  -0.427  -0.422  -0.417  -0.411  -0.409  -0.395  -0.392
 -0.391  -0.389  -0.371  -0.370  -0.361  -0.358  -0.350  -0.346
 -0.341  -0.334  -0.331  -0.330  -0.325  -0.322  -0.318  -0.317
 -0.309  -0.300  -0.293  -0.290  -0.283  -0.279  -0.276  -0.272
 -0.262  -0.260  -0.248  -0.239  -0.232  -0.230  -0.206  -0.198
 -0.176  -0.173  -0.167  -0.156  -0.151  -0.144  -0.136  -0.127
 -0.117

          Ground-State Mulliken Net Atomic Charges

     Atom                 Charge (a.u.)
  ----------------------------------------
      1 O                    -0.215468
      2 C                     0.215068
      3 C                    -0.081080
      4 C                    -0.079555
      5 C                     0.220338
      6 O                    -0.166725
      7 C                    -0.049400
      8 C                    -0.072991
      9 O                    -0.172719
     10 C                     0.224321
     11 C                    -0.085667
     12 C                    -0.081483
     13 C                     0.210693
     14 O                    -0.193880
     15 O                    -0.179004
     16 O                    -0.167356
     17 O                    -0.206302
     18 C                    -0.127964
     19 C                     0.021989
     20 C                    -0.142463
     21 C                    -0.142034
     22 C                     0.025325
     23 O                    -0.186703
     24 H                     0.091064
     25 H                     0.091937
     26 H                     0.092753
     27 H                     0.083130
     28 H                     0.079692
     29 H                     0.082594
     30 H                     0.078439
     31 H                     0.092716
     32 O                    -0.216591
     33 C                    -0.129021
     34 C                     0.024371
     35 C                    -0.145201
     36 C                    -0.144754
     37 C                     0.008750
     38 O                    -0.192406
     39 H                     0.079351
     40 H                     0.082082
     41 H                     0.090238
     42 H                     0.083480
     43 H                     0.072949
     44 H                     0.067780
     45 H                     0.074166
     46 H                     0.067485
     47 H                     0.112016
     48 H                     0.085582
     49 H                     0.082901
     50 H                     0.094784
     51 H                     0.091192
     52 H                     0.096702
     53 H                     0.107337
     54 H                     0.084630
     55 H                     0.085541
     56 H                     0.077370
  ----------------------------------------
  Sum of atomic charges =    -0.000000

                    Cartesian Multipole Moments
 -----------------------------------------------------------------
    Charge (ESU x 10^10)
                -0.0000
    Dipole Moment (Debye)
         X      -6.4008      Y       1.5712      Z      -2.3245
       Tot       6.9887
    Quadrupole Moments (Debye-Ang)
        XX    -145.3296     XY       9.9272     YY    -155.8436
        XZ      -6.3495     YZ      -0.7110     ZZ    -157.1148

 Total job time:  111.02s(wall), 5290.64s(cpu)
        *  Thank you very much for using Q-Chem.  Have a nice day.  *
