 Q-Chem 5.0, Q-Chem, Inc., Pleasanton, CA (2017)
 Q-Chem 5.0.1 for Intel X86 EM64T Linux

User input:
--------------------------------------------------------------
$molecule
0  1
O -3.94934 -3.66094 2.70899
C -3.26408 -4.56952 2.26188
C -3.36658 -6.02376 2.66595
C -2.57813 -6.46456 3.91009
C -1.91791 -5.36653 4.71416
O -2.35444 -5.41196 6.00753
C -2.94325 -4.18324 6.44662
C -4.46222 -4.3139 6.48894
O -4.8649 -5.54591 5.87016
C -5.60355 -6.37519 6.64851
C -6.96166 -5.80881 6.98825
C -7.44797 -6.10449 8.41455
C -6.39164 -6.59415 9.38465
O -5.25229 -6.92164 9.08601
O -2.39957 -4.27808 1.25024
O -6.79108 -6.73417 10.67636
O -5.42759 -7.58505 6.64161
C -5.98022 -7.18572 11.69644
C -7.35566 -4.31674 6.87771
C -8.87991 -4.16022 6.76229
C -9.30711 -4.42847 8.1857
C -7.95272 -4.70615 8.82918
O -7.08899 -3.81473 8.16271
H -7.62016 -6.34026 6.26405
H -8.26332 -6.86148 8.44959
H -6.93443 -3.79271 6.00358
H -9.11837 -3.09921 6.52207
H -9.34015 -4.82042 5.99581
H -9.71548 -3.48646 8.6165
H -10.04377 -5.25023 8.3171
H -8.02682 -4.57777 9.93124
O -1.13247 -4.5358 4.27784
C -2.20124 -3.0147 0.73359
C -4.64327 -6.85653 2.71228
C -4.34895 -8.30392 2.29515
C -3.52944 -8.7871 3.49013
C -3.57288 -7.54324 4.39735
O -4.85307 -7.02924 4.07374
H -2.79682 -6.46948 1.81587
H -1.66329 -7.01959 3.59795
H -1.83001 -2.33145 1.52718
H -5.47715 -6.41264 2.12799
H -5.31676 -8.8545 2.28178
H -3.85582 -8.41897 1.30585
H -4.08601 -9.62021 3.97465
H -2.49654 -9.12303 3.25571
H -3.36188 -7.8352 5.44556
H -3.15008 -2.62029 0.31114
H -1.44451 -3.06732 -0.07575
H -6.55946 -7.19994 12.64236
H -5.1087 -6.50788 11.82051
H -5.62701 -8.21609 11.47748
H -4.74436 -4.27843 7.56527
H -4.8815 -3.43022 5.96742
H -2.70868 -3.33943 5.75273
H -2.52223 -3.87211 7.42671
$end

$opt
CONSTRAINT
tors           1           2           3           4     -85.263
tors           3           4           5           6    +123.158
tors           4           5           6           7    -123.158
tors           5           6           7           8    +104.211
tors           6           7           8           9      -9.474
tors           7           8           9          10    +123.158
tors           8           9          10          11     +66.316
tors           9          10          11          12    -142.105
tors          11          12          13          14      -9.474
ENDCONSTRAINT
$end

$rem
JOBTYPE                   OPT
METHOD                    B3LYP
DFT_D                     d3_op
BASIS                     STO-3G
GEOM_OPT_MAX_CYCLES       100
GEOM_OPT_TOL_GRADIENT     300
GEOM_OPT_TOL_DISPLACEMENT 1200
GEOM_OPT_TOL_ENERGY       100
SYMMETRY                  False
THRESH                    12
SCF_CONVERGENCE           8
MAX_SUB_FILE_NUM          128
MEM_STATIC                400
MEM_TOTAL                 4000
$end
--------------------------------------------------------------

   16   -1510.0704906937      2.64E-09 Convergence criterion met
 Total energy in the final basis set = -1510.07049069
   14   -1510.1456272766      5.98E-09 Convergence criterion met
 Total energy in the final basis set = -1510.14562728
   14   -1510.1875738722      7.46E-09 Convergence criterion met
 Total energy in the final basis set = -1510.18757387
   14   -1510.2122332231      7.58E-09 Convergence criterion met
 Total energy in the final basis set = -1510.21223322
   14   -1510.2232576818      4.33E-09 Convergence criterion met
 Total energy in the final basis set = -1510.22325768
   13   -1510.2289395748      7.92E-09 Convergence criterion met
 Total energy in the final basis set = -1510.22893957
   13   -1510.2323052660      3.73E-09 Convergence criterion met
 Total energy in the final basis set = -1510.23230527
   13   -1510.2342327337      2.92E-09 Convergence criterion met
   11   -1510.2392203942      8.30E-09 Convergence criterion met
 Total energy in the final basis set = -1510.23922039
   11   -1510.2392759869      5.61E-09 Convergence criterion met
 Total energy in the final basis set = -1510.23927599
   11   -1510.2393321024      4.81E-09 Convergence criterion met
 Total energy in the final basis set = -1510.23933210
   11   -1510.2393642352      3.25E-09 Convergence criterion met
 Total energy in the final basis set = -1510.23936424
   11   -1510.2393749929      2.43E-09 Convergence criterion met
 Total energy in the final basis set = -1510.23937499
   10   -1510.2393780884      6.52E-09 Convergence criterion met
 Total energy in the final basis set = -1510.23937809

             Standard Nuclear Orientation (Angstroms)
    I     Atom           X                Y                Z
 ----------------------------------------------------------------
    1      O       2.5940678998    -1.7431124034     0.2648238720
    2      C       3.5566699562    -0.9602047886     0.1122537383
    3      C       3.7900059335     0.4305269265     0.7970815217
    4      C       3.0650035936     1.6207345684     0.0256539024
    5      C       2.6988540218     1.2608809645    -1.4680308650
    6      O       1.2987696411     1.3895674396    -1.8201042045
    7      C       0.7825615277     0.1022982910    -2.3428825607
    8      C      -0.1188664747    -0.6438648605    -1.2626313449
    9      O       0.0270501076     0.0777715845     0.0163145864
   10      C      -1.2252415563     0.5362826744     0.5583409984
   11      C      -2.2774081671    -0.5625590965     1.0393315346
   12      C      -3.7623777010    -0.1528216155     0.7054950771
   13      C      -3.7869509861     0.6658403109    -0.6377902274
   14      O      -2.7912679922     1.1016380310    -1.2624809544
   15      O       4.6686409244    -1.2245214054    -0.7529649906
   16      O      -5.1362247121     0.8538441426    -1.0559884039
   17      O      -1.2796427771     1.7097013024     0.9925949377
   18      C      -5.1740328270     1.6079438428    -2.3318326540
   19      C      -2.2524222897    -2.0730616084     0.5538905487
   20      C      -2.8739103461    -2.9352057770     1.7216911286
   21      C      -4.3832590416    -2.4962161813     1.6447111841
   22      C      -4.3747032981    -1.5770291839     0.3610506388
   23      O      -3.3002474651    -2.1472518913    -0.4943988676
   24      H      -2.1478823911    -0.5545048312     2.1381487407
   25      H      -4.2817517924     0.3889443164     1.5151321255
   26      H      -1.2833596977    -2.4434260912     0.1746854844
   27      H      -2.7579630613    -4.0091114125     1.5040121955
   28      H      -2.4115771891    -2.7184253033     2.6976343692
   29      H      -5.0532955112    -3.3586820805     1.5017882504
   30      H      -4.7089675945    -1.9421638054     2.5398175097
   31      H      -5.3302811834    -1.5291287781    -0.1963172918
   32      O       3.5472516568     0.8487075065    -2.2914260363
   33      C       4.4447756491    -2.4875985610    -1.4922488496
   34      C       3.0430085082     0.5078666707     2.1901932839
   35      C       3.4422263704     1.8552021929     2.9199153233
   36      C       2.5402174996     2.8991073980     2.1585054261
   37      C       1.8982434867     1.9812098190     1.0450200325
   38      O       1.6392999747     0.7248563017     1.7872123926
   39      H       4.8770878640     0.6094302183     0.8713486121
   40      H       3.7719536608     2.4701998235    -0.0350470018
   41      H       3.5621126045    -2.4145601461    -2.1603773161
   42      H       3.1334997950    -0.4087995380     2.8045441696
   43      H       3.1897246617     1.8034909939     3.9907330035
   44      H       4.5179873726     2.0744684894     2.8230796127
   45      H       1.7539717129     3.3029574542     2.8161436837
   46      H       3.1178632865     3.7380098329     1.7387551617
   47      H       0.9547872862     2.3401169988     0.5871738172
   48      H       4.2958979992    -3.3458633878    -0.8053335364
   49      H       5.3527534576    -2.6511061694    -2.1011768151
   50      H      -6.2443367119     1.7396574718    -2.5750544543
   51      H      -4.6729037698     1.0487541401    -3.1481989613
   52      H      -4.6878529998     2.5995875085    -2.2320846634
   53      H      -1.1724310353    -0.6745470993    -1.6071548480
   54      H       0.2584030231    -1.6824065435    -1.1387706210
   55      H       1.6182408163    -0.5504937689    -2.6720950737
   56      H       0.1611851485     0.3401929893    -3.2323205452
 ----------------------------------------------------------------

    9   -1510.2393790412      4.17E-09 Convergence criterion met
 Total energy in the final basis set = -1510.23937904
 Final energy is   -1510.23937904118
 **  OPTIMIZATION CONVERGED  **

                    Orbital Energies (a.u.)
 --------------------------------------------------------------

 Alpha MOs
 -- Occupied --
-18.946 -18.929 -18.904 -18.902 -18.887 -18.886 -18.880 -18.872
-18.868 -18.860 -10.107 -10.096 -10.091 -10.090 -10.071 -10.061
-10.060 -10.060 -10.058 -10.057 -10.049 -10.040 -10.040 -10.030
-10.028 -10.027 -10.021 -10.019 -10.010 -10.007  -1.021  -1.006
 -0.998  -0.986  -0.971  -0.955  -0.945  -0.930  -0.927  -0.913
 -0.761  -0.752  -0.724  -0.712  -0.703  -0.698  -0.685  -0.667
 -0.658  -0.599  -0.594  -0.573  -0.545  -0.537  -0.535  -0.525
 -0.512  -0.500  -0.483  -0.468  -0.462  -0.454  -0.451  -0.440
 -0.435  -0.423  -0.417  -0.415  -0.409  -0.408  -0.402  -0.393
 -0.384  -0.380  -0.374  -0.367  -0.361  -0.357  -0.343  -0.341
 -0.335  -0.332  -0.331  -0.327  -0.321  -0.318  -0.314  -0.311
 -0.305  -0.301  -0.299  -0.294  -0.285  -0.277  -0.274  -0.269
 -0.267  -0.260  -0.249  -0.236  -0.233  -0.223  -0.212  -0.186
 -0.172  -0.161  -0.156  -0.150  -0.148  -0.145  -0.143  -0.133
 -0.124

          Ground-State Mulliken Net Atomic Charges

     Atom                 Charge (a.u.)
  ----------------------------------------
      1 O                    -0.214687
      2 C                     0.204736
      3 C                    -0.076882
      4 C                    -0.077856
      5 C                     0.213408
      6 O                    -0.180797
      7 C                    -0.045664
      8 C                    -0.049272
      9 O                    -0.171816
     10 C                     0.226387
     11 C                    -0.086347
     12 C                    -0.077363
     13 C                     0.218029
     14 O                    -0.207054
     15 O                    -0.165585
     16 O                    -0.167151
     17 O                    -0.206830
     18 C                    -0.127714
     19 C                     0.018995
     20 C                    -0.141322
     21 C                    -0.145281
     22 C                     0.022517
     23 O                    -0.197945
     24 H                     0.085789
     25 H                     0.090770
     26 H                     0.087750
     27 H                     0.077508
     28 H                     0.075851
     29 H                     0.078032
     30 H                     0.074743
     31 H                     0.086505
     32 O                    -0.197497
     33 C                    -0.127352
     34 C                     0.025145
     35 C                    -0.145517
     36 C                    -0.143245
     37 C                     0.024480
     38 O                    -0.183599
     39 H                     0.085771
     40 H                     0.081858
     41 H                     0.084420
     42 H                     0.080680
     43 H                     0.075215
     44 H                     0.070348
     45 H                     0.077774
     46 H                     0.070321
     47 H                     0.107292
     48 H                     0.087381
     49 H                     0.091237
     50 H                     0.092845
     51 H                     0.090942
     52 H                     0.093771
     53 H                     0.090497
     54 H                     0.080501
     55 H                     0.081934
     56 H                     0.083345
  ----------------------------------------
  Sum of atomic charges =     0.000000

                    Cartesian Multipole Moments
 -----------------------------------------------------------------
    Charge (ESU x 10^10)
                 0.0000
    Dipole Moment (Debye)
         X      -1.6318      Y      -1.4508      Z       0.4734
       Tot       2.2343
    Quadrupole Moments (Debye-Ang)
        XX    -144.6561     XY      -1.4261     YY    -156.7187
        XZ       6.4505     YZ       0.3715     ZZ    -154.4992

 Total job time:  61.30s(wall), 2918.44s(cpu)
        *  Thank you very much for using Q-Chem.  Have a nice day.  *
