 Q-Chem 5.0, Q-Chem, Inc., Pleasanton, CA (2017)
 Q-Chem 5.0.1 for Intel X86 EM64T Linux

User input:
--------------------------------------------------------------
$molecule
0  1
O -3.1323134593 1.6217889142 1.2043269671
C -3.6503916129 1.321639968 0.1070575049
C -3.6681537835 -0.0956032894 -0.5637017087
C -2.422536184 -0.9790326987 -0.1483017905
C -1.1786202009 -0.2774103689 0.5323181691
O -0.5870267602 0.9309757845 0.0073667762
C -1.0238869056 1.4147960504 -1.3182961962
C 0.1891125587 1.575192723 -2.3535259139
O 1.5232842605 1.8701881015 -1.8098318688
C 2.2117688417 0.6313113509 -1.4172602006
C 2.2074796859 0.4531317348 0.1297097334
C 2.9208342867 -0.8462373857 0.6676689168
C 3.8073581089 -1.5881048484 -0.3957728311
O 3.6961850643 -2.780212598 -0.7578778575
O -4.3744630359 2.2323528104 -0.7256580605
O 4.8761889801 -0.7232311399 -0.8007403875
O 2.6555132326 -0.1628839621 -2.2724359401
C 5.6932694112 -1.3923852991 -1.8364525517
C 2.9617916931 1.5968230121 0.9413817461
C 2.3125629066 1.6299622597 2.37895485
C 2.86643606 0.2844558547 2.9796007939
C 3.8186417897 -0.2092909307 1.8153071451
O 4.3088885505 1.0428063845 1.1946794797
H 1.1314553604 0.4928370691 0.3923111214
H 2.1892241004 -1.5711497945 1.0664297897
H 3.0238506452 2.5716847556 0.4200888332
H 2.6735348727 2.5036437899 2.9448815998
H 1.2118360913 1.6566794147 2.3380221193
H 3.4373440348 0.453352409 3.9062955492
H 2.0633436819 -0.4421740642 3.1821320833
H 4.6702050527 -0.8397136187 2.136762505
O -0.6118484175 -0.7432723536 1.5455207094
C -4.4253467652 3.5681420052 -0.0855125388
C -4.8405572825 -0.9448557478 0.1071859599
C -4.990257729 -2.3240812132 -0.6518832861
C -3.7823398496 -3.1382796194 -0.055513222
C -3.0942007964 -2.0335554006 0.8336367054
O -4.2480692008 -1.3078362567 1.4134413075
H -3.7949335885 -0.0005690344 -1.6559826906
H -2.0353423269 -1.5036183007 -1.0431232983
H -3.4091372846 3.9887908144 0.0596644503
H -5.7836625022 -0.3812602808 0.246970728
H -5.9571654929 -2.7931057325 -0.4113729051
H -4.920242864 -2.1996917278 -1.744467392
H -4.1325697271 -3.970908667 0.5752607408
H -3.1087357619 -3.5395318689 -0.8293007741
H -2.4120603807 -2.3914945926 1.6296156253
H -4.9330358074 3.5290068131 0.8996839841
H -4.9995613115 4.2149830036 -0.7738929285
H 6.5413989995 -0.7140066727 -2.0426558773
H 5.1096285523 -1.5490885529 -2.7670811094
H 6.0756819966 -2.374291373 -1.489934598
H 0.2243198196 0.6606262063 -2.9878726073
H -0.0711094744 2.4307660722 -3.0121790458
H -1.4905516059 2.4095206347 -1.158505096
H -1.7702073748 0.7531458779 -1.794023929
$end

$rem
JOBTYPE                   OPT
METHOD                    B3LYP
DFT_D                     d3_op
BASIS                     STO-3G
GEOM_OPT_MAX_CYCLES       100
GEOM_OPT_TOL_GRADIENT     300
GEOM_OPT_TOL_DISPLACEMENT 1200
GEOM_OPT_TOL_ENERGY       100
SYMMETRY                  False
THRESH                    12
SCF_CONVERGENCE           8
MAX_SUB_FILE_NUM          128
MEM_STATIC                400
MEM_TOTAL                 4000
$end
--------------------------------------------------------------

   16   -1510.2500803291      5.98E-09 Convergence criterion met
 Total energy in the final basis set = -1510.25008033
   14   -1510.2535243236      2.53E-09 Convergence criterion met
 Total energy in the final basis set = -1510.25352432
   14   -1510.2583611194      3.97E-09 Convergence criterion met
 Total energy in the final basis set = -1510.25836112
   14   -1510.2632057215      2.03E-09 Convergence criterion met
 Total energy in the final basis set = -1510.26320572
   14   -1510.2673441550      2.52E-09 Convergence criterion met
 Total energy in the final basis set = -1510.26734416
   13   -1510.2688846468      4.68E-09 Convergence criterion met
 Total energy in the final basis set = -1510.26888465
   14   -1510.2701781461      2.62E-09 Convergence criterion met
 Total energy in the final basis set = -1510.27017815
   13   -1510.2713214042      9.04E-09 Convergence criterion met
   12   -1510.2835960194      7.39E-09 Convergence criterion met
 Total energy in the final basis set = -1510.28359602
   12   -1510.2836328626      4.95E-09 Convergence criterion met
 Total energy in the final basis set = -1510.28363286
   12   -1510.2836314535      3.91E-09 Convergence criterion met
 Total energy in the final basis set = -1510.28363145
   11   -1510.2836453994      6.08E-09 Convergence criterion met
 Total energy in the final basis set = -1510.28364540
   11   -1510.2836412925      5.41E-09 Convergence criterion met
 Total energy in the final basis set = -1510.28364129
   11   -1510.2836479002      2.61E-09 Convergence criterion met
 Total energy in the final basis set = -1510.28364790

             Standard Nuclear Orientation (Angstroms)
    I     Atom           X                Y                Z
 ----------------------------------------------------------------
    1      O      -3.8753931424     1.5392490094     0.6134626595
    2      C      -4.2977499009     0.6668131816    -0.1791309433
    3      C      -3.4370794891    -0.3300904638    -1.0237758824
    4      C      -1.9060798906    -0.2990889751    -0.6327813179
    5      C      -1.5391408129     0.6620942371     0.5749627901
    6      O      -1.0850213273     2.0131347822     0.3054309370
    7      C      -1.2257257909     2.5025081628    -1.0780266242
    8      C       0.1299501624     2.3070254662    -1.8825714314
    9      O       1.2651719789     2.4007707819    -0.9335089814
   10      C       1.4995907499     1.1169894523    -0.3459648495
   11      C       2.4538786580     1.2713363033     0.8783848328
   12      C       2.6980513293    -0.0988093283     1.6368027642
   13      C       1.9005369315    -1.3190845991     1.0390024616
   14      O       0.7955083103    -1.7455557272     1.4492750675
   15      O      -5.6798284921     0.4341890731    -0.4536739690
   16      O       2.7100231008    -1.9787303875     0.0592237050
   17      O       1.0212453797     0.0457850855    -0.7881335640
   18      C       1.9594837823    -3.0980072994    -0.5493346008
   19      C       3.9364666738     1.6455373742     0.4383301463
   20      C       4.7204796952     2.1365630326     1.7182590472
   21      C       4.9664365177     0.7735512816     2.4640158411
   22      C       4.2704375994    -0.2458985253     1.4780344909
   23      O       4.5407484799     0.3286203773     0.1385433114
   24      H       2.0272651845     2.0406918933     1.5471801292
   25      H       2.3981257483    -0.0072759719     2.6958457000
   26      H       3.9947684071     2.3161456833    -0.4410089183
   27      H       5.6683813458     2.6160724213     1.4265744553
   28      H       4.1319256831     2.8505595058     2.3162464128
   29      H       6.0415824150     0.5502065894     2.5519195145
   30      H       4.5178573107     0.7505158462     3.4700003092
   31      H       4.6410569120    -1.2871133296     1.5327742970
   32      O      -1.4735941990     0.2920754368     1.7650088319
   33      C      -6.5202714091     1.3457409277     0.3578707678
   34      C      -3.8011224368    -1.8469099005    -0.7062904092
   35      C      -3.1879770547    -2.7460128994    -1.8502282194
   36      C      -1.6613071703    -2.7092753512    -1.4711117323
   37      C      -1.6798895117    -1.8035996368    -0.1762297238
   38      O      -2.9646966458    -2.1587730955     0.4721605191
   39      H      -3.5924539120    -0.1017331299    -2.0946005624
   40      H      -1.2707676504    -0.0645438714    -1.5006923509
   41      H      -6.3177749781     2.4095700719     0.1181202002
   42      H      -4.8741062032    -2.0144077803    -0.4893476422
   43      H      -3.5950783552    -3.7681042780    -1.7947136212
   44      H      -3.3902217819    -2.3390965481    -2.8539699272
   45      H      -1.2822299132    -3.7153308204    -1.2312630558
   46      H      -1.0364166688    -2.2787389496    -2.2699339498
   47      H      -0.8142832813    -1.9299877521     0.5167936775
   48      H      -6.3550146404     1.1912025224     1.4436543455
   49      H      -7.5678466798     1.1011590106     0.1030579969
   50      H       2.7000884348    -3.7055004994    -1.1012268643
   51      H       1.1928896718    -2.7187640984    -1.2548653155
   52      H       1.4565348694    -3.7193937072     0.2189961880
   53      H       0.1504609639     1.3230546504    -2.3957451103
   54      H       0.2599865462     3.1211006813    -2.6225756889
   55      H      -1.4288692585     3.5890950057    -0.9817712943
   56      H      -2.0698802372     2.0394043604    -1.6280646709
 ----------------------------------------------------------------

    9   -1510.2836475100      4.93E-09 Convergence criterion met
 Total energy in the final basis set = -1510.28364751
 Final energy is   -1510.28364750998
 **  OPTIMIZATION CONVERGED  **

                    Orbital Energies (a.u.)
 --------------------------------------------------------------

 Alpha MOs
 -- Occupied --
-18.943 -18.941 -18.924 -18.915 -18.886 -18.886 -18.884 -18.875
-18.862 -18.857 -10.109 -10.104 -10.094 -10.086 -10.077 -10.074
-10.068 -10.060 -10.056 -10.055 -10.053 -10.039 -10.036 -10.034
-10.032 -10.024 -10.019 -10.017 -10.013 -10.009  -1.024  -1.017
 -1.000  -0.988  -0.968  -0.958  -0.947  -0.942  -0.925  -0.920
 -0.761  -0.756  -0.724  -0.716  -0.713  -0.698  -0.696  -0.663
 -0.653  -0.614  -0.594  -0.582  -0.544  -0.540  -0.535  -0.530
 -0.510  -0.505  -0.486  -0.473  -0.465  -0.455  -0.453  -0.442
 -0.432  -0.427  -0.422  -0.417  -0.413  -0.410  -0.406  -0.403
 -0.390  -0.387  -0.375  -0.371  -0.366  -0.353  -0.352  -0.347
 -0.343  -0.335  -0.331  -0.327  -0.324  -0.312  -0.312  -0.308
 -0.304  -0.302  -0.298  -0.297  -0.287  -0.279  -0.277  -0.273
 -0.269  -0.259  -0.255  -0.242  -0.232  -0.230  -0.221  -0.187
 -0.183  -0.165  -0.163  -0.158  -0.154  -0.145  -0.140  -0.133
 -0.132

          Ground-State Mulliken Net Atomic Charges

     Atom                 Charge (a.u.)
  ----------------------------------------
      1 O                    -0.204350
      2 C                     0.210345
      3 C                    -0.082603
      4 C                    -0.088183
      5 C                     0.215803
      6 O                    -0.175905
      7 C                    -0.049339
      8 C                    -0.054501
      9 O                    -0.167103
     10 C                     0.220934
     11 C                    -0.077590
     12 C                    -0.080267
     13 C                     0.221347
     14 O                    -0.219673
     15 O                    -0.169168
     16 O                    -0.167509
     17 O                    -0.215845
     18 C                    -0.129241
     19 C                     0.025123
     20 C                    -0.143483
     21 C                    -0.144280
     22 C                     0.026158
     23 O                    -0.188157
     24 H                     0.094609
     25 H                     0.088368
     26 H                     0.085001
     27 H                     0.077690
     28 H                     0.075296
     29 H                     0.077364
     30 H                     0.074814
     31 H                     0.087664
     32 O                    -0.197636
     33 C                    -0.128154
     34 C                     0.025358
     35 C                    -0.144332
     36 C                    -0.146040
     37 C                     0.014428
     38 O                    -0.189061
     39 H                     0.079978
     40 H                     0.079535
     41 H                     0.089206
     42 H                     0.084998
     43 H                     0.076403
     44 H                     0.069436
     45 H                     0.074784
     46 H                     0.068617
     47 H                     0.114903
     48 H                     0.094016
     49 H                     0.091837
     50 H                     0.087599
     51 H                     0.088873
     52 H                     0.090316
     53 H                     0.090182
     54 H                     0.089695
     55 H                     0.089549
     56 H                     0.082191
  ----------------------------------------
  Sum of atomic charges =    -0.000000

                    Cartesian Multipole Moments
 -----------------------------------------------------------------
    Charge (ESU x 10^10)
                -0.0000
    Dipole Moment (Debye)
         X      -0.3884      Y       1.4580      Z      -3.3854
       Tot       3.7064
    Quadrupole Moments (Debye-Ang)
        XX    -146.5459     XY      -3.1191     YY    -154.1887
        XZ      13.9876     YZ      -0.0459     ZZ    -157.2189

 Total job time:  109.13s(wall), 5207.07s(cpu)
        *  Thank you very much for using Q-Chem.  Have a nice day.  *
