 Q-Chem 5.0, Q-Chem, Inc., Pleasanton, CA (2017)
 Q-Chem 5.0.1 for Intel X86 EM64T Linux

User input:
--------------------------------------------------------------
$molecule
0  1
O -3.94934 -3.66094 2.70899
C -3.26408 -4.56952 2.26188
C -3.36658 -6.02376 2.66595
C -3.85957 -6.32399 4.09097
C -4.36389 -5.14454 4.89263
O -3.4791 -4.1082 4.80005
C -2.24556 -4.47521 4.1732
C -1.07375 -4.17145 5.10095
O -1.4058 -3.07362 5.96547
C -2.07958 -3.40408 7.09506
C -3.54836 -3.05974 7.02607
C -4.35622 -3.4149 8.28285
C -3.54462 -3.71843 9.52618
O -3.60092 -4.75355 10.17419
O -2.41257 -4.30253 1.23318
O -2.68258 -2.75513 9.96095
O -1.55951 -4.13421 7.92661
C -1.8758 -2.86852 11.07401
C -3.73252 -1.4982 7.05561
C -5.06814 -1.08152 6.42197
C -6.0399 -1.65706 7.44396
C -5.05651 -2.06007 8.55666
O -3.98699 -1.1637 8.39663
H -4.35117 -3.30242 6.38763
H -5.05366 -4.27528 8.13865
H -2.89529 -0.94024 6.58193
H -5.10562 0.03092 6.47229
H -5.24286 -1.40226 5.37217
H -6.73038 -0.84555 7.76235
H -6.61657 -2.54526 7.10536
H -5.55429 -2.04613 9.55179
O -5.50748 -5.00988 5.30664
C -2.23553 -3.05436 0.67345
C -4.50051 -6.69903 1.85569
C -4.27494 -8.20902 1.78807
C -4.57759 -8.59915 3.21719
C -5.05117 -7.25065 3.7736
O -5.63963 -6.60784 2.67297
H -2.43974 -6.5586 2.34534
H -3.12468 -6.87789 4.72077
H -1.86473 -2.33871 1.43777
H -4.60941 -6.29029 0.82633
H -5.07341 -8.62323 1.131
H -3.2847 -8.53685 1.4051
H -5.40579 -9.34219 3.20996
H -3.71447 -8.996 3.79432
H -5.71122 -7.41831 4.6532
H -3.19395 -2.6864 0.24897
H -1.48707 -3.12462 -0.14214
H -1.28169 -1.93882 11.18812
H -1.17934 -3.72595 10.95584
H -2.49712 -3.01063 11.98389
H -0.83859 -5.04862 5.76623
H -0.09402 -3.99117 4.58628
H -1.87677 -3.54833 3.62902
H -1.71448 -5.44675 4.00114
$end

$opt
CONSTRAINT
tors           1           2           3           4     -28.421
tors           3           4           5           6     -47.368
tors           4           5           6           7      -9.474
tors           5           6           7           8    -123.158
tors           6           7           8           9     -28.421
tors           7           8           9          10     +85.263
tors           8           9          10          11    -104.211
tors           9          10          11          12    -180.000
tors          11          12          13          14    -123.158
ENDCONSTRAINT
$end

$rem
JOBTYPE                   OPT
METHOD                    B3LYP
DFT_D                     d3_op
BASIS                     STO-3G
GEOM_OPT_MAX_CYCLES       100
GEOM_OPT_TOL_GRADIENT     300
GEOM_OPT_TOL_DISPLACEMENT 1200
GEOM_OPT_TOL_ENERGY       100
SYMMETRY                  False
THRESH                    12
SCF_CONVERGENCE           8
MAX_SUB_FILE_NUM          128
MEM_STATIC                400
MEM_TOTAL                 4000
$end
--------------------------------------------------------------

   16   -1509.9404100420      2.95E-09 Convergence criterion met
 Total energy in the final basis set = -1509.94041004
   14   -1510.0444440553      3.47E-09 Convergence criterion met
 Total energy in the final basis set = -1510.04444406
   14   -1510.1196321923      3.28E-09 Convergence criterion met
 Total energy in the final basis set = -1510.11963219
   14   -1510.1702653035      3.71E-09 Convergence criterion met
 Total energy in the final basis set = -1510.17026530
   14   -1510.2029139503      4.26E-09 Convergence criterion met
 Total energy in the final basis set = -1510.20291395
   13   -1510.2215474597      9.39E-09 Convergence criterion met
 Total energy in the final basis set = -1510.22154746
   13   -1510.2309756319      6.97E-09 Convergence criterion met
 Total energy in the final basis set = -1510.23097563
   13   -1510.2362904193      4.78E-09 Convergence criterion met
   10   -1510.2500058968      6.25E-09 Convergence criterion met
 Total energy in the final basis set = -1510.25000590
   10   -1510.2500242302      5.54E-09 Convergence criterion met
 Total energy in the final basis set = -1510.25002423
   10   -1510.2500399830      6.78E-09 Convergence criterion met
 Total energy in the final basis set = -1510.25003998
    9   -1510.2500490859      8.00E-09 Convergence criterion met
 Total energy in the final basis set = -1510.25004909
    9   -1510.2500562732      5.50E-09 Convergence criterion met
 Total energy in the final basis set = -1510.25005627
    9   -1510.2500588513      5.75E-09 Convergence criterion met
 Total energy in the final basis set = -1510.25005885

             Standard Nuclear Orientation (Angstroms)
    I     Atom           X                Y                Z
 ----------------------------------------------------------------
    1      O      -3.1323134593     1.6217889142     1.2043269671
    2      C      -3.6503916129     1.3216399680     0.1070575049
    3      C      -3.6681537835    -0.0956032894    -0.5637017087
    4      C      -2.4225361840    -0.9790326987    -0.1483017905
    5      C      -1.1786202009    -0.2774103689     0.5323181691
    6      O      -0.5870267602     0.9309757845     0.0073667762
    7      C      -1.0238869056     1.4147960504    -1.3182961962
    8      C       0.1891125587     1.5751927230    -2.3535259139
    9      O       1.5232842605     1.8701881015    -1.8098318688
   10      C       2.2117688417     0.6313113509    -1.4172602006
   11      C       2.2074796859     0.4531317348     0.1297097334
   12      C       2.9208342867    -0.8462373857     0.6676689168
   13      C       3.8073581089    -1.5881048484    -0.3957728311
   14      O       3.6961850643    -2.7802125980    -0.7578778575
   15      O      -4.3744630359     2.2323528104    -0.7256580605
   16      O       4.8761889801    -0.7232311399    -0.8007403875
   17      O       2.6555132326    -0.1628839621    -2.2724359401
   18      C       5.6932694112    -1.3923852991    -1.8364525517
   19      C       2.9617916931     1.5968230121     0.9413817461
   20      C       2.3125629066     1.6299622597     2.3789548500
   21      C       2.8664360600     0.2844558547     2.9796007939
   22      C       3.8186417897    -0.2092909307     1.8153071451
   23      O       4.3088885505     1.0428063845     1.1946794797
   24      H       1.1314553604     0.4928370691     0.3923111214
   25      H       2.1892241004    -1.5711497945     1.0664297897
   26      H       3.0238506452     2.5716847556     0.4200888332
   27      H       2.6735348727     2.5036437899     2.9448815998
   28      H       1.2118360913     1.6566794147     2.3380221193
   29      H       3.4373440348     0.4533524090     3.9062955492
   30      H       2.0633436819    -0.4421740642     3.1821320833
   31      H       4.6702050527    -0.8397136187     2.1367625050
   32      O      -0.6118484175    -0.7432723536     1.5455207094
   33      C      -4.4253467652     3.5681420052    -0.0855125388
   34      C      -4.8405572825    -0.9448557478     0.1071859599
   35      C      -4.9902577290    -2.3240812132    -0.6518832861
   36      C      -3.7823398496    -3.1382796194    -0.0555132220
   37      C      -3.0942007964    -2.0335554006     0.8336367054
   38      O      -4.2480692008    -1.3078362567     1.4134413075
   39      H      -3.7949335885    -0.0005690344    -1.6559826906
   40      H      -2.0353423269    -1.5036183007    -1.0431232983
   41      H      -3.4091372846     3.9887908144     0.0596644503
   42      H      -5.7836625022    -0.3812602808     0.2469707280
   43      H      -5.9571654929    -2.7931057325    -0.4113729051
   44      H      -4.9202428640    -2.1996917278    -1.7444673920
   45      H      -4.1325697271    -3.9709086670     0.5752607408
   46      H      -3.1087357619    -3.5395318689    -0.8293007741
   47      H      -2.4120603807    -2.3914945926     1.6296156253
   48      H      -4.9330358074     3.5290068131     0.8996839841
   49      H      -4.9995613115     4.2149830036    -0.7738929285
   50      H       6.5413989995    -0.7140066727    -2.0426558773
   51      H       5.1096285523    -1.5490885529    -2.7670811094
   52      H       6.0756819966    -2.3742913730    -1.4899345980
   53      H       0.2243198196     0.6606262063    -2.9878726073
   54      H      -0.0711094744     2.4307660722    -3.0121790458
   55      H      -1.4905516059     2.4095206347    -1.1585050960
   56      H      -1.7702073748     0.7531458779    -1.7940239290
 ----------------------------------------------------------------

    9   -1510.2500606574      5.89E-09 Convergence criterion met
 Total energy in the final basis set = -1510.25006066
 Final energy is   -1510.25006065739
 **  OPTIMIZATION CONVERGED  **

                    Orbital Energies (a.u.)
 --------------------------------------------------------------

 Alpha MOs
 -- Occupied --
-18.953 -18.949 -18.914 -18.902 -18.902 -18.899 -18.891 -18.890
-18.876 -18.852 -10.118 -10.112 -10.104 -10.087 -10.081 -10.080
-10.076 -10.073 -10.068 -10.054 -10.053 -10.048 -10.047 -10.047
-10.031 -10.029 -10.021 -10.013 -10.006 -10.004  -1.027  -1.021
 -1.007  -0.990  -0.982  -0.958  -0.953  -0.950  -0.934  -0.916
 -0.777  -0.750  -0.734  -0.720  -0.717  -0.707  -0.690  -0.675
 -0.644  -0.617  -0.606  -0.583  -0.563  -0.548  -0.534  -0.525
 -0.525  -0.503  -0.493  -0.478  -0.473  -0.469  -0.458  -0.442
 -0.437  -0.429  -0.424  -0.422  -0.418  -0.414  -0.403  -0.397
 -0.395  -0.386  -0.382  -0.378  -0.369  -0.358  -0.354  -0.351
 -0.344  -0.341  -0.335  -0.328  -0.326  -0.323  -0.318  -0.317
 -0.313  -0.312  -0.302  -0.300  -0.295  -0.292  -0.282  -0.275
 -0.271  -0.266  -0.250  -0.245  -0.240  -0.232  -0.221  -0.194
 -0.189  -0.169  -0.165  -0.160  -0.156  -0.155  -0.153  -0.133
 -0.131

          Ground-State Mulliken Net Atomic Charges

     Atom                 Charge (a.u.)
  ----------------------------------------
      1 O                    -0.204368
      2 C                     0.204712
      3 C                    -0.082348
      4 C                    -0.085123
      5 C                     0.217087
      6 O                    -0.169551
      7 C                    -0.054345
      8 C                    -0.047298
      9 O                    -0.195297
     10 C                     0.222309
     11 C                    -0.099409
     12 C                    -0.082623
     13 C                     0.209592
     14 O                    -0.223067
     15 O                    -0.171589
     16 O                    -0.167096
     17 O                    -0.183608
     18 C                    -0.127694
     19 C                     0.026692
     20 C                    -0.142510
     21 C                    -0.144862
     22 C                     0.026756
     23 O                    -0.187244
     24 H                     0.114009
     25 H                     0.085112
     26 H                     0.084238
     27 H                     0.073800
     28 H                     0.080849
     29 H                     0.074439
     30 H                     0.079043
     31 H                     0.080458
     32 O                    -0.197621
     33 C                    -0.129460
     34 C                     0.026231
     35 C                    -0.144841
     36 C                    -0.142863
     37 C                     0.026281
     38 O                    -0.185708
     39 H                     0.084170
     40 H                     0.082258
     41 H                     0.089605
     42 H                     0.084875
     43 H                     0.080933
     44 H                     0.073903
     45 H                     0.081605
     46 H                     0.075239
     47 H                     0.097532
     48 H                     0.092958
     49 H                     0.092785
     50 H                     0.087320
     51 H                     0.088640
     52 H                     0.085808
     53 H                     0.078127
     54 H                     0.088243
     55 H                     0.086836
     56 H                     0.086081
  ----------------------------------------
  Sum of atomic charges =    -0.000000

                    Cartesian Multipole Moments
 -----------------------------------------------------------------
    Charge (ESU x 10^10)
                -0.0000
    Dipole Moment (Debye)
         X      -4.9238      Y       0.8018      Z      -2.4675
       Tot       5.5655
    Quadrupole Moments (Debye-Ang)
        XX    -156.8421     XY      -3.0911     YY    -157.0662
        XZ      10.9033     YZ      -1.3456     ZZ    -162.1767

 Total job time:  93.44s(wall), 4453.91s(cpu)
        *  Thank you very much for using Q-Chem.  Have a nice day.  *
