 Q-Chem 5.0, Q-Chem, Inc., Pleasanton, CA (2017)
 Q-Chem 5.0.1 for Intel X86 EM64T Linux

User input:
--------------------------------------------------------------
$molecule
0  1
O -3.94934 -3.66094 2.70899
C -3.26408 -4.56952 2.26188
C -3.36658 -6.02376 2.66595
C -4.25419 -6.35572 3.87665
C -5.08044 -5.22016 4.4387
O -6.25455 -5.11496 3.7489
C -6.66886 -3.75984 3.54577
C -5.79515 -2.8148 4.36409
O -6.51755 -2.35586 5.51752
C -6.03202 -1.23175 6.10044
C -6.54892 0.03395 5.45898
C -5.54399 0.7557 4.54933
C -4.33067 -0.05163 4.13365
O -3.42527 0.34806 3.41597
O -2.40197 -4.29696 1.24772
O -3.83239 -0.9403 5.03757
O -5.69893 -1.24771 7.2754
C -2.56978 -1.51474 5.01936
C -7.74484 -0.09782 4.47754
C -8.49549 1.2316 4.39471
C -7.49472 2.07547 3.62814
C -6.42698 1.02081 3.31756
O -7.16237 -0.17026 3.19869
H -6.88689 0.68717 6.2961
H -5.1523 1.68645 5.0158
H -8.45071 -0.91394 4.74393
H -9.38369 1.06015 3.7445
H -8.83211 1.65628 5.36445
H -7.98006 2.43197 2.6924
H -7.06876 2.93543 4.18884
H -5.82905 1.31699 2.42762
O -5.01104 -4.97889 5.64044
C -2.20773 -3.04165 0.71043
C -3.99786 -6.90694 1.57688
C -3.5477 -8.35557 1.76006
C -4.33351 -8.74115 2.99643
C -5.1343 -7.4559 3.23082
O -5.35732 -6.96372 1.92998
H -2.31862 -6.343 2.86587
H -3.66787 -6.78877 4.71916
H -1.83367 -2.34475 1.4905
H -3.77226 -6.55918 0.54507
H -3.93766 -8.94011 0.89615
H -2.44771 -8.49544 1.83307
H -5.02378 -9.57173 2.72729
H -3.72358 -9.0274 3.88012
H -6.04152 -7.67715 3.83539
H -3.15937 -2.65511 0.28676
H -1.45541 -3.10644 -0.10215
H -2.48726 -2.2414 5.85309
H -1.78968 -0.73459 5.14279
H -2.40436 -2.05277 4.06252
H -4.73997 -2.95133 4.61296
H -5.75927 -1.97293 3.66439
H -7.74643 -3.61553 3.77537
H -6.53928 -3.57326 2.45545
$end

$opt
CONSTRAINT
tors           1           2           3           4      -9.474
tors           3           4           5           6     +85.263
tors           4           5           6           7    -142.105
tors           5           6           7           8      -9.474
tors           6           7           8           9    -104.211
tors           7           8           9          10    -161.053
tors           8           9          10          11     +85.263
tors           9          10          11          12    -104.211
tors          11          12          13          14    -180.000
ENDCONSTRAINT
$end

$rem
JOBTYPE                   OPT
METHOD                    B3LYP
DFT_D                     d3_op
BASIS                     STO-3G
GEOM_OPT_MAX_CYCLES       100
GEOM_OPT_TOL_GRADIENT     300
GEOM_OPT_TOL_DISPLACEMENT 1200
GEOM_OPT_TOL_ENERGY       100
SYMMETRY                  False
THRESH                    12
SCF_CONVERGENCE           8
MAX_SUB_FILE_NUM          128
MEM_STATIC                400
MEM_TOTAL                 4000
$end
--------------------------------------------------------------

   15   -1510.0620146279      8.59E-09 Convergence criterion met
 Total energy in the final basis set = -1510.06201463
   14   -1510.1437059393      7.12E-09 Convergence criterion met
 Total energy in the final basis set = -1510.14370594
   14   -1510.1893716925      8.17E-09 Convergence criterion met
 Total energy in the final basis set = -1510.18937169
   14   -1510.2163577140      3.36E-09 Convergence criterion met
 Total energy in the final basis set = -1510.21635771
   14   -1510.2300855961      3.04E-09 Convergence criterion met
 Total energy in the final basis set = -1510.23008560
   14   -1510.2379330037      1.88E-09 Convergence criterion met
 Total energy in the final basis set = -1510.23793300
   14   -1510.2427264028      1.72E-09 Convergence criterion met
 Total energy in the final basis set = -1510.24272640
   13   -1510.2456257482      6.17E-09 Convergence criterion met
   11   -1510.2498452346      8.18E-09 Convergence criterion met
 Total energy in the final basis set = -1510.24984523
   11   -1510.2498850823      9.57E-09 Convergence criterion met
 Total energy in the final basis set = -1510.24988508
   11   -1510.2499159622      5.25E-09 Convergence criterion met
 Total energy in the final basis set = -1510.24991596
   10   -1510.2499192079      6.90E-09 Convergence criterion met
 Total energy in the final basis set = -1510.24991921
   10   -1510.2499218842      4.79E-09 Convergence criterion met
 Total energy in the final basis set = -1510.24992188
    9   -1510.2499230912      3.43E-09 Convergence criterion met
 Total energy in the final basis set = -1510.24992309

             Standard Nuclear Orientation (Angstroms)
    I     Atom           X                Y                Z
 ----------------------------------------------------------------
    1      O      -1.3504206518    -1.1099336543     0.3649299012
    2      C      -2.5422255579    -1.4694919436     0.2274465284
    3      C      -3.8358596582    -0.5925557838     0.2637695328
    4      C      -3.6349494726     0.9072985314     0.7360102510
    5      C      -2.1269861059     1.3583723808     0.9006163979
    6      O      -1.6320750948     1.7905126703    -0.3672112791
    7      C      -0.2263111640     1.4534370901    -0.7176252885
    8      C       0.7325592210     0.8458695306     0.3714054885
    9      O       1.6732785957     1.8860233050     0.8376739501
   10      C       2.8245529014     1.2659465764     1.4837505821
   11      C       3.9901210103     0.8232420763     0.4899953778
   12      C       4.1447169017    -0.7244571242     0.1489606585
   13      C       3.1570055473    -1.7651881173     0.7907312081
   14      O       3.1930655838    -3.0003287532     0.5882411193
   15      O      -2.9391548725    -2.8194393557    -0.0200248127
   16      O       2.2041890559    -1.1243195929     1.6337384567
   17      O       2.9956956226     1.3745022929     2.7158232806
   18      C       1.1443471925    -2.0674321150     2.0669942367
   19      C       3.7595870225     1.4170507646    -0.9643502485
   20      C       5.1275214442     1.4043583168    -1.7502108289
   21      C       5.2713299735    -0.1257834005    -2.0889342677
   22      C       3.9578913065    -0.7057268816    -1.4335862126
   23      O       2.9608594280     0.3658887344    -1.6432715255
   24      H       4.9304424989     1.1939203847     0.9358357643
   25      H       5.1650550163    -1.0675190335     0.4016929858
   26      H       3.2063804205     2.3756293103    -0.9691370182
   27      H       5.0530641238     2.0147071055    -2.6643287058
   28      H       5.9604842495     1.7858278641    -1.1383451219
   29      H       5.2674464154    -0.3019498408    -3.1764298092
   30      H       6.1817737067    -0.5753753543    -1.6614490791
   31      H       3.6014531415    -1.6650975213    -1.8574084083
   32      O      -1.5116499387     1.3859646667     1.9907808295
   33      C      -1.7526445509    -3.7053412760    -0.0857394988
   34      C      -4.5022190422    -0.3860501968    -1.1711929159
   35      C      -6.0218066388    -0.0265815350    -0.9400473773
   36      C      -5.8973801230     1.4434099980    -0.3907311746
   37      C      -4.3346076880     1.6730842667    -0.4679256932
   38      O      -3.9210105589     0.8828806974    -1.6525998994
   39      H      -4.5476772137    -1.1127994172     0.9306588511
   40      H      -4.1481316141     1.0817401506     1.6983097734
   41      H      -1.2731330040    -3.8141895356     0.9084502786
   42      H      -4.3108269308    -1.2083220769    -1.8877700666
   43      H      -6.5703185280    -0.0548843181    -1.8952006363
   44      H      -6.5123110091    -0.7114953370    -0.2302871164
   45      H      -6.4261806495     2.1625449468    -1.0359796799
   46      H      -6.2776504280     1.5457176775     0.6381993941
   47      H      -4.0196569205     2.7279159270    -0.5809159400
   48      H      -0.9971447768    -3.3266451381    -0.8036288758
   49      H      -2.1260258990    -4.6901431893    -0.4215982523
   50      H       0.9526959457    -1.8856722964     3.1409848155
   51      H       1.4852674157    -3.1088101463     1.9011535910
   52      H       0.2200898040    -1.8651811184     1.4788581125
   53      H       0.1410372272     0.4495405938     1.2210014933
   54      H       1.2837352009     0.0217659433    -0.1250142374
   55      H       0.2315223757     2.3848365692    -1.1189006729
   56      H      -0.2980615702     0.7255889962    -1.5551030690
 ----------------------------------------------------------------

    8   -1510.2499225857      9.50E-09 Convergence criterion met
 Total energy in the final basis set = -1510.24992259
 Final energy is   -1510.24992258574
 **  OPTIMIZATION CONVERGED  **

                    Orbital Energies (a.u.)
 --------------------------------------------------------------

 Alpha MOs
 -- Occupied --
-18.951 -18.940 -18.910 -18.894 -18.890 -18.890 -18.882 -18.878
-18.875 -18.868 -10.116 -10.103 -10.095 -10.092 -10.076 -10.064
-10.063 -10.059 -10.058 -10.057 -10.053 -10.044 -10.044 -10.040
-10.034 -10.030 -10.022 -10.022 -10.020 -10.020  -1.028  -1.015
 -0.994  -0.986  -0.973  -0.971  -0.952  -0.938  -0.926  -0.917
 -0.765  -0.761  -0.725  -0.721  -0.712  -0.705  -0.685  -0.673
 -0.659  -0.606  -0.598  -0.576  -0.548  -0.544  -0.538  -0.537
 -0.516  -0.512  -0.480  -0.476  -0.465  -0.461  -0.444  -0.436
 -0.435  -0.432  -0.422  -0.419  -0.414  -0.410  -0.403  -0.401
 -0.389  -0.385  -0.376  -0.372  -0.357  -0.355  -0.353  -0.345
 -0.339  -0.338  -0.335  -0.331  -0.326  -0.324  -0.317  -0.316
 -0.313  -0.308  -0.307  -0.303  -0.298  -0.290  -0.281  -0.277
 -0.273  -0.265  -0.249  -0.239  -0.236  -0.226  -0.216  -0.194
 -0.178  -0.168  -0.159  -0.157  -0.152  -0.146  -0.144  -0.139
 -0.128

          Ground-State Mulliken Net Atomic Charges

     Atom                 Charge (a.u.)
  ----------------------------------------
      1 O                    -0.217452
      2 C                     0.215792
      3 C                    -0.079807
      4 C                    -0.080553
      5 C                     0.218373
      6 O                    -0.182250
      7 C                    -0.043399
      8 C                    -0.051825
      9 O                    -0.199642
     10 C                     0.226672
     11 C                    -0.085385
     12 C                    -0.080696
     13 C                     0.208696
     14 O                    -0.219279
     15 O                    -0.167097
     16 O                    -0.167140
     17 O                    -0.186921
     18 C                    -0.142247
     19 C                     0.021953
     20 C                    -0.144432
     21 C                    -0.143323
     22 C                     0.023896
     23 O                    -0.195155
     24 H                     0.083830
     25 H                     0.086134
     26 H                     0.090682
     27 H                     0.078175
     28 H                     0.074758
     29 H                     0.078256
     30 H                     0.074764
     31 H                     0.084680
     32 O                    -0.206582
     33 C                    -0.129184
     34 C                     0.026063
     35 C                    -0.142797
     36 C                    -0.145206
     37 C                     0.027522
     38 O                    -0.185371
     39 H                     0.087666
     40 H                     0.082562
     41 H                     0.088987
     42 H                     0.084331
     43 H                     0.078413
     44 H                     0.073827
     45 H                     0.078325
     46 H                     0.073857
     47 H                     0.088651
     48 H                     0.093134
     49 H                     0.094720
     50 H                     0.090634
     51 H                     0.095643
     52 H                     0.099828
     53 H                     0.103323
     54 H                     0.086699
     55 H                     0.088210
     56 H                     0.086686
  ----------------------------------------
  Sum of atomic charges =     0.000000

                    Cartesian Multipole Moments
 -----------------------------------------------------------------
    Charge (ESU x 10^10)
                 0.0000
    Dipole Moment (Debye)
         X      -1.3282      Y      -2.4479      Z      -1.9066
       Tot       3.3751
    Quadrupole Moments (Debye-Ang)
        XX    -136.1789     XY       4.5889     YY    -159.3623
        XZ      -9.6699     YZ      -4.7109     ZZ    -168.7956

 Total job time:  85.49s(wall), 4076.83s(cpu)
        *  Thank you very much for using Q-Chem.  Have a nice day.  *
