 Q-Chem 5.0, Q-Chem, Inc., Pleasanton, CA (2017)
 Q-Chem 5.0.1 for Intel X86 EM64T Linux

User input:
--------------------------------------------------------------
$molecule
0  1
O -1.3504206518 -1.1099336543 0.3649299012
C -2.5422255579 -1.4694919436 0.2274465284
C -3.8358596582 -0.5925557838 0.2637695328
C -3.6349494726 0.9072985314 0.736010251
C -2.1269861059 1.3583723808 0.9006163979
O -1.6320750948 1.7905126703 -0.3672112791
C -0.226311164 1.4534370901 -0.7176252885
C 0.732559221 0.8458695306 0.3714054885
O 1.6732785957 1.886023305 0.8376739501
C 2.8245529014 1.2659465764 1.4837505821
C 3.9901210103 0.8232420763 0.4899953778
C 4.1447169017 -0.7244571242 0.1489606585
C 3.1570055473 -1.7651881173 0.7907312081
O 3.1930655838 -3.0003287532 0.5882411193
O -2.9391548725 -2.8194393557 -0.0200248127
O 2.2041890559 -1.1243195929 1.6337384567
O 2.9956956226 1.3745022929 2.7158232806
C 1.1443471925 -2.067432115 2.0669942367
C 3.7595870225 1.4170507646 -0.9643502485
C 5.1275214442 1.4043583168 -1.7502108289
C 5.2713299735 -0.1257834005 -2.0889342677
C 3.9578913065 -0.7057268816 -1.4335862126
O 2.960859428 0.3658887344 -1.6432715255
H 4.9304424989 1.1939203847 0.9358357643
H 5.1650550163 -1.0675190335 0.4016929858
H 3.2063804205 2.3756293103 -0.9691370182
H 5.0530641238 2.0147071055 -2.6643287058
H 5.9604842495 1.7858278641 -1.1383451219
H 5.2674464154 -0.3019498408 -3.1764298092
H 6.1817737067 -0.5753753543 -1.6614490791
H 3.6014531415 -1.6650975213 -1.8574084083
O -1.5116499387 1.3859646667 1.9907808295
C -1.7526445509 -3.705341276 -0.0857394988
C -4.5022190422 -0.3860501968 -1.1711929159
C -6.0218066388 -0.026581535 -0.9400473773
C -5.897380123 1.443409998 -0.3907311746
C -4.334607688 1.6730842667 -0.4679256932
O -3.9210105589 0.8828806974 -1.6525998994
H -4.5476772137 -1.1127994172 0.9306588511
H -4.1481316141 1.0817401506 1.6983097734
H -1.273133004 -3.8141895356 0.9084502786
H -4.3108269308 -1.2083220769 -1.8877700666
H -6.570318528 -0.0548843181 -1.8952006363
H -6.5123110091 -0.711495337 -0.2302871164
H -6.4261806495 2.1625449468 -1.0359796799
H -6.277650428 1.5457176775 0.6381993941
H -4.0196569205 2.727915927 -0.58091594
H -0.9971447768 -3.3266451381 -0.8036288758
H -2.126025899 -4.6901431893 -0.4215982523
H 0.9526959457 -1.8856722964 3.1409848155
H 1.4852674157 -3.1088101463 1.901153591
H 0.220089804 -1.8651811184 1.4788581125
H 0.1410372272 0.4495405938 1.2210014933
H 1.2837352009 0.0217659433 -0.1250142374
H 0.2315223757 2.3848365692 -1.1189006729
H -0.2980615702 0.7255889962 -1.555103069
$end

$rem
JOBTYPE                   OPT
METHOD                    B3LYP
DFT_D                     d3_op
BASIS                     STO-3G
GEOM_OPT_MAX_CYCLES       100
GEOM_OPT_TOL_GRADIENT     300
GEOM_OPT_TOL_DISPLACEMENT 1200
GEOM_OPT_TOL_ENERGY       100
SYMMETRY                  False
THRESH                    12
SCF_CONVERGENCE           8
MAX_SUB_FILE_NUM          128
MEM_STATIC                400
MEM_TOTAL                 4000
$end
--------------------------------------------------------------

   16   -1510.2501977148      3.64E-09 Convergence criterion met
 Total energy in the final basis set = -1510.25019771
   14   -1510.2527195127      2.89E-09 Convergence criterion met
 Total energy in the final basis set = -1510.25271951
   14   -1510.2564324287      3.63E-09 Convergence criterion met
 Total energy in the final basis set = -1510.25643243
   14   -1510.2585784289      2.91E-09 Convergence criterion met
 Total energy in the final basis set = -1510.25857843
   13   -1510.2604420024      8.39E-09 Convergence criterion met
 Total energy in the final basis set = -1510.26044200
   13   -1510.2613209724      7.59E-09 Convergence criterion met
 Total energy in the final basis set = -1510.26132097
   14   -1510.2622536093      4.40E-09 Convergence criterion met
 Total energy in the final basis set = -1510.26225361
   13   -1510.2647882253      7.43E-09 Convergence criterion met
   11   -1510.2855678298      6.15E-09 Convergence criterion met
 Total energy in the final basis set = -1510.28556783
   12   -1510.2855836802      2.39E-09 Convergence criterion met
 Total energy in the final basis set = -1510.28558368
   11   -1510.2855822987      7.69E-09 Convergence criterion met
 Total energy in the final basis set = -1510.28558230
   11   -1510.2855910475      5.46E-09 Convergence criterion met
 Total energy in the final basis set = -1510.28559105
   11   -1510.2855904126      3.73E-09 Convergence criterion met
 Total energy in the final basis set = -1510.28559041
    9   -1510.2855916521      9.71E-09 Convergence criterion met
 Total energy in the final basis set = -1510.28559165

             Standard Nuclear Orientation (Angstroms)
    I     Atom           X                Y                Z
 ----------------------------------------------------------------
    1      O       1.1260899064    -0.9385180340     0.4254604141
    2      C       2.2137432518    -1.5438799913     0.2877908294
    3      C       3.5732020707    -0.9359224950    -0.1922212518
    4      C       3.4348794846     0.5292548268    -0.7792842127
    5      C       1.9491498954     1.0416409120    -0.9103737400
    6      O       1.6222470641     1.8515930376     0.2183212811
    7      C       0.2477774765     2.4075461640     0.1223526978
    8      C      -0.8880063397     1.3241837191    -0.0154450527
    9      O      -1.5053387523     1.5810007538    -1.3415093971
   10      C      -2.8497686330     1.1597731163    -1.5699918819
   11      C      -3.8339701112     0.6278304565    -0.4297719558
   12      C      -3.4883512413    -0.7553756635     0.2644964242
   13      C      -2.1589086707    -1.4455830705    -0.2112327284
   14      O      -1.4122667811    -2.1637218684     0.4917480018
   15      O       2.4126731082    -2.9260342945     0.5595254115
   16      O      -1.9951753639    -1.1697100712    -1.5964276057
   17      O      -3.2894768650     1.3202386266    -2.7335001895
   18      C      -0.6670092472    -1.5855442189    -2.1125854543
   19      C      -4.0367323898     1.5526646277     0.8451635515
   20      C      -5.3865914855     1.1418402102     1.5551511531
   21      C      -4.9684830464    -0.1971336190     2.2751400923
   22      C      -3.4741194997    -0.3449757260     1.7975385325
   23      O      -3.0088194046     1.0676270536     1.8026522602
   24      H      -4.7952942653     0.5341753467    -0.9650031347
   25      H      -4.3057650235    -1.4773656579     0.0806251097
   26      H      -3.9085910742     2.6372222449     0.6618833133
   27      H      -5.6912162879     1.9121726608     2.2813882413
   28      H      -6.2035316569     0.9956674047     0.8307435832
   29      H      -5.0129160751    -0.0941567257     3.3711233816
   30      H      -5.5886209686    -1.0563445461     1.9738511479
   31      H      -2.8164801825    -0.9726741791     2.4306740960
   32      O       1.2024959858     0.8439859108    -1.8979238753
   33      C       1.1716199077    -3.5571022359     1.0784936760
   34      C       4.5368203862    -0.6710931611     1.0460368116
   35      C       5.9909945905    -0.3918042645     0.4947000616
   36      C       5.8327511898     1.0763592993    -0.0499741065
   37      C       4.3086711845     1.3521224646     0.2591943188
   38      O       4.0862818874     0.6468151033     1.5435043924
   39      H       4.0334493802    -1.6312841614    -0.9166156981
   40      H       3.8718381605     0.5707100646    -1.7933028176
   41      H       0.2614459058    -2.9830554862     0.7866695786
   42      H       4.4723096892    -1.4363065638     1.8442158966
   43      H       6.7289869852    -0.4451079436     1.3108905727
   44      H       6.2799848824    -1.1087877622    -0.2904764585
   45      H       6.4710142365     1.7829876041     0.5039178109
   46      H       6.0616968869     1.1597740752    -1.1243807160
   47      H       4.0258800314     2.4179483124     0.3502587282
   48      H       1.2254126543    -3.6191272686     2.1840892315
   49      H       1.1374788360    -4.5814807625     0.6626639128
   50      H      -0.8218501759    -1.9200409577    -3.1551424391
   51      H      -0.2507032279    -2.4110382073    -1.5041277153
   52      H       0.0260749588    -0.7097597717    -2.0962008433
   53      H      -0.4008183512     0.3260886565     0.0074809830
   54      H      -1.6339199466     1.3615940204     0.8199253468
   55      H       0.1709035815     3.0973008602    -0.7480275832
   56      H       0.1296670490     2.9933752878     1.0558344522
 ----------------------------------------------------------------

    9   -1510.2855922150      5.67E-09 Convergence criterion met
 Total energy in the final basis set = -1510.28559221
 Final energy is   -1510.28559221497
 **  OPTIMIZATION CONVERGED  **

                    Orbital Energies (a.u.)
 --------------------------------------------------------------

 Alpha MOs
 -- Occupied --
-18.944 -18.937 -18.924 -18.915 -18.907 -18.887 -18.886 -18.882
-18.861 -18.843 -10.112 -10.105 -10.094 -10.083 -10.072 -10.071
-10.061 -10.057 -10.056 -10.050 -10.045 -10.044 -10.039 -10.034
-10.033 -10.030 -10.029 -10.027 -10.020 -10.018  -1.018  -1.014
 -0.999  -0.990  -0.980  -0.969  -0.944  -0.939  -0.926  -0.911
 -0.771  -0.762  -0.728  -0.722  -0.712  -0.708  -0.684  -0.659
 -0.656  -0.603  -0.599  -0.576  -0.554  -0.547  -0.544  -0.536
 -0.518  -0.509  -0.484  -0.473  -0.469  -0.457  -0.445  -0.444
 -0.440  -0.432  -0.418  -0.418  -0.410  -0.406  -0.403  -0.400
 -0.388  -0.380  -0.375  -0.368  -0.359  -0.357  -0.350  -0.347
 -0.340  -0.337  -0.334  -0.328  -0.325  -0.323  -0.318  -0.315
 -0.311  -0.306  -0.304  -0.301  -0.298  -0.283  -0.278  -0.277
 -0.273  -0.255  -0.254  -0.240  -0.239  -0.232  -0.222  -0.183
 -0.177  -0.167  -0.165  -0.159  -0.156  -0.145  -0.141  -0.139
 -0.125

          Ground-State Mulliken Net Atomic Charges

     Atom                 Charge (a.u.)
  ----------------------------------------
      1 O                    -0.213529
      2 C                     0.216812
      3 C                    -0.078774
      4 C                    -0.081593
      5 C                     0.217272
      6 O                    -0.168460
      7 C                    -0.048202
      8 C                    -0.088134
      9 O                    -0.174177
     10 C                     0.210356
     11 C                    -0.085151
     12 C                    -0.081971
     13 C                     0.219409
     14 O                    -0.214263
     15 O                    -0.171417
     16 O                    -0.162637
     17 O                    -0.216280
     18 C                    -0.140056
     19 C                     0.022224
     20 C                    -0.142736
     21 C                    -0.142046
     22 C                     0.025131
     23 O                    -0.184652
     24 H                     0.088372
     25 H                     0.087977
     26 H                     0.087634
     27 H                     0.080684
     28 H                     0.077985
     29 H                     0.080995
     30 H                     0.076626
     31 H                     0.094411
     32 O                    -0.222420
     33 C                    -0.149004
     34 C                     0.025574
     35 C                    -0.143767
     36 C                    -0.144241
     37 C                     0.025858
     38 O                    -0.187937
     39 H                     0.086904
     40 H                     0.083179
     41 H                     0.121892
     42 H                     0.084630
     43 H                     0.077934
     44 H                     0.073713
     45 H                     0.077710
     46 H                     0.073409
     47 H                     0.089184
     48 H                     0.080360
     49 H                     0.082140
     50 H                     0.089870
     51 H                     0.087994
     52 H                     0.115813
     53 H                     0.095050
     54 H                     0.107888
     55 H                     0.090211
     56 H                     0.086243
  ----------------------------------------
  Sum of atomic charges =     0.000000

                    Cartesian Multipole Moments
 -----------------------------------------------------------------
    Charge (ESU x 10^10)
                -0.0000
    Dipole Moment (Debye)
         X       0.0708      Y      -1.7205      Z       2.1007
       Tot       2.7163
    Quadrupole Moments (Debye-Ang)
        XX    -136.7002     XY       1.4496     YY    -154.6209
        XZ     -15.4034     YZ       3.9345     ZZ    -170.8798

 Total job time:  129.07s(wall), 6153.90s(cpu)
        *  Thank you very much for using Q-Chem.  Have a nice day.  *
