 Q-Chem 5.0, Q-Chem, Inc., Pleasanton, CA (2017)
 Q-Chem 5.0.1 for Intel X86 EM64T Linux

User input:
--------------------------------------------------------------
$molecule
0  1
O -3.94934 -3.66094 2.70899
C -3.26408 -4.56952 2.26188
C -3.36658 -6.02376 2.66595
C -4.73745 -6.52338 3.15068
C -5.89497 -5.55994 3.00924
O -5.70875 -4.48672 3.83323
C -6.4981 -3.3506 3.46527
C -7.77633 -3.80262 2.76675
O -8.92254 -3.2876 3.46235
C -10.12521 -3.62361 2.93337
C -10.36107 -3.01214 1.57281
C -10.66279 -4.01966 0.45381
C -11.03393 -5.41774 0.90584
O -10.98949 -6.42255 0.2109
O -2.19365 -4.24307 1.48994
O -11.81544 -5.51729 2.01491
O -11.05842 -3.79356 3.70451
C -12.35766 -6.68932 2.50253
C -11.63848 -2.13818 1.50081
C -11.52371 -1.1393 0.34874
C -11.63932 -2.06908 -0.84134
C -11.94404 -3.38994 -0.12506
O -12.64205 -3.00211 1.03261
H -9.52195 -2.32689 1.31982
H -9.84615 -4.11003 -0.29568
H -11.8585 -1.59953 2.44854
H -12.43438 -0.49907 0.38906
H -10.6233 -0.48817 0.35612
H -12.50249 -1.73954 -1.46114
H -10.72602 -2.15359 -1.46945
H -12.48255 -4.08677 -0.80547
O -6.22085 -5.44793 1.82479
C -1.8956 -2.96263 1.07281
C -3.16021 -6.99378 1.4719
C -2.67943 -8.35152 1.98491
C -3.94463 -8.87305 2.63359
C -4.92643 -7.76061 2.25076
O -4.45273 -7.2989 1.0105
H -2.53953 -6.20536 3.38827
H -4.70404 -6.8025 4.22754
H -1.72102 -2.30395 1.95021
H -2.45034 -6.61675 0.70441
H -2.45968 -8.97659 1.08947
H -1.78241 -8.32877 2.64035
H -4.22284 -9.83187 2.14241
H -3.8918 -9.01032 3.73538
H -5.97387 -8.13465 2.26946
H -2.72843 -2.55787 0.45875
H -0.97475 -2.98651 0.45487
H -12.93999 -6.46569 3.41969
H -11.5482 -7.40595 2.75825
H -13.03769 -7.14115 1.74927
H -7.73837 -3.5331 1.68895
H -8.05668 -4.87429 2.88455
H -5.97126 -2.53298 2.93204
H -6.79682 -2.9041 4.43815
$end

$opt
CONSTRAINT
tors           1           2           3           4     +28.421
tors           3           4           5           6     -66.316
tors           4           5           6           7    +161.053
tors           5           6           7           8     +28.421
tors           6           7           8           9    +123.158
tors           7           8           9          10    -180.000
tors           8           9          10          11     -66.316
tors           9          10          11          12    +123.158
tors          11          12          13          14    -161.053
ENDCONSTRAINT
$end

$rem
JOBTYPE                   OPT
METHOD                    B3LYP
DFT_D                     d3_op
BASIS                     STO-3G
GEOM_OPT_MAX_CYCLES       100
GEOM_OPT_TOL_GRADIENT     300
GEOM_OPT_TOL_DISPLACEMENT 1200
GEOM_OPT_TOL_ENERGY       100
SYMMETRY                  False
THRESH                    12
SCF_CONVERGENCE           8
MAX_SUB_FILE_NUM          128
MEM_STATIC                400
MEM_TOTAL                 4000
$end
--------------------------------------------------------------

   16   -1510.0462306419      4.51E-09 Convergence criterion met
 Total energy in the final basis set = -1510.04623064
   15   -1510.1279564038      3.25E-09 Convergence criterion met
 Total energy in the final basis set = -1510.12795640
   14   -1510.1754455302      7.73E-09 Convergence criterion met
 Total energy in the final basis set = -1510.17544553
   14   -1510.2038597850      7.95E-09 Convergence criterion met
 Total energy in the final basis set = -1510.20385979
   14   -1510.2181245425      9.82E-09 Convergence criterion met
 Total energy in the final basis set = -1510.21812454
   14   -1510.2273028977      3.79E-09 Convergence criterion met
 Total energy in the final basis set = -1510.22730290
   13   -1510.2331689008      3.74E-09 Convergence criterion met
 Total energy in the final basis set = -1510.23316890
   13   -1510.2374653304      3.56E-09 Convergence criterion met
   11   -1510.2525160580      5.73E-09 Convergence criterion met
 Total energy in the final basis set = -1510.25251606
   11   -1510.2525424047      4.27E-09 Convergence criterion met
 Total energy in the final basis set = -1510.25254240
   10   -1510.2525494225      9.86E-09 Convergence criterion met
 Total energy in the final basis set = -1510.25254942
   11   -1510.2525587053      2.53E-09 Convergence criterion met
 Total energy in the final basis set = -1510.25255871
    9   -1510.2525614754      5.53E-09 Convergence criterion met
 Total energy in the final basis set = -1510.25256148
    9   -1510.2525629363      2.45E-09 Convergence criterion met
 Total energy in the final basis set = -1510.25256294

             Standard Nuclear Orientation (Angstroms)
    I     Atom           X                Y                Z
 ----------------------------------------------------------------
    1      O       2.6585089694    -1.4037149764     0.5412887885
    2      C       3.8431982523    -1.0010518092     0.5465757835
    3      C       4.4900244807     0.0950843366    -0.3825392332
    4      C       3.4304129217     1.1674585938    -0.8605976718
    5      C       1.9301159884     0.6915550953    -0.8244120330
    6      O       1.8110075033    -0.3405052397    -1.8006411252
    7      C       0.6476938580    -1.2648507489    -1.7035668824
    8      C      -0.6870326307    -0.7361667809    -1.0513703476
    9      O      -1.7652891283    -0.9155849274    -2.0474937120
   10      C      -3.0307384032    -0.4442972520    -1.5043726894
   11      C      -3.5858929608    -1.2931922958    -0.2803422334
   12      C      -3.8638616385    -0.4980777713     1.0617621536
   13      C      -3.1155693122     0.8602407631     1.2980689513
   14      O      -2.9736628701     1.4093574302     2.4148844697
   15      O       4.8538872829    -1.5495182937     1.3947275434
   16      O      -2.5526641768     1.3648375933     0.0881489870
   17      O      -3.7305221339     0.3246455328    -2.1952915387
   18      C      -1.7569391237     2.5921311334     0.3423499698
   19      C      -5.0781582569    -1.6984279167    -0.6602684138
   20      C      -5.6458733485    -2.7232001429     0.4024712759
   21      C      -6.0134685814    -1.7646241001     1.5951873890
   22      C      -5.4581372672    -0.3930795706     1.0457626264
   23      O      -5.8183408407    -0.4443967241    -0.3863336474
   24      H      -2.9402918210    -2.1707429331    -0.1061966656
   25      H      -3.5661394143    -1.1275137914     1.9210311076
   26      H      -5.2112740439    -1.9986571313    -1.7175384009
   27      H      -6.5345161747    -3.2386568801     0.0054156713
   28      H      -4.8958841960    -3.4802203207     0.6832698175
   29      H      -7.1041776419    -1.7034438034     1.7396985448
   30      H      -5.5449856975    -2.0599550005     2.5473015001
   31      H      -5.8702579683     0.5163004487     1.5245887627
   32      O       1.0286580475     1.2114988227    -0.1251068795
   33      C       4.2749662762    -2.6090288024     2.2537074586
   34      C       5.4107447977     1.0184167714     0.5221197673
   35      C       6.1313655836     2.1155823214    -0.3585884936
   36      C       4.9741542846     3.1646354211    -0.5638922607
   37      C       3.7656354741     2.3906537926     0.0894126536
   38      O       4.3866036720     1.7740924651     1.2863599196
   39      H       5.0205166432    -0.3894978960    -1.2225814564
   40      H       3.6447933241     1.4352418213    -1.9118604974
   41      H       3.8951690188    -3.4588848644     1.6502722433
   42      H       6.0674889429     0.4505167904     1.2083088558
   43      H       6.9846476850     2.5503072011     0.1853796567
   44      H       6.4964381639     1.6989095664    -1.3112883632
   45      H       5.1758168438     4.0967388305    -0.0117509481
   46      H       4.7981518604     3.4090981552    -1.6235762832
   47      H       2.8861441067     2.9999738749     0.3752399849
   48      H       3.4447201118    -2.2192814016     2.8768026888
   49      H       5.0981511317    -2.9559029486     2.9048721612
   50      H      -2.0662288471     3.3568212969    -0.3950185857
   51      H      -0.6798375301     2.3506982429     0.2146208226
   52      H      -1.9473535652     2.9431581242     1.3759770371
   53      H      -0.8869141996    -1.3125367387    -0.1218073535
   54      H      -0.5472251665     0.3242146191    -0.7590625630
   55      H       1.0047974699    -2.1601971059    -1.1495276867
   56      H       0.4328608254    -1.5636987400    -2.7521372103
 ----------------------------------------------------------------

    9   -1510.2525635709      2.81E-09 Convergence criterion met
 Total energy in the final basis set = -1510.25256357
 Final energy is   -1510.25256357090
 **  OPTIMIZATION CONVERGED  **

                    Orbital Energies (a.u.)
 --------------------------------------------------------------

 Alpha MOs
 -- Occupied --
-18.946 -18.934 -18.933 -18.897 -18.888 -18.886 -18.886 -18.882
-18.872 -18.869 -10.112 -10.110 -10.098 -10.090 -10.073 -10.069
-10.061 -10.060 -10.058 -10.056 -10.052 -10.046 -10.045 -10.038
-10.035 -10.031 -10.023 -10.022 -10.019 -10.017  -1.024  -1.009
 -1.008  -0.988  -0.972  -0.967  -0.947  -0.942  -0.932  -0.921
 -0.767  -0.759  -0.728  -0.719  -0.713  -0.701  -0.694  -0.669
 -0.652  -0.610  -0.596  -0.587  -0.546  -0.542  -0.539  -0.536
 -0.516  -0.507  -0.485  -0.475  -0.460  -0.458  -0.454  -0.446
 -0.434  -0.429  -0.420  -0.418  -0.414  -0.409  -0.406  -0.402
 -0.389  -0.383  -0.376  -0.376  -0.361  -0.357  -0.353  -0.347
 -0.342  -0.339  -0.336  -0.329  -0.329  -0.323  -0.315  -0.314
 -0.312  -0.310  -0.305  -0.303  -0.294  -0.288  -0.286  -0.279
 -0.270  -0.263  -0.247  -0.243  -0.237  -0.230  -0.218  -0.188
 -0.177  -0.171  -0.166  -0.160  -0.154  -0.147  -0.145  -0.141
 -0.132

          Ground-State Mulliken Net Atomic Charges

     Atom                 Charge (a.u.)
  ----------------------------------------
      1 O                    -0.216007
      2 C                     0.215686
      3 C                    -0.075293
      4 C                    -0.081203
      5 C                     0.226501
      6 O                    -0.173713
      7 C                    -0.047317
      8 C                    -0.063658
      9 O                    -0.191251
     10 C                     0.222423
     11 C                    -0.083581
     12 C                    -0.081398
     13 C                     0.208635
     14 O                    -0.217291
     15 O                    -0.167839
     16 O                    -0.168541
     17 O                    -0.188117
     18 C                    -0.142901
     19 C                     0.026711
     20 C                    -0.145831
     21 C                    -0.142098
     22 C                     0.026482
     23 O                    -0.183243
     24 H                     0.077635
     25 H                     0.083293
     26 H                     0.084860
     27 H                     0.078110
     28 H                     0.072262
     29 H                     0.078108
     30 H                     0.073731
     31 H                     0.085514
     32 O                    -0.218911
     33 C                    -0.127509
     34 C                     0.022575
     35 C                    -0.145574
     36 C                    -0.141896
     37 C                     0.022220
     38 O                    -0.192818
     39 H                     0.088804
     40 H                     0.084916
     41 H                     0.088884
     42 H                     0.091039
     43 H                     0.078757
     44 H                     0.073538
     45 H                     0.078556
     46 H                     0.073828
     47 H                     0.089430
     48 H                     0.093282
     49 H                     0.092945
     50 H                     0.087472
     51 H                     0.102818
     52 H                     0.099945
     53 H                     0.070657
     54 H                     0.110851
     55 H                     0.089807
     56 H                     0.095714
  ----------------------------------------
  Sum of atomic charges =    -0.000000

                    Cartesian Multipole Moments
 -----------------------------------------------------------------
    Charge (ESU x 10^10)
                 0.0000
    Dipole Moment (Debye)
         X       3.9329      Y      -2.6434      Z       0.8973
       Tot       4.8229
    Quadrupole Moments (Debye-Ang)
        XX    -153.4264     XY       8.1512     YY    -148.4466
        XZ     -11.6636     YZ      -6.6407     ZZ    -167.6476

 Total job time:  115.66s(wall), 5509.45s(cpu)
        *  Thank you very much for using Q-Chem.  Have a nice day.  *
