 Q-Chem 5.0, Q-Chem, Inc., Pleasanton, CA (2017)
 Q-Chem 5.0.1 for Intel X86 EM64T Linux

User input:
--------------------------------------------------------------
$molecule
0  1
O 2.6585089694 -1.4037149764 0.5412887885
C 3.8431982523 -1.0010518092 0.5465757835
C 4.4900244807 0.0950843366 -0.3825392332
C 3.4304129217 1.1674585938 -0.8605976718
C 1.9301159884 0.6915550953 -0.824412033
O 1.8110075033 -0.3405052397 -1.8006411252
C 0.647693858 -1.2648507489 -1.7035668824
C -0.6870326307 -0.7361667809 -1.0513703476
O -1.7652891283 -0.9155849274 -2.047493712
C -3.0307384032 -0.444297252 -1.5043726894
C -3.5858929608 -1.2931922958 -0.2803422334
C -3.8638616385 -0.4980777713 1.0617621536
C -3.1155693122 0.8602407631 1.2980689513
O -2.9736628701 1.4093574302 2.4148844697
O 4.8538872829 -1.5495182937 1.3947275434
O -2.5526641768 1.3648375933 0.088148987
O -3.7305221339 0.3246455328 -2.1952915387
C -1.7569391237 2.5921311334 0.3423499698
C -5.0781582569 -1.6984279167 -0.6602684138
C -5.6458733485 -2.7232001429 0.4024712759
C -6.0134685814 -1.7646241001 1.595187389
C -5.4581372672 -0.3930795706 1.0457626264
O -5.8183408407 -0.4443967241 -0.3863336474
H -2.940291821 -2.1707429331 -0.1061966656
H -3.5661394143 -1.1275137914 1.9210311076
H -5.2112740439 -1.9986571313 -1.7175384009
H -6.5345161747 -3.2386568801 0.0054156713
H -4.895884196 -3.4802203207 0.6832698175
H -7.1041776419 -1.7034438034 1.7396985448
H -5.5449856975 -2.0599550005 2.5473015001
H -5.8702579683 0.5163004487 1.5245887627
O 1.0286580475 1.2114988227 -0.1251068795
C 4.2749662762 -2.6090288024 2.2537074586
C 5.4107447977 1.0184167714 0.5221197673
C 6.1313655836 2.1155823214 -0.3585884936
C 4.9741542846 3.1646354211 -0.5638922607
C 3.7656354741 2.3906537926 0.0894126536
O 4.386603672 1.7740924651 1.2863599196
H 5.0205166432 -0.389497896 -1.2225814564
H 3.6447933241 1.4352418213 -1.9118604974
H 3.8951690188 -3.4588848644 1.6502722433
H 6.0674889429 0.4505167904 1.2083088558
H 6.984647685 2.5503072011 0.1853796567
H 6.4964381639 1.6989095664 -1.3112883632
H 5.1758168438 4.0967388305 -0.0117509481
H 4.7981518604 3.4090981552 -1.6235762832
H 2.8861441067 2.9999738749 0.3752399849
H 3.4447201118 -2.2192814016 2.8768026888
H 5.0981511317 -2.9559029486 2.9048721612
H -2.0662288471 3.3568212969 -0.3950185857
H -0.6798375301 2.3506982429 0.2146208226
H -1.9473535652 2.9431581242 1.3759770371
H -0.8869141996 -1.3125367387 -0.1218073535
H -0.5472251665 0.3242146191 -0.759062563
H 1.0047974699 -2.1601971059 -1.1495276867
H 0.4328608254 -1.56369874 -2.7521372103
$end

$rem
JOBTYPE                   OPT
METHOD                    B3LYP
DFT_D                     d3_op
BASIS                     STO-3G
GEOM_OPT_MAX_CYCLES       100
GEOM_OPT_TOL_GRADIENT     300
GEOM_OPT_TOL_DISPLACEMENT 1200
GEOM_OPT_TOL_ENERGY       100
SYMMETRY                  False
THRESH                    12
SCF_CONVERGENCE           8
MAX_SUB_FILE_NUM          128
MEM_STATIC                400
MEM_TOTAL                 4000
$end
--------------------------------------------------------------

   16   -1510.2526181736      5.62E-09 Convergence criterion met
 Total energy in the final basis set = -1510.25261817
   13   -1510.2546875786      7.81E-09 Convergence criterion met
 Total energy in the final basis set = -1510.25468758
   13   -1510.2565186026      9.32E-09 Convergence criterion met
 Total energy in the final basis set = -1510.25651860
   13   -1510.2591748170      8.23E-09 Convergence criterion met
 Total energy in the final basis set = -1510.25917482
   13   -1510.2613339273      4.62E-09 Convergence criterion met
 Total energy in the final basis set = -1510.26133393
   13   -1510.2635016532      8.02E-09 Convergence criterion met
 Total energy in the final basis set = -1510.26350165
   13   -1510.2653674333      9.14E-09 Convergence criterion met
 Total energy in the final basis set = -1510.26536743
   13   -1510.2671852927      9.00E-09 Convergence criterion met
   11   -1510.2855836902      9.47E-09 Convergence criterion met
 Total energy in the final basis set = -1510.28558369
   12   -1510.2856327467      8.85E-09 Convergence criterion met
 Total energy in the final basis set = -1510.28563275
   12   -1510.2856537243      5.16E-09 Convergence criterion met
 Total energy in the final basis set = -1510.28565372
   11   -1510.2856591065      8.42E-09 Convergence criterion met
 Total energy in the final basis set = -1510.28565911
   12   -1510.2856575996      4.15E-09 Convergence criterion met
 Total energy in the final basis set = -1510.28565760
    9   -1510.2856608676      9.96E-09 Convergence criterion met
 Total energy in the final basis set = -1510.28566087

             Standard Nuclear Orientation (Angstroms)
    I     Atom           X                Y                Z
 ----------------------------------------------------------------
    1      O       3.2991140469    -2.3658653239    -0.5399995793
    2      C       4.1285016795    -1.4303312106    -0.4655865173
    3      C       3.8655430143     0.0225323870     0.0492369064
    4      C       2.3486753981     0.2733658018     0.4223491495
    5      C       1.3964030603    -0.9492151652     0.1675943988
    6      O       1.0126636696    -0.9491015550    -1.2295630158
    7      C       0.2215975738    -2.1653001250    -1.5314534655
    8      C      -1.3013446276    -2.0054313422    -1.1759275224
    9      O      -1.8944606590    -1.1660642033    -2.2354082767
   10      C      -3.1202045359    -0.4804018088    -1.9101332440
   11      C      -3.6910608591    -0.5247007717    -0.4265271034
   12      C      -2.8914286999     0.3203345802     0.6570833318
   13      C      -1.5506719794     0.9440529296     0.1454130341
   14      O      -0.4816948698     1.0416874814     0.7896354600
   15      O       5.5013515422    -1.5491400285    -0.8382183135
   16      O      -1.7226954963     1.3822393107    -1.2001337914
   17      O      -3.7217326811     0.0658118535    -2.8597962126
   18      C      -0.4049267313     1.6389765967    -1.8338748060
   19      C      -5.0885022981     0.2269062762    -0.4080695682
   20      C      -5.8405748483    -0.1355945810     0.9323807152
   21      C      -5.0508378015     0.7411182549     1.9737698179
   22      C      -3.9772896773     1.4239022351     1.0375194341
   23      O      -4.7071505823     1.6468546892    -0.2266370636
   24      H      -3.7973491199    -1.5760102018    -0.1035416597
   25      H      -2.6426954811    -0.2949181932     1.5402965327
   26      H      -5.6714745678     0.1049602654    -1.3413730908
   27      H      -6.8995043714     0.1621521483     0.8738132691
   28      H      -5.7889182013    -1.2128744091     1.1575176967
   29      H      -5.6987790130     1.5037964976     2.4342034328
   30      H      -4.5852438217     0.1415936426     2.7721725090
   31      H      -3.5528530453     2.3733099240     1.4181748195
   32      O       0.9292323687    -1.7422558050     1.0101605555
   33      C       5.7810308686    -2.9259885538    -1.3109529786
   34      C       4.5612830194     0.2741858376     1.4583954737
   35      C       4.5381708733     1.8267864455     1.7520022509
   36      C       3.0292391237     2.0403882159     2.1465261255
   37      C       2.4614507947     0.5793568217     1.9731813871
   38      O       3.5831781954    -0.2834671299     2.4170833777
   39      H       4.2288375010     0.7381261838    -0.7105481686
   40      H       1.9471692624     1.1379152735    -0.1321372535
   41      H       5.1937200857    -3.1704644994    -2.2197249121
   42      H       5.5482422746    -0.2154575484     1.5708061336
   43      H       5.2146494288     2.0702093711     2.5866426123
   44      H       4.8367359243     2.4176793161     0.8713859802
   45      H       2.9285334587     2.3712849498     3.1923356194
   46      H       2.5137491862     2.7637980878     1.4951507600
   47      H       1.5402605420     0.3475218196     2.5415175803
   48      H       5.5520393800    -3.6791826960    -0.5297823499
   49      H       6.8601197255    -2.9527799762    -1.5492283753
   50      H      -0.6239951549     1.8725696688    -2.8912250200
   51      H       0.2339367787     0.7253315725    -1.7588924376
   52      H       0.1070093472     2.5014147950    -1.3606078862
   53      H      -1.7792814268    -3.0117836282    -1.1685533078
   54      H      -1.3914795179    -1.5743038782    -0.1598497890
   55      H       0.6355075762    -3.0348736760    -0.9782621341
   56      H       0.3235144254    -2.3327757119    -2.6229463375
 ----------------------------------------------------------------

    9   -1510.2856607976      9.17E-09 Convergence criterion met
 Total energy in the final basis set = -1510.28566080
 Final energy is   -1510.28566079757
 **  OPTIMIZATION CONVERGED  **

                    Orbital Energies (a.u.)
 --------------------------------------------------------------

 Alpha MOs
 -- Occupied --
-18.946 -18.938 -18.929 -18.920 -18.888 -18.887 -18.885 -18.875
-18.870 -18.860 -10.108 -10.102 -10.098 -10.093 -10.073 -10.071
-10.071 -10.061 -10.061 -10.056 -10.054 -10.049 -10.041 -10.039
-10.035 -10.033 -10.020 -10.020 -10.019 -10.017  -1.022  -1.015
 -1.005  -0.994  -0.970  -0.969  -0.945  -0.938  -0.934  -0.925
 -0.763  -0.762  -0.724  -0.722  -0.713  -0.703  -0.699  -0.668
 -0.654  -0.610  -0.599  -0.585  -0.548  -0.544  -0.538  -0.535
 -0.512  -0.509  -0.491  -0.477  -0.467  -0.457  -0.453  -0.445
 -0.432  -0.430  -0.427  -0.418  -0.417  -0.414  -0.407  -0.401
 -0.393  -0.384  -0.378  -0.370  -0.363  -0.356  -0.354  -0.346
 -0.344  -0.337  -0.334  -0.330  -0.328  -0.325  -0.313  -0.312
 -0.308  -0.307  -0.302  -0.299  -0.297  -0.292  -0.278  -0.277
 -0.274  -0.260  -0.252  -0.247  -0.234  -0.233  -0.232  -0.188
 -0.180  -0.169  -0.162  -0.161  -0.156  -0.149  -0.143  -0.143
 -0.137

          Ground-State Mulliken Net Atomic Charges

     Atom                 Charge (a.u.)
  ----------------------------------------
      1 O                    -0.209157
      2 C                     0.214878
      3 C                    -0.079048
      4 C                    -0.078205
      5 C                     0.223640
      6 O                    -0.179129
      7 C                    -0.046435
      8 C                    -0.052439
      9 O                    -0.178382
     10 C                     0.216858
     11 C                    -0.085391
     12 C                    -0.084076
     13 C                     0.205242
     14 O                    -0.220987
     15 O                    -0.167917
     16 O                    -0.162438
     17 O                    -0.206085
     18 C                    -0.140350
     19 C                     0.026322
     20 C                    -0.145000
     21 C                    -0.143486
     22 C                     0.026620
     23 O                    -0.184793
     24 H                     0.077335
     25 H                     0.083924
     26 H                     0.092784
     27 H                     0.078510
     28 H                     0.072377
     29 H                     0.078453
     30 H                     0.073691
     31 H                     0.083160
     32 O                    -0.215147
     33 C                    -0.128102
     34 C                     0.025146
     35 C                    -0.143951
     36 C                    -0.143188
     37 C                     0.028058
     38 O                    -0.190480
     39 H                     0.086924
     40 H                     0.090054
     41 H                     0.090223
     42 H                     0.084648
     43 H                     0.077804
     44 H                     0.072986
     45 H                     0.077790
     46 H                     0.075095
     47 H                     0.094668
     48 H                     0.092368
     49 H                     0.092735
     50 H                     0.092819
     51 H                     0.107535
     52 H                     0.079071
     53 H                     0.080384
     54 H                     0.088357
     55 H                     0.099533
     56 H                     0.094196
  ----------------------------------------
  Sum of atomic charges =    -0.000000

                    Cartesian Multipole Moments
 -----------------------------------------------------------------
    Charge (ESU x 10^10)
                -0.0000
    Dipole Moment (Debye)
         X       2.1153      Y      -0.8570      Z       1.0071
       Tot       2.4946
    Quadrupole Moments (Debye-Ang)
        XX    -147.7015     XY       7.3260     YY    -154.2571
        XZ     -18.5155     YZ       7.8381     ZZ    -169.3639

 Total job time:  200.65s(wall), 9574.38s(cpu)
        *  Thank you very much for using Q-Chem.  Have a nice day.  *
