 Q-Chem 5.0, Q-Chem, Inc., Pleasanton, CA (2017)
 Q-Chem 5.0.1 for Intel X86 EM64T Linux

User input:
--------------------------------------------------------------
$molecule
0  1
O 0.8657014867 1.3625311529 1.7375459246
C 1.9133397874 1.3746773712 1.0536081402
C 2.9851727195 0.2316674591 1.0928407353
C 2.3390651902 -1.2156577109 0.9770102645
C 0.7578195144 -1.2486228701 0.7349193474
O 0.0737783561 -0.7831729789 -0.4493274244
C 0.8214566858 -0.8379682493 -1.7260257404
C -0.1709424655 -1.2563065481 -2.8852463604
O -1.4720806283 -0.5770100907 -2.9877255764
C -2.3165303228 -0.8971839876 -1.8338592414
C -2.7108915813 0.4797333567 -1.1588857611
C -3.2393187196 0.6045500535 0.3326868362
C -2.913012256 -0.5228224867 1.3899168345
O -2.6485049584 -0.3038536629 2.5935916418
O 2.277802328 2.4046131675 0.1391069954
O -3.1149501406 -1.8148121631 0.8357205732
O -2.7085664292 -2.0528591294 -1.5955176759
C -2.7223104688 -2.8512266965 1.8212871139
C -1.6099358588 1.6167172673 -1.2102852456
C -2.3472113892 2.9999217769 -1.4012897232
C -3.0233017547 3.1747444438 0.0107000898
C -2.4662011791 1.9147049145 0.7818355606
O -1.1230030271 1.7052919712 0.183334736
H -3.5462075161 0.8207859948 -1.8052144435
H -4.3351742533 0.7545045052 0.3338131358
H -0.7841268109 1.4188786667 -1.9168767844
H -1.6133494346 3.7982094402 -1.5966978142
H -3.0750840622 2.978243572 -2.2279186843
H -2.6990202029 4.1051462781 0.5028682745
H -4.1236224927 3.1698012955 -0.0430907947
H -2.3802732309 2.0098025909 1.882181549
O 0.017269444 -1.6334985202 1.67032397
C 1.1941207588 3.4241561286 0.0991071741
C 4.0954859829 0.1839633808 -0.0387501008
C 5.3236685194 -0.6142756017 0.5485451209
C 4.7332049177 -2.0738491436 0.5859489756
C 3.3187270347 -1.8613698976 -0.0936625142
O 3.5639776864 -0.7567923397 -1.0518448078
H 3.4777531393 0.3156674422 2.0796528193
H 2.4376010042 -1.7460703919 1.940971739
H 1.3179909227 4.1512986362 0.9269647537
H 4.3254282055 1.1636574179 -0.4997235308
H 6.1858768324 -0.5486148322 -0.1341779456
H 5.6289251735 -0.2503102551 1.5424482327
H 5.3414590748 -2.7727852577 -0.0097875034
H 4.6428717731 -2.4710631323 1.6097343429
H 2.927503876 -2.7588732194 -0.6106202789
H 0.1968293078 2.9169452152 0.1815735816
H 1.3045796835 3.9510793877 -0.8662220827
H -2.9053486961 -3.821547773 1.3250912633
H -3.3232623741 -2.7830149927 2.7505977916
H -1.6447038768 -2.732250748 2.0633870613
H 0.3449066847 -1.0565038985 -3.8480066467
H -0.325905418 -2.3573786834 -2.8058991029
H 1.6409586679 -1.5746392744 -1.7259479766
H 1.2645714888 0.1607462303 -1.9341988128
$end

$rem
JOBTYPE                   OPT
METHOD                    B3LYP
DFT_D                     d3_op
BASIS                     STO-3G
GEOM_OPT_MAX_CYCLES       100
GEOM_OPT_TOL_GRADIENT     300
GEOM_OPT_TOL_DISPLACEMENT 1200
GEOM_OPT_TOL_ENERGY       100
SYMMETRY                  False
THRESH                    12
SCF_CONVERGENCE           8
MAX_SUB_FILE_NUM          128
MEM_STATIC                400
MEM_TOTAL                 4000
$end
--------------------------------------------------------------

   16   -1510.2456933022      6.57E-09 Convergence criterion met
 Total energy in the final basis set = -1510.24569330
   15   -1510.2335222625      5.64E-09 Convergence criterion met
 Total energy in the final basis set = -1510.23352226
   14   -1510.2410168519      5.63E-09 Convergence criterion met
 Total energy in the final basis set = -1510.24101685
   15   -1510.2295028523      4.96E-09 Convergence criterion met
 Total energy in the final basis set = -1510.22950285
   15   -1510.2455006443      5.37E-09 Convergence criterion met
 Total energy in the final basis set = -1510.24550064
   15   -1510.2538313116      3.28E-09 Convergence criterion met
 Total energy in the final basis set = -1510.25383131
   14   -1510.2589867578      3.33E-09 Convergence criterion met
 Total energy in the final basis set = -1510.25898676
   13   -1510.2631561525      5.77E-09 Convergence criterion met
   10   -1510.2918366385      3.38E-09 Convergence criterion met
 Total energy in the final basis set = -1510.29183664
    9   -1510.2918385704      8.99E-09 Convergence criterion met
 Total energy in the final basis set = -1510.29183857
    9   -1510.2918394953      7.58E-09 Convergence criterion met
 Total energy in the final basis set = -1510.29183950
    9   -1510.2918400825      3.82E-09 Convergence criterion met
 Total energy in the final basis set = -1510.29184008
    9   -1510.2918401898      4.03E-09 Convergence criterion met
 Total energy in the final basis set = -1510.29184019
    9   -1510.2918398990      4.13E-09 Convergence criterion met
 Total energy in the final basis set = -1510.29183990

             Standard Nuclear Orientation (Angstroms)
    I     Atom           X                Y                Z
 ----------------------------------------------------------------
    1      O       0.9169974814     0.9694789822     2.2102815593
    2      C       1.7246117649     0.7414041829     1.2798555689
    3      C       2.9296411611    -0.2576613697     1.3189253083
    4      C       2.7572980489    -1.6365105869     0.5297993126
    5      C       1.3168901781    -2.0749926716     0.0073247278
    6      O       0.8241752813    -1.7748302651    -1.2951644552
    7      C       1.3740113291    -0.5768207630    -1.9746503920
    8      C       0.2575335452    -0.0291803014    -2.9342605630
    9      O      -0.8592675481     0.6474225759    -2.2283364112
   10      C      -1.8885801044    -0.3134748279    -1.9066344985
   11      C      -3.1437976931     0.3909319740    -1.2651565018
   12      C      -3.2191484554     0.2801137727     0.3141992782
   13      C      -1.9121441137    -0.3298744895     0.9166468829
   14      O      -0.8033484998    -0.3754958548     0.3342024454
   15      O       1.7206763507     1.4261330858     0.0271564617
   16      O      -2.1542098683    -0.8104150611     2.2284764840
   17      O      -1.8414132979    -1.5148395243    -2.2460360346
   18      C      -0.8838847125    -1.3328488877     2.8038856011
   19      C      -3.1963914867     1.9635465465    -1.4635145544
   20      C      -4.6866005470     2.4364836873    -1.2383352163
   21      C      -4.8146986970     2.2997339156     0.3241838353
   22      C      -3.3614142562     1.8149904760     0.7099888145
   23      O      -2.4908899441     2.4955123085    -0.2744442998
   24      H      -4.0280076007    -0.0936328302    -1.7170929203
   25      H      -4.0894795448    -0.3088771511     0.6529906645
   26      H      -2.7148748887     2.3253201848    -2.3919269292
   27      H      -4.8094977461     3.4820852546    -1.5628089605
   28      H      -5.4109101486     1.8098002096    -1.7826764595
   29      H      -5.0370069618     3.2680769584     0.7998106016
   30      H      -5.5852270280     1.5721674917     0.6252077406
   31      H      -3.0412417519     2.0512366066     1.7435560211
   32      O       0.6232921440    -2.8600604849     0.7021573368
   33      C       0.5185692691     2.2877850999    -0.1289965743
   34      C       4.2206316466     0.3270956951     0.5971594765
   35      C       5.4781525470    -0.5115012151     1.0591409123
   36      C       5.2915380329    -1.8289652336     0.2182110108
   37      C       3.9362056762    -1.5198880057    -0.5317004682
   38      O       4.0376661715    -0.0698220653    -0.8160811531
   39      H       3.1247218049    -0.4675412909     2.3854988031
   40      H       2.9982448524    -2.4483876921     1.2397844964
   41      H       0.0156040417     2.4044797241     0.8491144511
   42      H       4.3301397564     1.4257855917     0.6775982962
   43      H       6.4095454721     0.0118155388     0.7911525124
   44      H       5.4766072859    -0.6956261037     2.1453006322
   45      H       6.1080577890    -1.9592051988    -0.5099026221
   46      H       5.2275585184    -2.7331358932     0.8441384268
   47      H       3.7825089110    -2.0943268529    -1.4649743111
   48      H      -0.1677589618     1.7974011043    -0.8602700013
   49      H       0.8597600646     3.2690427571    -0.5086656497
   50      H      -1.1501532192    -1.7577477285     3.7878413652
   51      H      -0.1482177819    -0.5040887795     2.9158446586
   52      H      -0.4351436468    -2.1104469652     2.1430344454
   53      H       0.7079044120     0.7400836716    -3.5946501911
   54      H      -0.1464891910    -0.8653935812    -3.5436811681
   55      H       2.2428438851    -0.8617567475    -2.6067121121
   56      H       1.6831626678     0.2140862009    -1.2458403509
 ----------------------------------------------------------------

    9   -1510.2918396609      5.74E-09 Convergence criterion met
 Total energy in the final basis set = -1510.29183966
 Final energy is   -1510.29183966089
 **  OPTIMIZATION CONVERGED  **

                    Orbital Energies (a.u.)
 --------------------------------------------------------------

 Alpha MOs
 -- Occupied --
-18.945 -18.928 -18.925 -18.921 -18.893 -18.887 -18.885 -18.867
-18.864 -18.860 -10.109 -10.095 -10.094 -10.092 -10.066 -10.064
-10.061 -10.060 -10.058 -10.045 -10.043 -10.038 -10.036 -10.035
-10.033 -10.030 -10.024 -10.023 -10.020 -10.019  -1.017  -1.007
 -0.999  -0.992  -0.976  -0.971  -0.942  -0.928  -0.927  -0.922
 -0.765  -0.760  -0.724  -0.721  -0.709  -0.708  -0.692  -0.651
 -0.646  -0.600  -0.598  -0.576  -0.549  -0.543  -0.541  -0.536
 -0.516  -0.507  -0.489  -0.474  -0.469  -0.455  -0.442  -0.439
 -0.433  -0.429  -0.418  -0.413  -0.410  -0.402  -0.398  -0.395
 -0.392  -0.375  -0.370  -0.366  -0.360  -0.352  -0.348  -0.342
 -0.338  -0.336  -0.334  -0.331  -0.327  -0.325  -0.317  -0.313
 -0.311  -0.308  -0.303  -0.299  -0.291  -0.286  -0.274  -0.273
 -0.266  -0.253  -0.245  -0.241  -0.240  -0.234  -0.226  -0.183
 -0.173  -0.166  -0.160  -0.152  -0.150  -0.149  -0.143  -0.139
 -0.136

          Ground-State Mulliken Net Atomic Charges

     Atom                 Charge (a.u.)
  ----------------------------------------
      1 O                    -0.211916
      2 C                     0.221522
      3 C                    -0.080989
      4 C                    -0.085273
      5 C                     0.217246
      6 O                    -0.166623
      7 C                    -0.066132
      8 C                    -0.049416
      9 O                    -0.175354
     10 C                     0.217232
     11 C                    -0.080984
     12 C                    -0.078945
     13 C                     0.215675
     14 O                    -0.219027
     15 O                    -0.168374
     16 O                    -0.168297
     17 O                    -0.208972
     18 C                    -0.151279
     19 C                     0.023966
     20 C                    -0.143754
     21 C                    -0.143820
     22 C                     0.024880
     23 O                    -0.192394
     24 H                     0.084551
     25 H                     0.087734
     26 H                     0.087021
     27 H                     0.077289
     28 H                     0.073886
     29 H                     0.077836
     30 H                     0.074936
     31 H                     0.085113
     32 O                    -0.212993
     33 C                    -0.144399
     34 C                     0.026155
     35 C                    -0.144314
     36 C                    -0.142849
     37 C                     0.020913
     38 O                    -0.189715
     39 H                     0.086261
     40 H                     0.087053
     41 H                     0.097462
     42 H                     0.085927
     43 H                     0.078711
     44 H                     0.074644
     45 H                     0.078431
     46 H                     0.075461
     47 H                     0.083135
     48 H                     0.119495
     49 H                     0.081066
     50 H                     0.080914
     51 H                     0.098599
     52 H                     0.105257
     53 H                     0.084660
     54 H                     0.096574
     55 H                     0.075252
     56 H                     0.120961
  ----------------------------------------
  Sum of atomic charges =     0.000000

                    Cartesian Multipole Moments
 -----------------------------------------------------------------
    Charge (ESU x 10^10)
                 0.0000
    Dipole Moment (Debye)
         X       1.2890      Y       1.8473      Z      -0.0280
       Tot       2.2527
    Quadrupole Moments (Debye-Ang)
        XX    -138.1756     XY      -9.5224     YY    -165.8942
        XZ       4.5852     YZ      -2.9684     ZZ    -156.8346

 Total job time:  290.55s(wall), 13870.64s(cpu)
        *  Thank you very much for using Q-Chem.  Have a nice day.  *
