 Q-Chem 5.0, Q-Chem, Inc., Pleasanton, CA (2017)
 Q-Chem 5.0.1 for Intel X86 EM64T Linux

User input:
--------------------------------------------------------------
$molecule
0  1
O -3.94934 -3.66094 2.70899
C -3.26408 -4.56952 2.26188
C -3.36658 -6.02376 2.66595
C -4.77372 -6.64113 2.71769
C -5.90468 -5.78727 2.1886
O -5.75655 -5.60256 0.84348
C -5.06874 -6.68025 0.19946
C -5.68255 -6.95178 -1.17008
O -5.85208 -5.71704 -1.88392
C -6.75761 -4.85723 -1.35487
C -6.1691 -3.50215 -1.04166
C -6.98159 -2.65718 -0.04961
C -8.03802 -3.4015 0.74201
O -8.31767 -3.20024 1.91498
O -2.24324 -4.27147 1.41824
O -9.02463 -4.0144 0.04086
O -7.89159 -4.95947 -1.79239
C -10.13426 -4.62816 0.58887
C -4.75157 -3.2133 -0.61142
C -4.33707 -1.81448 -1.1015
C -5.14985 -0.92915 -0.16498
C -5.8521 -1.98413 0.70088
O -4.90807 -3.0032 0.74945
H -6.24939 -3.04143 -2.05414
H -7.5786 -1.89104 -0.59459
H -4.0257 -3.99129 -0.92855
H -3.25798 -1.65543 -0.89851
H -4.50739 -1.63534 -2.1851
H -4.43996 -0.35635 0.47268
H -5.8551 -0.22896 -0.66218
H -6.17968 -1.55666 1.6728
O -6.74722 -5.21846 2.86408
C -1.67366 -3.01967 1.31021
C -2.47159 -7.20781 2.22542
C -2.13357 -8.06269 3.44871
C -3.50714 -8.65069 3.7657
C -4.3289 -8.14632 2.55728
O -3.33381 -8.09346 1.55415
H -3.07893 -5.84562 3.72998
H -5.09292 -6.62407 3.78574
H -1.18847 -2.7462 2.27115
H -1.56094 -6.89591 1.67163
H -1.46568 -8.88041 3.09357
H -1.6374 -7.53832 4.29372
H -3.41623 -9.75941 3.75171
H -3.94903 -8.32803 4.73265
H -5.19384 -8.82584 2.39339
H -2.4333 -2.25333 1.07354
H -0.90298 -3.03549 0.51277
H -10.75647 -5.04881 -0.22724
H -10.74181 -3.89138 1.15652
H -9.81843 -5.45484 1.26079
H -5.03044 -7.64401 -1.74647
H -6.68943 -7.42989 -1.08057
H -5.34983 -7.67746 0.55598
H -4.01141 -6.39375 0.01223
$end

$opt
CONSTRAINT
tors           1           2           3           4     +47.368
tors           3           4           5           6     +66.316
tors           4           5           6           7     +28.421
tors           5           6           7           8    +142.105
tors           6           7           8           9     +47.368
tors           7           8           9          10     -66.316
tors           8           9          10          11    +123.158
tors           9          10          11          12    -161.053
tors          11          12          13          14    +142.105
ENDCONSTRAINT
$end

$rem
JOBTYPE                   OPT
METHOD                    B3LYP
DFT_D                     d3_op
BASIS                     STO-3G
GEOM_OPT_MAX_CYCLES       100
GEOM_OPT_TOL_GRADIENT     300
GEOM_OPT_TOL_DISPLACEMENT 1200
GEOM_OPT_TOL_ENERGY       100
SYMMETRY                  False
THRESH                    12
SCF_CONVERGENCE           8
MAX_SUB_FILE_NUM          128
MEM_STATIC                400
MEM_TOTAL                 4000
$end
--------------------------------------------------------------

   16   -1510.0146926526      2.86E-09 Convergence criterion met
 Total energy in the final basis set = -1510.01469265
   14   -1510.0921027152      6.41E-09 Convergence criterion met
 Total energy in the final basis set = -1510.09210272
   14   -1510.1539994304      9.85E-09 Convergence criterion met
 Total energy in the final basis set = -1510.15399943
   14   -1510.1886296894      5.64E-09 Convergence criterion met
 Total energy in the final basis set = -1510.18862969
   14   -1510.2087821856      9.89E-09 Convergence criterion met
 Total energy in the final basis set = -1510.20878219
   14   -1510.2237426476      5.00E-09 Convergence criterion met
 Total energy in the final basis set = -1510.22374265
   13   -1510.2329280183      8.14E-09 Convergence criterion met
 Total energy in the final basis set = -1510.23292802
   13   -1510.2386182441      8.11E-09 Convergence criterion met
   11   -1510.2454863089      6.70E-09 Convergence criterion met
 Total energy in the final basis set = -1510.24548631
   11   -1510.2454984218      3.64E-09 Convergence criterion met
 Total energy in the final basis set = -1510.24549842
    9   -1510.2455043063      9.62E-09 Convergence criterion met
 Total energy in the final basis set = -1510.24550431
    9   -1510.2455075308      7.36E-09 Convergence criterion met
 Total energy in the final basis set = -1510.24550753
   10   -1510.2455097153      2.70E-09 Convergence criterion met
 Total energy in the final basis set = -1510.24550972
    9   -1510.2455111568      5.81E-09 Convergence criterion met
 Total energy in the final basis set = -1510.24551116

             Standard Nuclear Orientation (Angstroms)
    I     Atom           X                Y                Z
 ----------------------------------------------------------------
    1      O       0.8657014867     1.3625311529     1.7375459246
    2      C       1.9133397874     1.3746773712     1.0536081402
    3      C       2.9851727195     0.2316674591     1.0928407353
    4      C       2.3390651902    -1.2156577109     0.9770102645
    5      C       0.7578195144    -1.2486228701     0.7349193474
    6      O       0.0737783561    -0.7831729789    -0.4493274244
    7      C       0.8214566858    -0.8379682493    -1.7260257404
    8      C      -0.1709424655    -1.2563065481    -2.8852463604
    9      O      -1.4720806283    -0.5770100907    -2.9877255764
   10      C      -2.3165303228    -0.8971839876    -1.8338592414
   11      C      -2.7108915813     0.4797333567    -1.1588857611
   12      C      -3.2393187196     0.6045500535     0.3326868362
   13      C      -2.9130122560    -0.5228224867     1.3899168345
   14      O      -2.6485049584    -0.3038536629     2.5935916418
   15      O       2.2778023280     2.4046131675     0.1391069954
   16      O      -3.1149501406    -1.8148121631     0.8357205732
   17      O      -2.7085664292    -2.0528591294    -1.5955176759
   18      C      -2.7223104688    -2.8512266965     1.8212871139
   19      C      -1.6099358588     1.6167172673    -1.2102852456
   20      C      -2.3472113892     2.9999217769    -1.4012897232
   21      C      -3.0233017547     3.1747444438     0.0107000898
   22      C      -2.4662011791     1.9147049145     0.7818355606
   23      O      -1.1230030271     1.7052919712     0.1833347360
   24      H      -3.5462075161     0.8207859948    -1.8052144435
   25      H      -4.3351742533     0.7545045052     0.3338131358
   26      H      -0.7841268109     1.4188786667    -1.9168767844
   27      H      -1.6133494346     3.7982094402    -1.5966978142
   28      H      -3.0750840622     2.9782435720    -2.2279186843
   29      H      -2.6990202029     4.1051462781     0.5028682745
   30      H      -4.1236224927     3.1698012955    -0.0430907947
   31      H      -2.3802732309     2.0098025909     1.8821815490
   32      O       0.0172694440    -1.6334985202     1.6703239700
   33      C       1.1941207588     3.4241561286     0.0991071741
   34      C       4.0954859829     0.1839633808    -0.0387501008
   35      C       5.3236685194    -0.6142756017     0.5485451209
   36      C       4.7332049177    -2.0738491436     0.5859489756
   37      C       3.3187270347    -1.8613698976    -0.0936625142
   38      O       3.5639776864    -0.7567923397    -1.0518448078
   39      H       3.4777531393     0.3156674422     2.0796528193
   40      H       2.4376010042    -1.7460703919     1.9409717390
   41      H       1.3179909227     4.1512986362     0.9269647537
   42      H       4.3254282055     1.1636574179    -0.4997235308
   43      H       6.1858768324    -0.5486148322    -0.1341779456
   44      H       5.6289251735    -0.2503102551     1.5424482327
   45      H       5.3414590748    -2.7727852577    -0.0097875034
   46      H       4.6428717731    -2.4710631323     1.6097343429
   47      H       2.9275038760    -2.7588732194    -0.6106202789
   48      H       0.1968293078     2.9169452152     0.1815735816
   49      H       1.3045796835     3.9510793877    -0.8662220827
   50      H      -2.9053486961    -3.8215477730     1.3250912633
   51      H      -3.3232623741    -2.7830149927     2.7505977916
   52      H      -1.6447038768    -2.7322507480     2.0633870613
   53      H       0.3449066847    -1.0565038985    -3.8480066467
   54      H      -0.3259054180    -2.3573786834    -2.8058991029
   55      H       1.6409586679    -1.5746392744    -1.7259479766
   56      H       1.2645714888     0.1607462303    -1.9341988128
 ----------------------------------------------------------------

    9   -1510.2455112285      2.86E-09 Convergence criterion met
 Total energy in the final basis set = -1510.24551123
 Final energy is   -1510.24551122851
 **  OPTIMIZATION CONVERGED  **

                    Orbital Energies (a.u.)
 --------------------------------------------------------------

 Alpha MOs
 -- Occupied --
-18.930 -18.925 -18.917 -18.901 -18.897 -18.896 -18.894 -18.877
-18.866 -18.851 -10.102 -10.102 -10.091 -10.081 -10.071 -10.070
-10.069 -10.064 -10.057 -10.054 -10.040 -10.037 -10.036 -10.033
-10.032 -10.030 -10.027 -10.025 -10.019 -10.018  -1.007  -1.002
 -0.998  -0.990  -0.979  -0.972  -0.938  -0.928  -0.926  -0.914
 -0.766  -0.758  -0.723  -0.718  -0.710  -0.709  -0.697  -0.648
 -0.642  -0.606  -0.597  -0.579  -0.553  -0.544  -0.541  -0.534
 -0.518  -0.503  -0.484  -0.469  -0.464  -0.458  -0.443  -0.437
 -0.433  -0.430  -0.421  -0.412  -0.405  -0.400  -0.395  -0.392
 -0.386  -0.383  -0.372  -0.366  -0.355  -0.351  -0.348  -0.340
 -0.340  -0.339  -0.330  -0.328  -0.326  -0.319  -0.318  -0.313
 -0.307  -0.304  -0.302  -0.293  -0.290  -0.287  -0.279  -0.276
 -0.261  -0.251  -0.248  -0.242  -0.236  -0.232  -0.226  -0.176
 -0.165  -0.160  -0.160  -0.152  -0.148  -0.144  -0.142  -0.139
 -0.132

          Ground-State Mulliken Net Atomic Charges

     Atom                 Charge (a.u.)
  ----------------------------------------
      1 O                    -0.202892
      2 C                     0.204292
      3 C                    -0.082708
      4 C                    -0.081714
      5 C                     0.212973
      6 O                    -0.172177
      7 C                    -0.054831
      8 C                    -0.047937
      9 O                    -0.196327
     10 C                     0.227969
     11 C                    -0.076308
     12 C                    -0.075950
     13 C                     0.213813
     14 O                    -0.215809
     15 O                    -0.175799
     16 O                    -0.161967
     17 O                    -0.174835
     18 C                    -0.135073
     19 C                     0.026394
     20 C                    -0.143810
     21 C                    -0.146758
     22 C                     0.026620
     23 O                    -0.180219
     24 H                     0.081272
     25 H                     0.082461
     26 H                     0.088686
     27 H                     0.075037
     28 H                     0.074156
     29 H                     0.077554
     30 H                     0.074203
     31 H                     0.099005
     32 O                    -0.195824
     33 C                    -0.151982
     34 C                     0.022497
     35 C                    -0.142353
     36 C                    -0.143666
     37 C                     0.018889
     38 O                    -0.197191
     39 H                     0.085597
     40 H                     0.090122
     41 H                     0.074469
     42 H                     0.093086
     43 H                     0.078414
     44 H                     0.075171
     45 H                     0.078586
     46 H                     0.075842
     47 H                     0.078562
     48 H                     0.120711
     49 H                     0.075127
     50 H                     0.084531
     51 H                     0.082438
     52 H                     0.107444
     53 H                     0.087243
     54 H                     0.080047
     55 H                     0.096822
     56 H                     0.086099
  ----------------------------------------
  Sum of atomic charges =    -0.000000

                    Cartesian Multipole Moments
 -----------------------------------------------------------------
    Charge (ESU x 10^10)
                -0.0000
    Dipole Moment (Debye)
         X       2.6184      Y       0.7796      Z      -1.6496
       Tot       3.1914
    Quadrupole Moments (Debye-Ang)
        XX    -147.8984     XY     -11.4819     YY    -151.8253
        XZ       4.4399     YZ      -2.7561     ZZ    -166.0270

 Total job time:  74.29s(wall), 3543.72s(cpu)
        *  Thank you very much for using Q-Chem.  Have a nice day.  *
