 Q-Chem 5.0, Q-Chem, Inc., Pleasanton, CA (2017)
 Q-Chem 5.0.1 for Intel X86 EM64T Linux

User input:
--------------------------------------------------------------
$molecule
0  1
O -3.94934 -3.66094 2.70899
C -3.26408 -4.56952 2.26188
C -3.36658 -6.02376 2.66595
C -4.06137 -6.97914 1.68189
C -4.41791 -6.40938 0.32677
O -5.7593 -6.15936 0.26688
C -6.07744 -4.96167 -0.44977
C -5.9939 -3.75519 0.47951
O -5.04195 -4.00765 1.52494
C -5.57229 -4.2976 2.73894
C -6.6674 -3.34081 3.14631
C -7.59881 -3.85638 4.25309
C -7.10315 -5.06259 5.02516
O -5.93004 -5.3508 5.21307
O -2.34125 -4.27283 1.3034
O -8.0578 -5.95396 5.40011
O -5.92365 -5.46272 2.83422
C -7.79836 -7.14057 6.05342
C -6.08267 -2.09159 3.88431
C -7.05997 -0.91191 3.82981
C -8.16084 -1.42225 4.73046
C -7.49642 -2.69671 5.26303
O -6.12092 -2.41404 5.24828
H -7.28306 -2.84247 2.38928
H -8.64771 -4.03727 3.9279
H -5.10461 -1.73803 3.49798
H -6.55207 -0.05937 4.33694
H -7.38786 -0.58129 2.82076
H -8.32924 -0.6743 5.53657
H -9.11938 -1.66193 4.2209
H -7.9233 -2.96599 6.2557
O -3.58674 -5.9752 -0.46337
C -2.10104 -3.00576 0.81401
C -1.97585 -6.68729 2.75732
C -2.03424 -7.92874 3.6489
C -2.7835 -8.88704 2.74782
C -2.94298 -8.02238 1.49304
O -1.77496 -7.23807 1.47923
H -3.79838 -6.06328 3.69048
H -4.9565 -7.48202 2.11243
H -1.77224 -2.33476 1.63596
H -1.18709 -5.99255 3.12167
H -0.99266 -8.30251 3.77303
H -2.48694 -7.76402 4.65033
H -2.12006 -9.75302 2.52761
H -3.75752 -9.24892 3.14234
H -3.1107 -8.66549 0.60056
H -3.01746 -2.59634 0.3385
H -1.29791 -3.05776 0.05085
H -8.75503 -7.67027 6.23951
H -7.3045 -6.94005 7.02828
H -7.14653 -7.78751 5.42792
H -5.83525 -2.78671 -0.03933
H -7.04935 -3.817 0.7714
H -7.06237 -5.04902 -0.96373
H -5.37349 -4.79569 -1.29544
$end

$opt
CONSTRAINT
tors           1           2           3           4    +104.211
tors           3           4           5           6    -104.211
tors           4           5           6           7    +142.105
tors           5           6           7           8     -85.263
tors           6           7           8           9     +28.421
tors           7           8           9          10    -104.211
tors           8           9          10          11     -47.368
tors           9          10          11          12    +161.053
tors          11          12          13          14     +28.421
ENDCONSTRAINT
$end

$rem
JOBTYPE                   OPT
METHOD                    B3LYP
DFT_D                     d3_op
BASIS                     STO-3G
GEOM_OPT_MAX_CYCLES       100
GEOM_OPT_TOL_GRADIENT     300
GEOM_OPT_TOL_DISPLACEMENT 1200
GEOM_OPT_TOL_ENERGY       100
SYMMETRY                  False
THRESH                    12
SCF_CONVERGENCE           8
MAX_SUB_FILE_NUM          128
MEM_STATIC                400
MEM_TOTAL                 4000
$end
--------------------------------------------------------------

   17   -1509.9226637229      4.77E-09 Convergence criterion met
 Total energy in the final basis set = -1509.92266372
   14   -1510.0271366436      3.09E-09 Convergence criterion met
 Total energy in the final basis set = -1510.02713664
   14   -1510.0973668704      3.54E-09 Convergence criterion met
 Total energy in the final basis set = -1510.09736687
   14   -1510.1423311623      4.01E-09 Convergence criterion met
 Total energy in the final basis set = -1510.14233116
   14   -1510.1703247940      3.24E-09 Convergence criterion met
 Total energy in the final basis set = -1510.17032479
   14   -1510.1884634823      3.03E-09 Convergence criterion met
 Total energy in the final basis set = -1510.18846348
   14   -1510.2009070375      2.75E-09 Convergence criterion met
 Total energy in the final basis set = -1510.20090704
   13   -1510.2097882642      5.05E-09 Convergence criterion met
   10   -1510.2426942596      8.39E-09 Convergence criterion met
 Total energy in the final basis set = -1510.24269426
    9   -1510.2427011233      6.46E-09 Convergence criterion met
 Total energy in the final basis set = -1510.24270112
    9   -1510.2427081691      7.76E-09 Convergence criterion met
 Total energy in the final basis set = -1510.24270817
    9   -1510.2427100791      9.35E-09 Convergence criterion met
 Total energy in the final basis set = -1510.24271008
    9   -1510.2427115959      3.54E-09 Convergence criterion met
 Total energy in the final basis set = -1510.24271160
    9   -1510.2427137078      3.70E-09 Convergence criterion met
 Total energy in the final basis set = -1510.24271371

             Standard Nuclear Orientation (Angstroms)
    I     Atom           X                Y                Z
 ----------------------------------------------------------------
    1      O       1.2564557115     2.3714433722     1.3536004116
    2      C       2.1676983379     1.5146570403     1.3692604458
    3      C       2.0436911044    -0.0187298810     1.0237300189
    4      C       2.6261634298    -0.4109735473    -0.3987928766
    5      C       2.5457124778     0.6855427174    -1.4988226325
    6      O       1.4762973208     0.4102578440    -2.4620500416
    7      C       0.8006235176     1.6499394364    -2.8779019546
    8      C      -0.3756577402     2.1461300967    -1.9254981523
    9      O      -0.2257560931     1.7528840819    -0.5116123802
   10      C      -1.1012614968     0.6605441175    -0.1323053780
   11      C      -2.6282825157     0.7264783467    -0.5420808380
   12      C      -3.3784848719    -0.6660200730    -0.5127230769
   13      C      -2.5439560571    -1.9813051810    -0.7121510943
   14      O      -1.3539040017    -2.2554072879    -0.4536527883
   15      O       3.5262260776     1.8465387367     1.6886826452
   16      O      -3.4623018480    -2.9377715439    -1.2695210263
   17      O      -0.7318049148    -0.1281464887     0.7687763688
   18      C      -2.7874433981    -4.2440080298    -1.4451662979
   19      C      -3.3435625488     1.4412085881     0.6954339756
   20      C      -4.8714106887     1.6836406529     0.3654004829
   21      C      -5.4742737599     0.2507755608     0.6143359456
   22      C      -4.1572398508    -0.5742372759     0.8826659712
   23      O      -3.3534689162     0.3573044369     1.7029432633
   24      H      -2.8145107337     1.2574061644    -1.4873769617
   25      H      -4.1259170447    -0.6823677663    -1.3265087365
   26      H      -2.7981971481     2.3248646801     1.0809321789
   27      H      -5.2996206555     2.4317469319     1.0509825561
   28      H      -5.0177812031     2.0308189298    -0.6701631681
   29      H      -6.1193180739     0.2374007137     1.5075438261
   30      H      -6.0469927778    -0.1333597061    -0.2445086257
   31      H      -4.2937852834    -1.5405610501     1.4054863580
   32      O       3.2243698652     1.7349587848    -1.5580748998
   33      C       3.6351578758     3.2996196434     1.9490401690
   34      C       3.0418102121    -0.8544483530     1.9257618296
   35      C       2.8733193313    -2.4033931144     1.6330339838
   36      C       3.7220063103    -2.5715943246     0.3157061993
   37      C       4.0319141416    -1.0581766307    -0.0118668917
   38      O       4.3597190194    -0.5216744547     1.3251892144
   39      H       0.9610610387    -0.2712350747     1.0881040182
   40      H       1.9788540240    -1.2225646101    -0.7817162949
   41      H       2.9775039199     3.6214708196     2.7825524848
   42      H       3.0297758248    -0.5781600495     2.9976726639
   43      H       3.2811320173    -3.0049981497     2.4604678855
   44      H       1.8151958946    -2.6744652781     1.4866134054
   45      H       4.6594104911    -3.1183132267     0.5089824678
   46      H       3.1702807826    -3.0818375342    -0.4899766101
   47      H       4.8587171451    -0.8714680228    -0.7241419809
   48      H       3.3767744754     3.8944203646     1.0490227924
   49      H       4.6917275595     3.4802514788     2.2192901732
   50      H      -3.5444947204    -4.9230551432    -1.8787445111
   51      H      -2.4316083213    -4.6547903715    -0.4781515477
   52      H      -1.9204251185    -4.1676202575    -2.1327323502
   53      H      -0.3731053780     3.2567865859    -1.9439320751
   54      H      -1.3349497428     1.8060305418    -2.3553197248
   55      H       0.3732753328     1.4520356077    -3.8821238387
   56      H       1.5546431583     2.4627179860    -2.9653816029
 ----------------------------------------------------------------

    9   -1510.2427138025      4.24E-09 Convergence criterion met
 Total energy in the final basis set = -1510.24271380
 Final energy is   -1510.24271380246
 **  OPTIMIZATION CONVERGED  **

                    Orbital Energies (a.u.)
 --------------------------------------------------------------

 Alpha MOs
 -- Occupied --
-18.941 -18.934 -18.913 -18.908 -18.900 -18.897 -18.882 -18.875
-18.868 -18.846 -10.111 -10.103 -10.091 -10.077 -10.069 -10.069
-10.068 -10.067 -10.067 -10.048 -10.044 -10.044 -10.042 -10.039
-10.028 -10.026 -10.019 -10.005 -10.002  -9.999  -1.017  -1.011
 -0.997  -0.985  -0.979  -0.951  -0.949  -0.937  -0.926  -0.907
 -0.770  -0.744  -0.728  -0.715  -0.712  -0.701  -0.684  -0.666
 -0.640  -0.609  -0.605  -0.572  -0.552  -0.546  -0.531  -0.524
 -0.519  -0.494  -0.481  -0.473  -0.464  -0.462  -0.450  -0.441
 -0.422  -0.421  -0.414  -0.413  -0.411  -0.407  -0.400  -0.394
 -0.389  -0.383  -0.378  -0.370  -0.356  -0.349  -0.348  -0.346
 -0.337  -0.336  -0.332  -0.326  -0.322  -0.319  -0.314  -0.313
 -0.310  -0.302  -0.298  -0.293  -0.289  -0.279  -0.272  -0.264
 -0.259  -0.257  -0.246  -0.241  -0.238  -0.226  -0.216  -0.190
 -0.181  -0.167  -0.159  -0.151  -0.150  -0.147  -0.143  -0.124
 -0.119

          Ground-State Mulliken Net Atomic Charges

     Atom                 Charge (a.u.)
  ----------------------------------------
      1 O                    -0.218277
      2 C                     0.201111
      3 C                    -0.097234
      4 C                    -0.084156
      5 C                     0.207776
      6 O                    -0.183982
      7 C                    -0.052795
      8 C                    -0.052543
      9 O                    -0.154941
     10 C                     0.222279
     11 C                    -0.081091
     12 C                    -0.079873
     13 C                     0.206601
     14 O                    -0.203878
     15 O                    -0.162850
     16 O                    -0.174024
     17 O                    -0.173931
     18 C                    -0.129621
     19 C                     0.025277
     20 C                    -0.145183
     21 C                    -0.141756
     22 C                     0.028059
     23 O                    -0.182337
     24 H                     0.078220
     25 H                     0.085664
     26 H                     0.088985
     27 H                     0.080863
     28 H                     0.073047
     29 H                     0.079927
     30 H                     0.075458
     31 H                     0.086740
     32 O                    -0.202573
     33 C                    -0.127603
     34 C                     0.024387
     35 C                    -0.146177
     36 C                    -0.140816
     37 C                     0.025150
     38 O                    -0.184962
     39 H                     0.122301
     40 H                     0.084634
     41 H                     0.082982
     42 H                     0.080102
     43 H                     0.073339
     44 H                     0.077831
     45 H                     0.073639
     46 H                     0.071394
     47 H                     0.081254
     48 H                     0.085934
     49 H                     0.086766
     50 H                     0.089881
     51 H                     0.089153
     52 H                     0.088853
     53 H                     0.088583
     54 H                     0.078279
     55 H                     0.083934
     56 H                     0.092201
  ----------------------------------------
  Sum of atomic charges =    -0.000000

                    Cartesian Multipole Moments
 -----------------------------------------------------------------
    Charge (ESU x 10^10)
                -0.0000
    Dipole Moment (Debye)
         X      -4.9029      Y      -0.4565      Z      -2.9786
       Tot       5.7549
    Quadrupole Moments (Debye-Ang)
        XX    -157.8741     XY      -3.8913     YY    -148.3194
        XZ       4.3630     YZ      -1.6244     ZZ    -156.4427

 Total job time:  165.68s(wall), 7904.17s(cpu)
        *  Thank you very much for using Q-Chem.  Have a nice day.  *
