 Q-Chem 5.0, Q-Chem, Inc., Pleasanton, CA (2017)
 Q-Chem 5.0.1 for Intel X86 EM64T Linux

User input:
--------------------------------------------------------------
$molecule
0  1
O 1.2564557115 2.3714433722 1.3536004116
C 2.1676983379 1.5146570403 1.3692604458
C 2.0436911044 -0.018729881 1.0237300189
C 2.6261634298 -0.4109735473 -0.3987928766
C 2.5457124778 0.6855427174 -1.4988226325
O 1.4762973208 0.410257844 -2.4620500416
C 0.8006235176 1.6499394364 -2.8779019546
C -0.3756577402 2.1461300967 -1.9254981523
O -0.2257560931 1.7528840819 -0.5116123802
C -1.1012614968 0.6605441175 -0.132305378
C -2.6282825157 0.7264783467 -0.542080838
C -3.3784848719 -0.666020073 -0.5127230769
C -2.5439560571 -1.981305181 -0.7121510943
O -1.3539040017 -2.2554072879 -0.4536527883
O 3.5262260776 1.8465387367 1.6886826452
O -3.462301848 -2.9377715439 -1.2695210263
O -0.7318049148 -0.1281464887 0.7687763688
C -2.7874433981 -4.2440080298 -1.4451662979
C -3.3435625488 1.4412085881 0.6954339756
C -4.8714106887 1.6836406529 0.3654004829
C -5.4742737599 0.2507755608 0.6143359456
C -4.1572398508 -0.5742372759 0.8826659712
O -3.3534689162 0.3573044369 1.7029432633
H -2.8145107337 1.2574061644 -1.4873769617
H -4.1259170447 -0.6823677663 -1.3265087365
H -2.7981971481 2.3248646801 1.0809321789
H -5.2996206555 2.4317469319 1.0509825561
H -5.0177812031 2.0308189298 -0.6701631681
H -6.1193180739 0.2374007137 1.5075438261
H -6.0469927778 -0.1333597061 -0.2445086257
H -4.2937852834 -1.5405610501 1.405486358
O 3.2243698652 1.7349587848 -1.5580748998
C 3.6351578758 3.2996196434 1.949040169
C 3.0418102121 -0.854448353 1.9257618296
C 2.8733193313 -2.4033931144 1.6330339838
C 3.7220063103 -2.5715943246 0.3157061993
C 4.0319141416 -1.0581766307 -0.0118668917
O 4.3597190194 -0.5216744547 1.3251892144
H 0.9610610387 -0.2712350747 1.0881040182
H 1.978854024 -1.2225646101 -0.7817162949
H 2.9775039199 3.6214708196 2.7825524848
H 3.0297758248 -0.5781600495 2.9976726639
H 3.2811320173 -3.0049981497 2.4604678855
H 1.8151958946 -2.6744652781 1.4866134054
H 4.6594104911 -3.1183132267 0.5089824678
H 3.1702807826 -3.0818375342 -0.4899766101
H 4.8587171451 -0.8714680228 -0.7241419809
H 3.3767744754 3.8944203646 1.0490227924
H 4.6917275595 3.4802514788 2.2192901732
H -3.5444947204 -4.9230551432 -1.8787445111
H -2.4316083213 -4.6547903715 -0.4781515477
H -1.9204251185 -4.1676202575 -2.1327323502
H -0.373105378 3.2567865859 -1.9439320751
H -1.3349497428 1.8060305418 -2.3553197248
H 0.3732753328 1.4520356077 -3.8821238387
H 1.5546431583 2.462717986 -2.9653816029
$end

$rem
JOBTYPE                   OPT
METHOD                    B3LYP
DFT_D                     d3_op
BASIS                     STO-3G
GEOM_OPT_MAX_CYCLES       100
GEOM_OPT_TOL_GRADIENT     300
GEOM_OPT_TOL_DISPLACEMENT 1200
GEOM_OPT_TOL_ENERGY       100
SYMMETRY                  False
THRESH                    12
SCF_CONVERGENCE           8
MAX_SUB_FILE_NUM          128
MEM_STATIC                400
MEM_TOTAL                 4000
$end
--------------------------------------------------------------

   16   -1510.2426473152      6.51E-09 Convergence criterion met
 Total energy in the final basis set = -1510.24264732
   14   -1510.2415842112      8.07E-09 Convergence criterion met
 Total energy in the final basis set = -1510.24158421
   13   -1510.2501867561      9.12E-09 Convergence criterion met
 Total energy in the final basis set = -1510.25018676
   15   -1510.2563667511      2.39E-09 Convergence criterion met
 Total energy in the final basis set = -1510.25636675
   14   -1510.2606190960      5.58E-09 Convergence criterion met
 Total energy in the final basis set = -1510.26061910
   15   -1510.2598007414      4.41E-09 Convergence criterion met
 Total energy in the final basis set = -1510.25980074
   14   -1510.2633251640      5.12E-09 Convergence criterion met
 Total energy in the final basis set = -1510.26332516
   14   -1510.2634639344      4.66E-09 Convergence criterion met
   11   -1510.2792992370      7.72E-09 Convergence criterion met
 Total energy in the final basis set = -1510.27929924
   12   -1510.2793089703      1.34E-09 Convergence criterion met
 Total energy in the final basis set = -1510.27930897
    9   -1510.2793076903      8.06E-09 Convergence criterion met
 Total energy in the final basis set = -1510.27930769
    9   -1510.2793095958      4.89E-09 Convergence criterion met
 Total energy in the final basis set = -1510.27930960
    9   -1510.2793132345      9.80E-09 Convergence criterion met
 Total energy in the final basis set = -1510.27931323
    9   -1510.2793152420      5.17E-09 Convergence criterion met
 Total energy in the final basis set = -1510.27931524

             Standard Nuclear Orientation (Angstroms)
    I     Atom           X                Y                Z
 ----------------------------------------------------------------
    1      O      -2.3822037088    -2.2628359783     1.0793511806
    2      C      -2.9080217568    -1.1338959372     0.9729330886
    3      C      -2.2746042351     0.2412297955     1.3952373981
    4      C      -1.4569411540     0.9329852481     0.2238910186
    5      C      -1.3279993949     0.0469516242    -1.0507762959
    6      O       0.0151517091     0.2179743684    -1.5603448395
    7      C       0.3110864676    -0.7932435828    -2.5917114006
    8      C       0.3776125265    -2.2464039139    -1.9365964778
    9      O       0.0940375031    -2.2047928574    -0.4896589629
   10      C       1.0609302824    -1.5099173796     0.3373383292
   11      C       2.5667099635    -1.4321875401    -0.1297902255
   12      C       3.0991681613     0.0043924302    -0.5535556975
   13      C       2.0894783660     1.1903313061    -0.3808269366
   14      O       1.4168942668     1.4887185888     0.6326825440
   15      O      -4.2235383354    -0.9101980833     0.4502013463
   16      O       2.1538506022     1.9860621807    -1.5706405777
   17      O       0.6628860005    -1.1309152925     1.4590988967
   18      C       1.2042869687     3.1183283820    -1.4814698239
   19      C       3.5308993464    -1.7550180521     1.0991466262
   20      C       4.9369847596    -2.1746004818     0.5154101172
   21      C       5.4847204350    -0.7834622241     0.0247380945
   22      C       4.3105179062     0.1790310166     0.4650716681
   23      O       3.7932227819    -0.4327856051     1.7065722636
   24      H       2.7477707219    -2.1501122965    -0.9453334974
   25      H       3.4465418006     0.0074612886    -1.6014471089
   26      H       3.0995696278    -2.4455443444     1.8492994091
   27      H       5.5697423858    -2.5995216564     1.3107965996
   28      H       4.8497281642    -2.9122112066    -0.2983417168
   29      H       6.4199152933    -0.5116294384     0.5391741455
   30      H       5.6569683525    -0.7531204841    -1.0630070000
   31      H       4.6064324723     1.2307390281     0.6447372671
   32      O      -2.1723133348    -0.6967534722    -1.5917567354
   33      C      -4.7770755483    -2.1803503526    -0.0673130445
   34      C      -3.3606153604     1.3563452336     1.6863811869
   35      C      -2.6492437536     2.5884328720     2.3774796955
   36      C      -1.9273718652     3.2599908453     1.1509819109
   37      C      -2.3147560482     2.2562857774    -0.0044848946
   38      O      -3.6977254151     1.8596336505     0.3329769200
   39      H      -1.6089752844     0.0506677505     2.2561163641
   40      H      -0.4246365289     1.1860685015     0.5462124651
   41      H      -4.7988640455    -2.9698330202     0.7118991314
   42      H      -4.2707929607     0.9897162322     2.1979711644
   43      H      -3.3944463765     3.2635057621     2.8273422389
   44      H      -1.9422177762     2.2693426714     3.1599089708
   45      H      -2.3315614248     4.2637404602     0.9431636433
   46      H      -0.8363647372     3.3337043432     1.2859729612
   47      H      -2.2718549123     2.6732697793    -1.0297570752
   48      H      -4.1846902870    -2.5498886612    -0.9293108295
   49      H      -5.8077735756    -1.9537365257    -0.3968009476
   50      H       1.4939752186     3.8332015319    -2.2733356673
   51      H       1.2492203634     3.6103949553    -0.4892865735
   52      H       0.1674704637     2.7676966204    -1.6585674667
   53      H      -0.4325567438    -2.8781742153    -2.3515549732
   54      H       1.3493996275    -2.7277017290    -2.1735575978
   55      H       1.2941900827    -0.5015838812    -3.0095121693
   56      H      -0.4525611248    -0.7814646486    -3.3977672506
 ----------------------------------------------------------------

    9   -1510.2793160905      1.81E-09 Convergence criterion met
 Total energy in the final basis set = -1510.27931609
 Final energy is   -1510.27931609048
 **  OPTIMIZATION CONVERGED  **

                    Orbital Energies (a.u.)
 --------------------------------------------------------------

 Alpha MOs
 -- Occupied --
-18.938 -18.934 -18.930 -18.912 -18.894 -18.879 -18.878 -18.877
-18.876 -18.851 -10.106 -10.099 -10.098 -10.078 -10.077 -10.076
-10.066 -10.066 -10.063 -10.050 -10.046 -10.045 -10.044 -10.041
-10.025 -10.024 -10.019 -10.016 -10.009 -10.008  -1.021  -1.011
 -0.998  -0.988  -0.975  -0.958  -0.942  -0.939  -0.932  -0.912
 -0.767  -0.750  -0.726  -0.718  -0.710  -0.705  -0.691  -0.666
 -0.642  -0.616  -0.603  -0.577  -0.551  -0.543  -0.536  -0.526
 -0.517  -0.501  -0.476  -0.472  -0.468  -0.456  -0.453  -0.439
 -0.434  -0.428  -0.422  -0.418  -0.415  -0.411  -0.402  -0.397
 -0.392  -0.385  -0.374  -0.370  -0.356  -0.352  -0.347  -0.340
 -0.339  -0.338  -0.334  -0.326  -0.321  -0.319  -0.314  -0.312
 -0.309  -0.303  -0.298  -0.295  -0.288  -0.286  -0.277  -0.266
 -0.263  -0.257  -0.250  -0.239  -0.237  -0.232  -0.222  -0.189
 -0.178  -0.168  -0.158  -0.156  -0.151  -0.148  -0.143  -0.132
 -0.127

          Ground-State Mulliken Net Atomic Charges

     Atom                 Charge (a.u.)
  ----------------------------------------
      1 O                    -0.212275
      2 C                     0.209780
      3 C                    -0.078501
      4 C                    -0.093045
      5 C                     0.213119
      6 O                    -0.180777
      7 C                    -0.054959
      8 C                    -0.051403
      9 O                    -0.165495
     10 C                     0.209565
     11 C                    -0.084396
     12 C                    -0.078985
     13 C                     0.221670
     14 O                    -0.213830
     15 O                    -0.166723
     16 O                    -0.169916
     17 O                    -0.187067
     18 C                    -0.130021
     19 C                     0.028075
     20 C                    -0.144009
     21 C                    -0.144417
     22 C                     0.027047
     23 O                    -0.181821
     24 H                     0.075581
     25 H                     0.082869
     26 H                     0.089170
     27 H                     0.079687
     28 H                     0.072094
     29 H                     0.079367
     30 H                     0.073024
     31 H                     0.083798
     32 O                    -0.207409
     33 C                    -0.126805
     34 C                     0.026123
     35 C                    -0.144334
     36 C                    -0.143713
     37 C                     0.023932
     38 O                    -0.186961
     39 H                     0.095013
     40 H                     0.109652
     41 H                     0.084891
     42 H                     0.084944
     43 H                     0.074671
     44 H                     0.076443
     45 H                     0.073276
     46 H                     0.077581
     47 H                     0.074519
     48 H                     0.090014
     49 H                     0.086150
     50 H                     0.089280
     51 H                     0.091971
     52 H                     0.089305
     53 H                     0.098247
     54 H                     0.076794
     55 H                     0.087054
     56 H                     0.092155
  ----------------------------------------
  Sum of atomic charges =    -0.000000

                    Cartesian Multipole Moments
 -----------------------------------------------------------------
    Charge (ESU x 10^10)
                -0.0000
    Dipole Moment (Debye)
         X       3.5483      Y       0.2944      Z      -3.3965
       Tot       4.9207
    Quadrupole Moments (Debye-Ang)
        XX    -154.6747     XY      -3.2446     YY    -152.1138
        XZ      -8.3436     YZ       4.5255     ZZ    -157.3816

 Total job time:  139.82s(wall), 6669.06s(cpu)
        *  Thank you very much for using Q-Chem.  Have a nice day.  *
