 Q-Chem 5.0, Q-Chem, Inc., Pleasanton, CA (2017)
 Q-Chem 5.0.1 for Intel X86 EM64T Linux

User input:
--------------------------------------------------------------
$molecule
0  1
O -5.5678380886 -0.6653553006 1.8828987841
C -4.8078033292 -0.4668648021 0.9111003913
C -4.0151165787 0.8486802517 0.5882872699
C -2.4340905566 0.6691676938 0.4525352785
C -2.0334459933 -0.8130163962 0.9075519265
O -0.8313534696 -1.55235432 0.6227161717
C -0.4506855191 -2.0038049148 -0.7270141462
C 0.3271097822 -1.0291614813 -1.6846806396
O 1.6627848623 -0.7928572302 -1.0901076262
C 2.0834530283 0.5620430313 -1.2727278325
C 2.8574618409 1.1232796472 -0.0156324558
C 3.6556964968 0.097079156 0.8930424156
C 3.1541018643 -1.391932527 0.8999752364
O 2.065473855 -1.8100537081 1.3499994173
O -4.6153730908 -1.391834237 -0.1719830591
O 4.1356132084 -2.2315168331 0.2794329435
O 1.7468484748 1.2604778689 -2.2550835742
C 3.6432380904 -3.6265314138 0.2353095879
C 4.0686035632 1.979022082 -0.5796198836
C 4.7923232032 2.7649763221 0.5836321307
C 5.6620650919 1.6259742689 1.2364699373
C 5.1524406908 0.3716193515 0.4260179147
O 5.025985201 0.9070078213 -0.9493632765
H 2.1355194799 1.7156712879 0.5772942953
H 3.5413345069 0.4364082835 1.9399553802
H 3.7978162184 2.582131761 -1.4685235494
H 5.4194229746 3.5717453064 0.1729408793
H 4.0714956777 3.2058925993 1.2910977843
H 6.7367294455 1.7884242687 1.0547765707
H 5.4959992663 1.5257433503 2.3210229783
H 5.8095184968 -0.5184661905 0.4407170018
O -2.7156629929 -1.3115340067 1.839930993
C -5.3063971396 -2.6642334032 0.1297772525
C -4.3943686252 1.4303007374 -0.8395185159
C -3.9643056934 2.9471814805 -0.8816287253
C -2.401484812 2.8051908405 -0.962729485
C -2.2331317443 1.2316694991 -1.0159923142
O -3.4303184303 0.771176184 -1.7498622023
H -4.2558979897 1.5695189768 1.3891922977
H -1.9151103348 1.3276377447 1.1757568929
H -6.3888462227 -2.5107968554 0.3165628398
H -5.4333221892 1.2209738076 -1.1595480982
H -4.372538254 3.4394774281 -1.7786963661
H -4.2999283484 3.4998310035 0.010173332
H -1.9993647717 3.2606625116 -1.8815171116
H -1.8864727494 3.247926598 -0.09534714
H -1.3184114844 0.9154530903 -1.537400479
H -4.8631177815 -3.1619703929 1.0170046077
H -5.1708051994 -3.3061023989 -0.7601925798
H 4.45149242 -4.2221043515 -0.2275921546
H 2.7227007729 -3.7105481996 -0.3779276966
H 3.4254644724 -4.0184672218 1.2499143364
H 0.4344244311 -1.5532837189 -2.6622493239
H -0.1885718153 -0.0748711466 -1.8799006282
H -1.3428035247 -2.3757088571 -1.2814473985
H 0.2202853822 -2.865735362 -0.52584253
$end

$rem
JOBTYPE                   OPT
METHOD                    B3LYP
DFT_D                     d3_op
BASIS                     STO-3G
GEOM_OPT_MAX_CYCLES       100
GEOM_OPT_TOL_GRADIENT     300
GEOM_OPT_TOL_DISPLACEMENT 1200
GEOM_OPT_TOL_ENERGY       100
SYMMETRY                  False
THRESH                    12
SCF_CONVERGENCE           8
MAX_SUB_FILE_NUM          128
MEM_STATIC                400
MEM_TOTAL                 4000
$end
--------------------------------------------------------------

   16   -1510.2283744811      4.11E-09 Convergence criterion met
 Total energy in the final basis set = -1510.22837448
   14   -1510.2346989855      2.96E-09 Convergence criterion met
 Total energy in the final basis set = -1510.23469899
   14   -1510.2417759486      5.41E-09 Convergence criterion met
 Total energy in the final basis set = -1510.24177595
   14   -1510.2483824671      5.87E-09 Convergence criterion met
 Total energy in the final basis set = -1510.24838247
   14   -1510.2528440680      7.97E-09 Convergence criterion met
 Total energy in the final basis set = -1510.25284407
   14   -1510.2554132257      3.53E-09 Convergence criterion met
 Total energy in the final basis set = -1510.25541323
   14   -1510.2569139394      2.50E-09 Convergence criterion met
 Total energy in the final basis set = -1510.25691394
   14   -1510.2582238119      2.13E-09 Convergence criterion met
   14   -1510.2829246382      1.64E-09 Convergence criterion met
 Total energy in the final basis set = -1510.28292464
   13   -1510.2836774505      6.04E-09 Convergence criterion met
 Total energy in the final basis set = -1510.28367745
   13   -1510.2835970648      2.67E-09 Convergence criterion met
 Total energy in the final basis set = -1510.28359706
   12   -1510.2837197849      8.41E-09 Convergence criterion met
 Total energy in the final basis set = -1510.28371978
   10   -1510.2837218224      9.80E-09 Convergence criterion met
 Total energy in the final basis set = -1510.28372182
   10   -1510.2837247837      3.55E-09 Convergence criterion met
 Total energy in the final basis set = -1510.28372478

             Standard Nuclear Orientation (Angstroms)
    I     Atom           X                Y                Z
 ----------------------------------------------------------------
    1      O      -1.0186286846     1.6784116692     1.9304048326
    2      C      -2.0602816792     1.3422991545     1.3178894302
    3      C      -2.2726412839     1.3552256496    -0.2442072350
    4      C      -2.0112541456    -0.0339112756    -0.9613639040
    5      C      -1.5603679172    -1.1477860955     0.0505519039
    6      O      -1.0909257830    -2.4130676968    -0.4393795882
    7      C      -0.7200705147    -2.4800822442    -1.8703632084
    8      C       0.6906846161    -1.8046953136    -2.1615561443
    9      O       1.4884728073    -1.7477787700    -0.9184091337
   10      C       1.3772685737    -0.4364706882    -0.3234551424
   11      C       2.0353676322    -0.4852224891     1.0959902972
   12      C       3.6196913017    -0.5692817423     1.0520447258
   13      C       4.2085742992    -0.7967416774    -0.3763313504
   14      O       5.0429778670    -1.6570085882    -0.7309782885
   15      O      -3.3052923958     1.0673635602     1.9655156112
   16      O       3.6329126800     0.1715436393    -1.2648567651
   17      O       0.7908680671     0.5247935096    -0.8656458681
   18      C       4.0916464213    -0.0654537584    -2.6510275905
   19      C       1.8128319840     0.8954579115     1.8332966218
   20      C       2.2401651229     0.7342621305     3.3451320835
   21      C       3.8096136682     0.7522658105     3.2347989892
   22      C       3.9953408708     0.8545333278     1.6709851376
   23      O       2.8864905750     1.7366846839     1.2491105085
   24      H       1.6040801743    -1.3421255172     1.6449408505
   25      H       3.9912924966    -1.3894826939     1.6907462979
   26      H       0.7965592704     1.3337467044     1.6791236909
   27      H       1.8648273621     1.5807882197     3.9411857351
   28      H       1.8567941746    -0.2010158519     3.7834251482
   29      H       4.2397674735     1.6385704412     3.7283345869
   30      H       4.2811796258    -0.1501854862     3.6555572071
   31      H       4.9687901485     1.2612185123     1.3340564038
   32      O      -1.6305609259    -1.0291825623     1.2969718026
   33      C      -3.1010380848     0.9952896488     3.4289005659
   34      C      -3.7806743099     1.6173730222    -0.6579525482
   35      C      -3.8217938127     2.0048614289    -2.1903275445
   36      C      -3.5954652487     0.6032717310    -2.8698441320
   37      C      -3.4433301294    -0.3233503549    -1.5991376246
   38      O      -4.3847406225     0.2644592775    -0.6244211015
   39      H      -1.5880765742     2.1187938513    -0.6546308632
   40      H      -1.2349489700     0.0945358181    -1.7315826212
   41      H      -2.6539507953     1.9290461857     3.8271703931
   42      H      -4.3300873437     2.3000965166     0.0175514137
   43      H      -4.8041330161     2.4266699644    -2.4555146761
   44      H      -3.0400635131     2.7352135463    -2.4530727922
   45      H      -4.4685573180     0.2969713874    -3.4679682089
   46      H      -2.7000916670     0.5785151880    -3.5111906593
   47      H      -3.6756271487    -1.3941174114    -1.7609045976
   48      H      -2.4422660528     0.1436222223     3.6956123590
   49      H      -4.1029359711     0.8421044138     3.8701644393
   50      H       3.6289017893     0.7289599717    -3.2649771864
   51      H       3.7653460393    -1.0591324200    -3.0215315769
   52      H       5.1958398572    -0.0046720667    -2.7335566943
   53      H       1.2516650157    -2.4205321333    -2.8926861610
   54      H       0.5604065187    -0.7753675713    -2.5571375391
   55      H      -1.4964298340    -2.0499461801    -2.5366103380
   56      H      -0.6532042410    -3.5677733464    -2.0738121978
 ----------------------------------------------------------------

    9   -1510.2837252282      5.10E-09 Convergence criterion met
 Total energy in the final basis set = -1510.28372523
 Final energy is   -1510.28372522821
 **  OPTIMIZATION CONVERGED  **

                    Orbital Energies (a.u.)
 --------------------------------------------------------------

 Alpha MOs
 -- Occupied --
-18.944 -18.934 -18.932 -18.925 -18.892 -18.889 -18.876 -18.873
-18.873 -18.862 -10.111 -10.101 -10.096 -10.096 -10.086 -10.077
-10.067 -10.065 -10.060 -10.054 -10.051 -10.040 -10.034 -10.032
-10.031 -10.029 -10.025 -10.022 -10.009 -10.004  -1.022  -1.013
 -1.005  -1.000  -0.973  -0.956  -0.949  -0.936  -0.934  -0.925
 -0.764  -0.755  -0.724  -0.722  -0.709  -0.709  -0.692  -0.659
 -0.653  -0.619  -0.600  -0.584  -0.550  -0.541  -0.538  -0.527
 -0.514  -0.505  -0.488  -0.474  -0.467  -0.464  -0.450  -0.441
 -0.436  -0.429  -0.423  -0.420  -0.412  -0.409  -0.404  -0.401
 -0.400  -0.388  -0.373  -0.366  -0.359  -0.355  -0.353  -0.349
 -0.345  -0.339  -0.334  -0.332  -0.327  -0.320  -0.318  -0.313
 -0.310  -0.301  -0.298  -0.295  -0.290  -0.285  -0.282  -0.273
 -0.265  -0.257  -0.247  -0.245  -0.243  -0.236  -0.220  -0.187
 -0.175  -0.174  -0.165  -0.159  -0.158  -0.149  -0.147  -0.142
 -0.131

          Ground-State Mulliken Net Atomic Charges

     Atom                 Charge (a.u.)
  ----------------------------------------
      1 O                    -0.224944
      2 C                     0.223174
      3 C                    -0.079012
      4 C                    -0.086948
      5 C                     0.211955
      6 O                    -0.165466
      7 C                    -0.050373
      8 C                    -0.058411
      9 O                    -0.174307
     10 C                     0.217879
     11 C                    -0.078423
     12 C                    -0.080429
     13 C                     0.209329
     14 O                    -0.212488
     15 O                    -0.166527
     16 O                    -0.167153
     17 O                    -0.217360
     18 C                    -0.127720
     19 C                     0.011089
     20 C                    -0.144722
     21 C                    -0.143722
     22 C                     0.026058
     23 O                    -0.189423
     24 H                     0.089649
     25 H                     0.084999
     26 H                     0.115105
     27 H                     0.077378
     28 H                     0.071617
     29 H                     0.075473
     30 H                     0.071182
     31 H                     0.079330
     32 O                    -0.194218
     33 C                    -0.126811
     34 C                     0.026554
     35 C                    -0.144356
     36 C                    -0.143726
     37 C                     0.021767
     38 O                    -0.184824
     39 H                     0.091154
     40 H                     0.091756
     41 H                     0.087275
     42 H                     0.089201
     43 H                     0.078397
     44 H                     0.075711
     45 H                     0.078163
     46 H                     0.071307
     47 H                     0.080070
     48 H                     0.093314
     49 H                     0.088495
     50 H                     0.091261
     51 H                     0.085123
     52 H                     0.090529
     53 H                     0.087622
     54 H                     0.092494
     55 H                     0.083011
     56 H                     0.093940
  ----------------------------------------
  Sum of atomic charges =     0.000000

                    Cartesian Multipole Moments
 -----------------------------------------------------------------
    Charge (ESU x 10^10)
                 0.0000
    Dipole Moment (Debye)
         X      -0.8841      Y      -0.2893      Z      -2.9228
       Tot       3.0673
    Quadrupole Moments (Debye-Ang)
        XX    -165.8800     XY      -1.1286     YY    -163.6297
        XZ       4.2897     YZ       3.3356     ZZ    -142.4322

 Total job time:  143.07s(wall), 6818.83s(cpu)
        *  Thank you very much for using Q-Chem.  Have a nice day.  *
