 Q-Chem 5.0, Q-Chem, Inc., Pleasanton, CA (2017)
 Q-Chem 5.0.1 for Intel X86 EM64T Linux

User input:
--------------------------------------------------------------
$molecule
0  1
O -3.94934 -3.66094 2.70899
C -3.26408 -4.56952 2.26188
C -3.36658 -6.02376 2.66595
C -3.63629 -7.04588 1.54953
C -3.59671 -6.52161 0.1312
O -3.43077 -7.5584 -0.74226
C -2.1577 -8.20112 -0.61804
C -2.20873 -9.26124 0.47726
O -3.09092 -10.32553 0.08752
C -3.84492 -10.85237 1.08405
C -5.2431 -11.2089 0.63836
C -5.37537 -11.57512 -0.84713
C -4.07879 -11.87745 -1.57114
O -3.18811 -11.07094 -1.79652
O -2.24053 -4.24946 1.42369
O -3.89024 -13.1532 -2.00981
O -3.3303 -11.34763 2.07591
C -2.76632 -13.59427 -2.67694
C -5.85477 -12.463 1.29975
C -7.37776 -12.3563 1.27395
C -7.64716 -12.52857 -0.20665
C -6.23328 -12.85246 -0.70753
O -5.62145 -13.50176 0.38076
H -5.86768 -10.32436 0.89711
H -5.88831 -10.7838 -1.43652
H -5.50596 -12.64016 2.33997
H -7.76955 -13.24883 1.81318
H -7.80797 -11.43873 1.7299
H -8.33068 -13.39644 -0.33891
H -8.05966 -11.63407 -0.72185
H -6.29597 -13.43197 -1.65443
O -4.2047 -5.5186 -0.20763
C -1.96016 -2.97199 0.98677
C -2.38971 -6.25116 3.75515
C -2.6275 -7.58144 4.44723
C -2.18605 -8.46282 3.33265
C -2.06907 -7.40751 2.19737
O -1.38357 -6.40276 2.89863
H -4.34458 -6.00532 3.20258
H -4.31436 -7.90737 1.73681
H -1.72855 -2.31384 1.85132
H -2.3038 -5.39912 4.46812
H -1.97781 -7.74145 5.33579
H -3.70109 -7.67601 4.72285
H -1.14828 -8.80428 3.55865
H -2.83719 -9.33608 3.18886
H -1.22937 -7.57995 1.52409
H -2.82545 -2.56266 0.42289
H -1.07804 -3.0033 0.31499
H -2.88281 -14.67196 -2.91236
H -1.86662 -13.46237 -2.03855
H -2.63958 -13.03192 -3.62665
H -1.23558 -9.67556 0.12791
H -1.53525 -9.60382 1.289
H -1.33611 -7.4514 -0.54593
H -1.96014 -8.69747 -1.59743
$end

$opt
CONSTRAINT
tors           1           2           3           4    +123.158
tors           3           4           5           6    +161.053
tors           4           5           6           7     -66.316
tors           5           6           7           8     +85.263
tors           6           7           8           9     +66.316
tors           7           8           9          10    -142.105
tors           8           9          10          11    +142.105
tors           9          10          11          12     +28.421
tors          11          12          13          14     -66.316
ENDCONSTRAINT
$end

$rem
JOBTYPE                   OPT
METHOD                    B3LYP
DFT_D                     d3_op
BASIS                     STO-3G
GEOM_OPT_MAX_CYCLES       100
GEOM_OPT_TOL_GRADIENT     300
GEOM_OPT_TOL_DISPLACEMENT 1200
GEOM_OPT_TOL_ENERGY       100
SYMMETRY                  False
THRESH                    12
SCF_CONVERGENCE           8
MAX_SUB_FILE_NUM          128
MEM_STATIC                400
MEM_TOTAL                 4000
$end
--------------------------------------------------------------

   15   -1509.7973568067      9.77E-09 Convergence criterion met
 Total energy in the final basis set = -1509.79735681
   14   -1509.8979550176      8.39E-09 Convergence criterion met
 Total energy in the final basis set = -1509.89795502
   14   -1509.9718656813      4.97E-09 Convergence criterion met
 Total energy in the final basis set = -1509.97186568
   14   -1510.0244566050      4.87E-09 Convergence criterion met
 Total energy in the final basis set = -1510.02445661
   14   -1510.0646414401      4.57E-09 Convergence criterion met
 Total energy in the final basis set = -1510.06464144
   14   -1510.0957685164      4.73E-09 Convergence criterion met
 Total energy in the final basis set = -1510.09576852
   14   -1510.1211235299      4.18E-09 Convergence criterion met
 Total energy in the final basis set = -1510.12112353
   13   -1510.1421967494      7.59E-09 Convergence criterion met
   11   -1510.2286439224      7.56E-09 Convergence criterion met
 Total energy in the final basis set = -1510.22864392
   11   -1510.2286695959      5.17E-09 Convergence criterion met
 Total energy in the final basis set = -1510.22866960
   10   -1510.2286862277      5.80E-09 Convergence criterion met
 Total energy in the final basis set = -1510.22868623
   10   -1510.2286975195      6.41E-09 Convergence criterion met
 Total energy in the final basis set = -1510.22869752
    9   -1510.2287021851      7.96E-09 Convergence criterion met
 Total energy in the final basis set = -1510.22870219
    9   -1510.2287056801      7.52E-09 Convergence criterion met
 Total energy in the final basis set = -1510.22870568

             Standard Nuclear Orientation (Angstroms)
    I     Atom           X                Y                Z
 ----------------------------------------------------------------
    1      O      -5.5678380886    -0.6653553006     1.8828987841
    2      C      -4.8078033292    -0.4668648021     0.9111003913
    3      C      -4.0151165787     0.8486802517     0.5882872699
    4      C      -2.4340905566     0.6691676938     0.4525352785
    5      C      -2.0334459933    -0.8130163962     0.9075519265
    6      O      -0.8313534696    -1.5523543200     0.6227161717
    7      C      -0.4506855191    -2.0038049148    -0.7270141462
    8      C       0.3271097822    -1.0291614813    -1.6846806396
    9      O       1.6627848623    -0.7928572302    -1.0901076262
   10      C       2.0834530283     0.5620430313    -1.2727278325
   11      C       2.8574618409     1.1232796472    -0.0156324558
   12      C       3.6556964968     0.0970791560     0.8930424156
   13      C       3.1541018643    -1.3919325270     0.8999752364
   14      O       2.0654738550    -1.8100537081     1.3499994173
   15      O      -4.6153730908    -1.3918342370    -0.1719830591
   16      O       4.1356132084    -2.2315168331     0.2794329435
   17      O       1.7468484748     1.2604778689    -2.2550835742
   18      C       3.6432380904    -3.6265314138     0.2353095879
   19      C       4.0686035632     1.9790220820    -0.5796198836
   20      C       4.7923232032     2.7649763221     0.5836321307
   21      C       5.6620650919     1.6259742689     1.2364699373
   22      C       5.1524406908     0.3716193515     0.4260179147
   23      O       5.0259852010     0.9070078213    -0.9493632765
   24      H       2.1355194799     1.7156712879     0.5772942953
   25      H       3.5413345069     0.4364082835     1.9399553802
   26      H       3.7978162184     2.5821317610    -1.4685235494
   27      H       5.4194229746     3.5717453064     0.1729408793
   28      H       4.0714956777     3.2058925993     1.2910977843
   29      H       6.7367294455     1.7884242687     1.0547765707
   30      H       5.4959992663     1.5257433503     2.3210229783
   31      H       5.8095184968    -0.5184661905     0.4407170018
   32      O      -2.7156629929    -1.3115340067     1.8399309930
   33      C      -5.3063971396    -2.6642334032     0.1297772525
   34      C      -4.3943686252     1.4303007374    -0.8395185159
   35      C      -3.9643056934     2.9471814805    -0.8816287253
   36      C      -2.4014848120     2.8051908405    -0.9627294850
   37      C      -2.2331317443     1.2316694991    -1.0159923142
   38      O      -3.4303184303     0.7711761840    -1.7498622023
   39      H      -4.2558979897     1.5695189768     1.3891922977
   40      H      -1.9151103348     1.3276377447     1.1757568929
   41      H      -6.3888462227    -2.5107968554     0.3165628398
   42      H      -5.4333221892     1.2209738076    -1.1595480982
   43      H      -4.3725382540     3.4394774281    -1.7786963661
   44      H      -4.2999283484     3.4998310035     0.0101733320
   45      H      -1.9993647717     3.2606625116    -1.8815171116
   46      H      -1.8864727494     3.2479265980    -0.0953471400
   47      H      -1.3184114844     0.9154530903    -1.5374004790
   48      H      -4.8631177815    -3.1619703929     1.0170046077
   49      H      -5.1708051994    -3.3061023989    -0.7601925798
   50      H       4.4514924200    -4.2221043515    -0.2275921546
   51      H       2.7227007729    -3.7105481996    -0.3779276966
   52      H       3.4254644724    -4.0184672218     1.2499143364
   53      H       0.4344244311    -1.5532837189    -2.6622493239
   54      H      -0.1885718153    -0.0748711466    -1.8799006282
   55      H      -1.3428035247    -2.3757088571    -1.2814473985
   56      H       0.2202853822    -2.8657353620    -0.5258425300
 ----------------------------------------------------------------

    9   -1510.2287053071      5.61E-09 Convergence criterion met
 Total energy in the final basis set = -1510.22870531
 Final energy is   -1510.22870530707
 **  OPTIMIZATION CONVERGED  **

                    Orbital Energies (a.u.)
 --------------------------------------------------------------

 Alpha MOs
 -- Occupied --
-18.934 -18.931 -18.923 -18.920 -18.893 -18.886 -18.885 -18.884
-18.867 -18.862 -10.107 -10.107 -10.097 -10.091 -10.085 -10.081
-10.065 -10.062 -10.062 -10.059 -10.057 -10.055 -10.044 -10.043
-10.036 -10.034 -10.024 -10.022 -10.022 -10.020  -1.019  -1.009
 -1.005  -0.996  -0.975  -0.970  -0.945  -0.932  -0.930  -0.925
 -0.764  -0.763  -0.729  -0.722  -0.714  -0.709  -0.705  -0.659
 -0.653  -0.617  -0.600  -0.591  -0.554  -0.546  -0.542  -0.538
 -0.519  -0.508  -0.490  -0.484  -0.471  -0.465  -0.447  -0.440
 -0.435  -0.433  -0.424  -0.418  -0.410  -0.408  -0.407  -0.404
 -0.402  -0.389  -0.381  -0.368  -0.364  -0.363  -0.350  -0.342
 -0.340  -0.337  -0.334  -0.330  -0.328  -0.327  -0.322  -0.317
 -0.313  -0.309  -0.308  -0.299  -0.298  -0.291  -0.284  -0.276
 -0.275  -0.252  -0.245  -0.242  -0.238  -0.233  -0.220  -0.187
 -0.173  -0.167  -0.166  -0.160  -0.154  -0.149  -0.145  -0.141
 -0.141

          Ground-State Mulliken Net Atomic Charges

     Atom                 Charge (a.u.)
  ----------------------------------------
      1 O                    -0.214756
      2 C                     0.214038
      3 C                    -0.079140
      4 C                    -0.078672
      5 C                     0.215677
      6 O                    -0.175629
      7 C                    -0.038117
      8 C                    -0.048288
      9 O                    -0.177602
     10 C                     0.214410
     11 C                    -0.074761
     12 C                    -0.081641
     13 C                     0.214842
     14 O                    -0.211141
     15 O                    -0.176973
     16 O                    -0.170041
     17 O                    -0.210481
     18 C                    -0.126690
     19 C                     0.023246
     20 C                    -0.145866
     21 C                    -0.142196
     22 C                     0.022874
     23 O                    -0.191610
     24 H                     0.085300
     25 H                     0.081951
     26 H                     0.088330
     27 H                     0.078541
     28 H                     0.072599
     29 H                     0.077731
     30 H                     0.072924
     31 H                     0.091703
     32 O                    -0.187262
     33 C                    -0.129261
     34 C                     0.025690
     35 C                    -0.143783
     36 C                    -0.143814
     37 C                     0.021126
     38 O                    -0.188087
     39 H                     0.084416
     40 H                     0.085664
     41 H                     0.087491
     42 H                     0.084951
     43 H                     0.078602
     44 H                     0.075309
     45 H                     0.079905
     46 H                     0.072890
     47 H                     0.076748
     48 H                     0.090802
     49 H                     0.086232
     50 H                     0.089638
     51 H                     0.085994
     52 H                     0.088855
     53 H                     0.087963
     54 H                     0.089671
     55 H                     0.088467
     56 H                     0.101232
  ----------------------------------------
  Sum of atomic charges =     0.000000

                    Cartesian Multipole Moments
 -----------------------------------------------------------------
    Charge (ESU x 10^10)
                 0.0000
    Dipole Moment (Debye)
         X       1.2548      Y       1.1409      Z      -0.5716
       Tot       1.7896
    Quadrupole Moments (Debye-Ang)
        XX    -165.0287     XY      -4.1240     YY    -145.8652
        XZ      16.4258     YZ       9.9054     ZZ    -170.5236

 Total job time:  118.64s(wall), 5654.91s(cpu)
        *  Thank you very much for using Q-Chem.  Have a nice day.  *
