 Q-Chem 5.0, Q-Chem, Inc., Pleasanton, CA (2017)
 Q-Chem 5.0.1 for Intel X86 EM64T Linux

User input:
--------------------------------------------------------------
$molecule
0  1
O 5.9088236286 -2.2451233029 0.541708515
C 5.1246032475 -1.2719955963 0.542475847
C 5.2971902401 0.0871665389 -0.2189284029
C 3.9471750329 0.6635884299 -0.8093792413
C 2.7385495436 -0.3528983209 -0.8146985504
O 1.4761705506 0.2988231598 -0.4965032714
C 0.6683940656 0.4763004516 -1.7260735044
C -0.7445919865 -0.2180965919 -1.5562407477
O -1.7933590994 0.7969106893 -1.3200082357
C -2.5031914871 0.5498202404 -0.086044992
C -4.0201507926 0.894509697 -0.3112861879
C -5.010977558 -0.3349262553 -0.4784921385
C -4.4374471637 -1.7965483822 -0.4451621773
O -5.1111911975 -2.827833696 -0.2290960178
O 3.9447798952 -1.1833582278 1.3505340036
O -3.0590932977 -1.8209530539 -0.8189537664
O -1.9692285035 0.1253945212 0.9594613396
C -2.5525669882 -3.2131933246 -0.7879363347
C -4.6447603901 1.5910356993 0.9779487398
C -5.9795077643 2.3255093781 0.5603639712
C -6.9577755828 1.1040011713 0.3932249822
C -6.0003472188 -0.1011686831 0.742379471
O -5.1157312812 0.4484568524 1.7936869482
H -4.0809612256 1.550735876 -1.1972469515
H -5.5545532223 -0.2405242181 -1.4380603195
H -3.926313719 2.2050528507 1.5546626994
H -6.3127597357 3.0038588269 1.3619121251
H -5.8606039086 2.9073052152 -0.3677889583
H -7.7909930836 1.1516293517 1.1123360247
H -7.3731690565 1.0250202389 -0.6241165726
H -6.5001646106 -1.0270231824 1.0888974048
O 2.8107262438 -1.5508267501 -1.1603844304
C 3.7109027672 -2.4588840757 2.0627057655
C 5.6534006866 1.2368627372 0.8252250315
C 6.0773848088 2.5392014451 0.0343640392
C 4.6770561307 3.083364821 -0.4376227676
C 3.7222651082 1.9454176182 0.0953845537
O 4.3315732072 1.5797001459 1.3945675938
H 6.0787248549 -0.038438613 -0.9879588114
H 4.0866760433 0.96034667 -1.8668995932
H 4.5877400645 -2.7516926574 2.6751590194
H 6.352623943 0.9252956372 1.6255723315
H 6.5832913201 3.2502208168 0.7065413143
H 6.7514602313 2.3096042164 -0.8065031274
H 4.4368452303 4.0439163529 0.0453153163
H 4.6120732376 3.209629824 -1.5301846898
H 2.6554612082 2.2132047499 0.2225016754
H 3.4835225047 -3.2803922493 1.3524739271
H 2.837827708 -2.2855062696 2.7183180288
H -1.511399401 -3.1704016109 -1.1559059378
H -3.1540347877 -3.8780176586 -1.4404887479
H -2.5639631498 -3.6231913237 0.2424474321
H -1.0146148639 -0.7667739505 -2.4843534068
H -0.6829231355 -0.9292677763 -0.7066839069
H 1.1761471535 0.0579584788 -2.6204847722
H 0.5113667674 1.5665415842 -1.8902247929
$end

$rem
JOBTYPE                   OPT
METHOD                    B3LYP
DFT_D                     d3_op
BASIS                     STO-3G
GEOM_OPT_MAX_CYCLES       100
GEOM_OPT_TOL_GRADIENT     300
GEOM_OPT_TOL_DISPLACEMENT 1200
GEOM_OPT_TOL_ENERGY       100
SYMMETRY                  False
THRESH                    12
SCF_CONVERGENCE           8
MAX_SUB_FILE_NUM          128
MEM_STATIC                400
MEM_TOTAL                 4000
$end
--------------------------------------------------------------

   16   -1510.2482089898      5.59E-09 Convergence criterion met
 Total energy in the final basis set = -1510.24820899
   14   -1510.2542708296      9.17E-09 Convergence criterion met
 Total energy in the final basis set = -1510.25427083
   14   -1510.2600717941      4.49E-09 Convergence criterion met
 Total energy in the final basis set = -1510.26007179
   14   -1510.2652669990      3.63E-09 Convergence criterion met
 Total energy in the final basis set = -1510.26526700
   13   -1510.2703993582      9.71E-09 Convergence criterion met
 Total energy in the final basis set = -1510.27039936
   13   -1510.2752874602      9.77E-09 Convergence criterion met
 Total energy in the final basis set = -1510.27528746
   14   -1510.2788843829      3.55E-09 Convergence criterion met
 Total energy in the final basis set = -1510.27888438
   13   -1510.2809729026      7.05E-09 Convergence criterion met
   10   -1510.3018775426      7.94E-09 Convergence criterion met
 Total energy in the final basis set = -1510.30187754
   11   -1510.3018843876      4.94E-09 Convergence criterion met
 Total energy in the final basis set = -1510.30188439
    9   -1510.3018848065      8.82E-09 Convergence criterion met
 Total energy in the final basis set = -1510.30188481
   10   -1510.3018888160      9.32E-09 Convergence criterion met
 Total energy in the final basis set = -1510.30188882
   11   -1510.3018885594      2.23E-09 Convergence criterion met
 Total energy in the final basis set = -1510.30188856
    9   -1510.3018903856      8.61E-09 Convergence criterion met
 Total energy in the final basis set = -1510.30189039

             Standard Nuclear Orientation (Angstroms)
    I     Atom           X                Y                Z
 ----------------------------------------------------------------
    1      O       3.3060947683    -1.5468001249     1.7336804802
    2      C       2.6421833328    -0.5804507568     1.2960206118
    3      C       3.2270615691     0.7777680145     0.7601077423
    4      C       3.1015852419     0.9873238448    -0.8062709401
    5      C       2.4258945476    -0.2148708274    -1.5545305179
    6      O       1.9510791920     0.2622654942    -2.8166133782
    7      C       1.3731978331    -0.8289558556    -3.6355836245
    8      C       0.0795716179    -1.4704846303    -3.0163553949
    9      O      -0.7573128643    -0.4015424800    -2.4164002283
   10      C      -1.2646179848    -0.8353267626    -1.1497014986
   11      C      -2.1447723167     0.2934755255    -0.5322457882
   12      C      -3.3324810898    -0.2714658498     0.3566688495
   13      C      -3.3295746492    -1.8372409940     0.4948091598
   14      O      -3.0527580126    -2.5116278132     1.5087310162
   15      O       1.2193787743    -0.4958622642     1.2800913117
   16      O      -3.7893515242    -2.3924319446    -0.7474237041
   17      O      -1.0244420141    -1.9661450842    -0.6612661360
   18      C      -3.7037947575    -3.8686672900    -0.6975046943
   19      C      -1.3554083531     1.1663173472     0.5471785428
   20      C      -2.1963839446     2.4826446880     0.7888408361
   21      C      -3.3882202501     1.9399299451     1.6620980646
   22      C      -3.0201251573     0.4081671400     1.7516182792
   23      O      -1.5407318118     0.4066560182     1.8013040606
   24      H      -2.5152441910     0.9243083306    -1.3592027349
   25      H      -4.3087550498     0.0400068659    -0.0567042673
   26      H      -0.2686118775     1.3458464679     0.3503038655
   27      H      -1.5921858760     3.2199723545     1.3409581829
   28      H      -2.5339212939     2.9416655918    -0.1540268731
   29      H      -3.3950095661     2.3933583738     2.6660994940
   30      H      -4.3719420970     2.1060132364     1.1944269349
   31      H      -3.4365329622    -0.1392046301     2.6193284261
   32      O       2.3407296098    -1.3997550487    -1.1649040111
   33      C       0.6049780522    -1.7506606082     1.7816357405
   34      C       2.4143664083     2.0359703996     1.2869428691
   35      C       3.2964003750     3.3280769868     1.0715218551
   36      C       3.1683824104     3.5333799300    -0.4848698665
   37      C       2.2417714123     2.3181391840    -0.8784470239
   38      O       1.3352170607     2.2020213190     0.2847616792
   39      H       4.2846921800     0.8246401311     1.0728826515
   40      H       4.0966948066     1.1426174935    -1.2637650079
   41      H       0.0714741769    -1.5331917581     2.7268503206
   42      H       1.9811401055     1.9165897786     2.2985361920
   43      H       2.8744024415     4.1807451297     1.6269219406
   44      H       4.3378787489     3.1746988715     1.3963218154
   45      H       2.6734902446     4.4874228320    -0.7269264557
   46      H       4.1400273365     3.4976111843    -1.0027072522
   47      H       1.6641899002     2.4317775442    -1.8160573542
   48      H       1.3938590381    -2.5096300836     1.9508816141
   49      H      -0.1234429130    -2.0855334128     1.0118985266
   50      H      -4.1321330929    -4.2352842600    -1.6485300458
   51      H      -4.2774870375    -4.2862105228     0.1548798336
   52      H      -2.6495185401    -4.2039700940    -0.6115578250
   53      H      -0.4942237951    -1.9805209944    -3.8203457856
   54      H       0.3323301771    -2.2070677653    -2.2245164152
   55      H       2.1200305286    -1.6356936130    -3.8057949863
   56      H       1.1353826943    -0.3476731665    -4.6053516406
 ----------------------------------------------------------------

    9   -1510.3018901099      7.80E-09 Convergence criterion met
 Total energy in the final basis set = -1510.30189011
 Final energy is   -1510.30189010990
 **  OPTIMIZATION CONVERGED  **

                    Orbital Energies (a.u.)
 --------------------------------------------------------------

 Alpha MOs
 -- Occupied --
-18.944 -18.940 -18.919 -18.910 -18.903 -18.887 -18.883 -18.872
-18.862 -18.853 -10.109 -10.104 -10.088 -10.083 -10.083 -10.071
-10.067 -10.065 -10.054 -10.046 -10.043 -10.034 -10.032 -10.030
-10.027 -10.025 -10.024 -10.020 -10.009 -10.005  -1.024  -1.014
 -0.997  -0.990  -0.979  -0.956  -0.948  -0.938  -0.924  -0.915
 -0.767  -0.754  -0.731  -0.719  -0.711  -0.704  -0.689  -0.652
 -0.636  -0.618  -0.594  -0.576  -0.550  -0.541  -0.534  -0.526
 -0.511  -0.502  -0.481  -0.466  -0.464  -0.454  -0.444  -0.441
 -0.436  -0.434  -0.419  -0.414  -0.405  -0.402  -0.400  -0.397
 -0.390  -0.381  -0.369  -0.364  -0.357  -0.349  -0.348  -0.343
 -0.339  -0.335  -0.333  -0.329  -0.326  -0.320  -0.318  -0.315
 -0.308  -0.301  -0.297  -0.293  -0.290  -0.284  -0.275  -0.273
 -0.267  -0.259  -0.249  -0.242  -0.236  -0.226  -0.215  -0.189
 -0.179  -0.165  -0.162  -0.161  -0.154  -0.148  -0.141  -0.137
 -0.130

          Ground-State Mulliken Net Atomic Charges

     Atom                 Charge (a.u.)
  ----------------------------------------
      1 O                    -0.219925
      2 C                     0.211788
      3 C                    -0.081202
      4 C                    -0.078180
      5 C                     0.213372
      6 O                    -0.170171
      7 C                    -0.046768
      8 C                    -0.059190
      9 O                    -0.169524
     10 C                     0.221246
     11 C                    -0.080345
     12 C                    -0.080482
     13 C                     0.213288
     14 O                    -0.213143
     15 O                    -0.175304
     16 O                    -0.177797
     17 O                    -0.213606
     18 C                    -0.129354
     19 C                     0.009219
     20 C                    -0.144322
     21 C                    -0.145247
     22 C                     0.024331
     23 O                    -0.190774
     24 H                     0.085004
     25 H                     0.082380
     26 H                     0.116803
     27 H                     0.075527
     28 H                     0.068693
     29 H                     0.074791
     30 H                     0.069812
     31 H                     0.085019
     32 O                    -0.205098
     33 C                    -0.144018
     34 C                     0.029013
     35 C                    -0.143764
     36 C                    -0.143303
     37 C                     0.025788
     38 O                    -0.187094
     39 H                     0.084014
     40 H                     0.086629
     41 H                     0.086382
     42 H                     0.091347
     43 H                     0.078925
     44 H                     0.075752
     45 H                     0.078980
     46 H                     0.074876
     47 H                     0.093743
     48 H                     0.091824
     49 H                     0.106007
     50 H                     0.085589
     51 H                     0.087833
     52 H                     0.091252
     53 H                     0.084628
     54 H                     0.112594
     55 H                     0.090561
     56 H                     0.091600
  ----------------------------------------
  Sum of atomic charges =    -0.000000

                    Cartesian Multipole Moments
 -----------------------------------------------------------------
    Charge (ESU x 10^10)
                -0.0000
    Dipole Moment (Debye)
         X       0.0940      Y       2.7789      Z      -3.4064
       Tot       4.3971
    Quadrupole Moments (Debye-Ang)
        XX    -151.6558     XY       9.1464     YY    -156.1825
        XZ      -3.0308     YZ       9.5504     ZZ    -154.2606

 Total job time:  181.03s(wall), 8630.88s(cpu)
        *  Thank you very much for using Q-Chem.  Have a nice day.  *
