 Q-Chem 5.0, Q-Chem, Inc., Pleasanton, CA (2017)
 Q-Chem 5.0.1 for Intel X86 EM64T Linux

User input:
--------------------------------------------------------------
$molecule
0  1
O -3.94934 -3.66094 2.70899
C -3.26408 -4.56952 2.26188
C -3.36658 -6.02376 2.66595
C -3.18715 -7.07505 1.5585
C -2.74922 -6.56083 0.20502
O -1.87377 -7.44088 -0.36464
C -2.4626 -8.22596 -1.40685
C -1.68167 -8.04724 -2.70466
O -0.86894 -9.2057 -2.95029
C 0.45853 -8.96727 -3.09207
C 1.10247 -9.83386 -4.14802
C 1.41204 -9.11918 -5.47153
C 1.37141 -7.6048 -5.42999
O 1.88977 -6.85912 -6.24842
O -2.16569 -4.2263 1.53488
O 0.31164 -7.03053 -4.79543
O 1.04765 -8.05828 -2.51726
C 0.01983 -5.67557 -4.82698
C 2.49134 -10.36074 -3.7534
C 2.80909 -11.62212 -4.55429
C 3.01352 -11.03474 -5.93641
C 2.88989 -9.53874 -5.62208
O 3.38214 -9.42497 -4.30745
H 0.42024 -10.69585 -4.33374
H 0.77508 -9.45071 -6.3207
H 2.59368 -10.55381 -2.66307
H 3.7864 -12.00541 -4.1824
H 2.05076 -12.43197 -4.491
H 4.04496 -11.28263 -6.27225
H 2.27472 -11.35305 -6.70352
H 3.42577 -8.94257 -6.39322
O -3.42562 -5.78207 -0.45478
C -1.84865 -2.93923 1.15368
C -2.21672 -6.4155 3.61873
C -2.64653 -7.59375 4.48666
C -2.67163 -8.6996 3.4564
C -2.10394 -7.95671 2.23852
O -1.24149 -6.99593 2.78987
H -4.32605 -6.13489 3.22067
H -4.12815 -7.64137 1.38172
H -1.70273 -2.29881 2.04965
H -1.87168 -5.57585 4.26198
H -1.81155 -7.78794 5.198
H -3.58876 -7.45713 5.05968
H -1.98344 -9.50612 3.79448
H -3.67589 -9.12268 3.23713
H -1.63308 -8.70516 1.56702
H -2.65725 -2.51944 0.51795
H -0.90614 -2.9555 0.569
H -0.90114 -5.4687 -4.24828
H -0.15494 -5.34254 -5.87225
H 0.85813 -5.09622 -4.38385
H -2.41297 -8.03104 -3.54167
H -1.16816 -7.06556 -2.70794
H -3.51924 -7.92425 -1.60832
H -2.51575 -9.2984 -1.12057
$end

$opt
CONSTRAINT
tors           1           2           3           4    +142.105
tors           3           4           5           6    +142.105
tors           4           5           6           7    +104.211
tors           5           6           7           8    +123.158
tors           6           7           8           9    +104.211
tors           7           8           9          10    -123.158
tors           8           9          10          11    -142.105
tors           9          10          11          12    +104.211
tors          11          12          13          14    +161.053
ENDCONSTRAINT
$end

$rem
JOBTYPE                   OPT
METHOD                    B3LYP
DFT_D                     d3_op
BASIS                     STO-3G
GEOM_OPT_MAX_CYCLES       100
GEOM_OPT_TOL_GRADIENT     300
GEOM_OPT_TOL_DISPLACEMENT 1200
GEOM_OPT_TOL_ENERGY       100
SYMMETRY                  False
THRESH                    12
SCF_CONVERGENCE           8
MAX_SUB_FILE_NUM          128
MEM_STATIC                400
MEM_TOTAL                 4000
$end
--------------------------------------------------------------

   16   -1510.1015407409      1.77E-09 Convergence criterion met
 Total energy in the final basis set = -1510.10154074
   13   -1510.1746350864      8.27E-09 Convergence criterion met
 Total energy in the final basis set = -1510.17463509
   14   -1510.2142208519      1.89E-09 Convergence criterion met
 Total energy in the final basis set = -1510.21422085
   14   -1510.2324556542      5.50E-09 Convergence criterion met
 Total energy in the final basis set = -1510.23245565
    2   -1510.2324556541      3.55E-09 Convergence criterion met
 Total energy in the final basis set = -1510.23245565
   13   -1510.2389587340      8.66E-09 Convergence criterion met
 Total energy in the final basis set = -1510.23895873
   13   -1510.2424496482      5.97E-09 Convergence criterion met
 Total energy in the final basis set = -1510.24244965
   12   -1510.2443089418      8.87E-09 Convergence criterion met
   10   -1510.2482809467      9.30E-09 Convergence criterion met
 Total energy in the final basis set = -1510.24828095
   10   -1510.2482922075      8.69E-09 Convergence criterion met
 Total energy in the final basis set = -1510.24829221
   10   -1510.2482982839      5.38E-09 Convergence criterion met
 Total energy in the final basis set = -1510.24829828
    9   -1510.2482998828      7.06E-09 Convergence criterion met
 Total energy in the final basis set = -1510.24829988
    9   -1510.2483014270      4.02E-09 Convergence criterion met
 Total energy in the final basis set = -1510.24830143
    9   -1510.2483029823      5.38E-09 Convergence criterion met
 Total energy in the final basis set = -1510.24830298

             Standard Nuclear Orientation (Angstroms)
    I     Atom           X                Y                Z
 ----------------------------------------------------------------
    1      O       5.9088236286    -2.2451233029     0.5417085150
    2      C       5.1246032475    -1.2719955963     0.5424758470
    3      C       5.2971902401     0.0871665389    -0.2189284029
    4      C       3.9471750329     0.6635884299    -0.8093792413
    5      C       2.7385495436    -0.3528983209    -0.8146985504
    6      O       1.4761705506     0.2988231598    -0.4965032714
    7      C       0.6683940656     0.4763004516    -1.7260735044
    8      C      -0.7445919865    -0.2180965919    -1.5562407477
    9      O      -1.7933590994     0.7969106893    -1.3200082357
   10      C      -2.5031914871     0.5498202404    -0.0860449920
   11      C      -4.0201507926     0.8945096970    -0.3112861879
   12      C      -5.0109775580    -0.3349262553    -0.4784921385
   13      C      -4.4374471637    -1.7965483822    -0.4451621773
   14      O      -5.1111911975    -2.8278336960    -0.2290960178
   15      O       3.9447798952    -1.1833582278     1.3505340036
   16      O      -3.0590932977    -1.8209530539    -0.8189537664
   17      O      -1.9692285035     0.1253945212     0.9594613396
   18      C      -2.5525669882    -3.2131933246    -0.7879363347
   19      C      -4.6447603901     1.5910356993     0.9779487398
   20      C      -5.9795077643     2.3255093781     0.5603639712
   21      C      -6.9577755828     1.1040011713     0.3932249822
   22      C      -6.0003472188    -0.1011686831     0.7423794710
   23      O      -5.1157312812     0.4484568524     1.7936869482
   24      H      -4.0809612256     1.5507358760    -1.1972469515
   25      H      -5.5545532223    -0.2405242181    -1.4380603195
   26      H      -3.9263137190     2.2050528507     1.5546626994
   27      H      -6.3127597357     3.0038588269     1.3619121251
   28      H      -5.8606039086     2.9073052152    -0.3677889583
   29      H      -7.7909930836     1.1516293517     1.1123360247
   30      H      -7.3731690565     1.0250202389    -0.6241165726
   31      H      -6.5001646106    -1.0270231824     1.0888974048
   32      O       2.8107262438    -1.5508267501    -1.1603844304
   33      C       3.7109027672    -2.4588840757     2.0627057655
   34      C       5.6534006866     1.2368627372     0.8252250315
   35      C       6.0773848088     2.5392014451     0.0343640392
   36      C       4.6770561307     3.0833648210    -0.4376227676
   37      C       3.7222651082     1.9454176182     0.0953845537
   38      O       4.3315732072     1.5797001459     1.3945675938
   39      H       6.0787248549    -0.0384386130    -0.9879588114
   40      H       4.0866760433     0.9603466700    -1.8668995932
   41      H       4.5877400645    -2.7516926574     2.6751590194
   42      H       6.3526239430     0.9252956372     1.6255723315
   43      H       6.5832913201     3.2502208168     0.7065413143
   44      H       6.7514602313     2.3096042164    -0.8065031274
   45      H       4.4368452303     4.0439163529     0.0453153163
   46      H       4.6120732376     3.2096298240    -1.5301846898
   47      H       2.6554612082     2.2132047499     0.2225016754
   48      H       3.4835225047    -3.2803922493     1.3524739271
   49      H       2.8378277080    -2.2855062696     2.7183180288
   50      H      -1.5113994010    -3.1704016109    -1.1559059378
   51      H      -3.1540347877    -3.8780176586    -1.4404887479
   52      H      -2.5639631498    -3.6231913237     0.2424474321
   53      H      -1.0146148639    -0.7667739505    -2.4843534068
   54      H      -0.6829231355    -0.9292677763    -0.7066839069
   55      H       1.1761471535     0.0579584788    -2.6204847722
   56      H       0.5113667674     1.5665415842    -1.8902247929
 ----------------------------------------------------------------

    9   -1510.2483038711      3.95E-09 Convergence criterion met
 Total energy in the final basis set = -1510.24830387
 Final energy is   -1510.24830387113
 **  OPTIMIZATION CONVERGED  **

                    Orbital Energies (a.u.)
 --------------------------------------------------------------

 Alpha MOs
 -- Occupied --
-18.943 -18.930 -18.912 -18.900 -18.896 -18.887 -18.887 -18.877
-18.876 -18.870 -10.109 -10.104 -10.097 -10.094 -10.072 -10.069
-10.065 -10.060 -10.059 -10.058 -10.057 -10.056 -10.041 -10.037
-10.036 -10.035 -10.021 -10.020 -10.020 -10.019  -1.018  -1.011
 -1.002  -0.999  -0.969  -0.969  -0.941  -0.937  -0.931  -0.928
 -0.763  -0.762  -0.724  -0.722  -0.711  -0.704  -0.693  -0.667
 -0.655  -0.611  -0.599  -0.582  -0.545  -0.544  -0.538  -0.537
 -0.513  -0.511  -0.485  -0.481  -0.467  -0.458  -0.447  -0.439
 -0.434  -0.430  -0.418  -0.415  -0.414  -0.407  -0.406  -0.401
 -0.392  -0.385  -0.376  -0.366  -0.363  -0.356  -0.354  -0.349
 -0.344  -0.340  -0.333  -0.329  -0.329  -0.326  -0.324  -0.312
 -0.309  -0.306  -0.306  -0.297  -0.294  -0.293  -0.286  -0.276
 -0.271  -0.255  -0.246  -0.243  -0.239  -0.233  -0.230  -0.183
 -0.172  -0.171  -0.160  -0.159  -0.151  -0.148  -0.146  -0.143
 -0.141

          Ground-State Mulliken Net Atomic Charges

     Atom                 Charge (a.u.)
  ----------------------------------------
      1 O                    -0.213328
      2 C                     0.210938
      3 C                    -0.079711
      4 C                    -0.080247
      5 C                     0.228747
      6 O                    -0.195217
      7 C                    -0.048543
      8 C                    -0.046762
      9 O                    -0.187843
     10 C                     0.220014
     11 C                    -0.080447
     12 C                    -0.078351
     13 C                     0.211858
     14 O                    -0.213490
     15 O                    -0.166181
     16 O                    -0.171368
     17 O                    -0.201289
     18 C                    -0.127769
     19 C                     0.025359
     20 C                    -0.144327
     21 C                    -0.143917
     22 C                     0.024832
     23 O                    -0.187542
     24 H                     0.084511
     25 H                     0.085452
     26 H                     0.085029
     27 H                     0.078050
     28 H                     0.072897
     29 H                     0.078553
     30 H                     0.072932
     31 H                     0.089676
     32 O                    -0.193197
     33 C                    -0.127398
     34 C                     0.025983
     35 C                    -0.144526
     36 C                    -0.143708
     37 C                     0.023580
     38 O                    -0.185240
     39 H                     0.084716
     40 H                     0.080903
     41 H                     0.089450
     42 H                     0.082817
     43 H                     0.078252
     44 H                     0.073402
     45 H                     0.078132
     46 H                     0.071254
     47 H                     0.094318
     48 H                     0.089584
     49 H                     0.093548
     50 H                     0.091846
     51 H                     0.092063
     52 H                     0.093778
     53 H                     0.081365
     54 H                     0.101694
     55 H                     0.079454
     56 H                     0.085409
  ----------------------------------------
  Sum of atomic charges =     0.000000

                    Cartesian Multipole Moments
 -----------------------------------------------------------------
    Charge (ESU x 10^10)
                -0.0000
    Dipole Moment (Debye)
         X      -0.4166      Y       2.2013      Z      -3.5268
       Tot       4.1782
    Quadrupole Moments (Debye-Ang)
        XX    -155.3580     XY       3.3803     YY    -157.4348
        XZ       3.6802     YZ      -3.5641     ZZ    -158.8788

 Total job time:  60.07s(wall), 2852.37s(cpu)
        *  Thank you very much for using Q-Chem.  Have a nice day.  *
