 Q-Chem 5.0, Q-Chem, Inc., Pleasanton, CA (2017)
 Q-Chem 5.0.1 for Intel X86 EM64T Linux

User input:
--------------------------------------------------------------
$molecule
0  1
O -3.94934 -3.66094 2.70899
C -3.26408 -4.56952 2.26188
C -3.36658 -6.02376 2.66595
C -2.76261 -7.06348 1.7078
C -1.9673 -6.5228 0.54022
O -2.43196 -5.2856 0.1955
C -3.85835 -5.22957 0.08813
C -4.3015 -3.82232 -0.2984
O -5.73294 -3.77187 -0.40469
C -6.2423 -4.14924 -1.60356
C -6.85624 -5.52868 -1.57406
C -8.13355 -5.68678 -2.41178
C -8.40557 -4.58507 -3.41624
O -8.34645 -3.38582 -3.18631
O -1.94782 -4.1792 2.14024
O -8.63905 -4.96276 -4.70395
O -5.84532 -3.63935 -2.64394
C -8.86716 -4.09026 -5.74777
C -6.01915 -6.62471 -2.33998
C -6.2908 -7.97878 -1.69455
C -7.73807 -8.18398 -2.1061
C -7.89928 -7.02766 -3.10861
O -6.6157 -6.80761 -3.60211
H -6.9853 -5.85263 -0.51492
H -9.01454 -5.6841 -1.73355
H -4.94186 -6.43763 -2.4515
H -5.6579 -8.71435 -2.24236
H -6.08445 -8.0688 -0.60629
H -7.82779 -9.1829 -2.58669
H -8.48138 -8.08155 -1.28553
H -8.68272 -7.26322 -3.86119
O -0.80725 -6.83259 0.31407
C -1.46414 -2.88931 1.99585
C -2.57283 -6.32264 3.95324
C -3.12849 -7.57152 4.63517
C -2.64577 -8.64675 3.68595
C -1.83339 -7.80237 2.69755
O -1.3195 -6.75946 3.48891
H -4.444 -6.22665 2.86732
H -3.5204 -7.76017 1.28431
H -0.79216 -2.65468 2.84676
H -2.56119 -5.46847 4.66576
H -2.59134 -7.687 5.60396
H -4.22379 -7.55824 4.82186
H -1.97353 -9.33323 4.24768
H -3.44542 -9.2298 3.1801
H -1.08344 -8.4461 2.18816
H -2.2715 -2.12761 1.95539
H -0.8825 -2.82631 1.05315
H -9.0277 -4.67142 -6.67885
H -7.98953 -3.42378 -5.88858
H -9.77393 -3.48099 -5.54538
H -4.01078 -3.04795 0.42873
H -3.79308 -3.50152 -1.23599
H -4.61491 -5.70032 0.74694
H -4.06604 -5.85602 -0.76643
$end

$opt
CONSTRAINT
tors           1           2           3           4    +161.053
tors           3           4           5           6     -28.421
tors           4           5           6           7     -47.368
tors           5           6           7           8    -180.000
tors           6           7           8           9    -180.000
tors           7           8           9          10     -85.263
tors           8           9          10          11    +104.211
tors           9          10          11          12    +142.105
tors          11          12          13          14     -47.368
ENDCONSTRAINT
$end

$rem
JOBTYPE                   OPT
METHOD                    B3LYP
DFT_D                     d3_op
BASIS                     STO-3G
GEOM_OPT_MAX_CYCLES       100
GEOM_OPT_TOL_GRADIENT     300
GEOM_OPT_TOL_DISPLACEMENT 1200
GEOM_OPT_TOL_ENERGY       100
SYMMETRY                  False
THRESH                    12
SCF_CONVERGENCE           8
MAX_SUB_FILE_NUM          128
MEM_STATIC                400
MEM_TOTAL                 4000
$end
--------------------------------------------------------------

   16   -1510.0326319625      3.95E-09 Convergence criterion met
 Total energy in the final basis set = -1510.03263196
   14   -1510.1156640822      6.24E-09 Convergence criterion met
 Total energy in the final basis set = -1510.11566408
   14   -1510.1655149862      3.14E-09 Convergence criterion met
 Total energy in the final basis set = -1510.16551499
   14   -1510.1949420660      4.29E-09 Convergence criterion met
 Total energy in the final basis set = -1510.19494207
   14   -1510.2111324666      4.35E-09 Convergence criterion met
 Total energy in the final basis set = -1510.21113247
   13   -1510.2208354634      7.34E-09 Convergence criterion met
 Total energy in the final basis set = -1510.22083546
   13   -1510.2271161120      6.54E-09 Convergence criterion met
 Total energy in the final basis set = -1510.22711611
   13   -1510.2311081366      2.72E-09 Convergence criterion met
   10   -1510.2410796123      8.48E-09 Convergence criterion met
 Total energy in the final basis set = -1510.24107961
   10   -1510.2410915151      8.45E-09 Convergence criterion met
 Total energy in the final basis set = -1510.24109152
    9   -1510.2411046514      6.39E-09 Convergence criterion met
 Total energy in the final basis set = -1510.24110465
    9   -1510.2411105508      4.36E-09 Convergence criterion met
 Total energy in the final basis set = -1510.24111055
    9   -1510.2411144736      3.94E-09 Convergence criterion met
 Total energy in the final basis set = -1510.24111447
    9   -1510.2411095101      4.95E-09 Convergence criterion met
 Total energy in the final basis set = -1510.24110951

             Standard Nuclear Orientation (Angstroms)
    I     Atom           X                Y                Z
 ----------------------------------------------------------------
    1      O      -3.2430178868    -2.4972362454     1.6670331463
    2      C      -3.4644563075    -1.6093543346     0.8129009147
    3      C      -3.4708021582    -0.0595860757     1.0583203377
    4      C      -3.3140322760     0.8326165244    -0.2373217422
    5      C      -2.6723458557     0.1978044641    -1.5433815686
    6      O      -1.7141617490    -0.8809094404    -1.4243953280
    7      C      -0.6659469373    -0.6086858606    -0.4142227777
    8      C       0.2722955840    -1.8760254361    -0.4256130781
    9      O       1.3837209698    -1.7721500512     0.5335211804
   10      C       2.5364314426    -1.0594546616    -0.0111337251
   11      C       2.6855979225     0.4106156839     0.5334057759
   12      C       4.1897513083     0.8576552170     0.7898985832
   13      C       5.2144767633    -0.3359803427     0.7413189401
   14      O       5.0905651643    -1.4382616352     1.3181881085
   15      O      -3.9616975122    -1.8611508895    -0.5034435023
   16      O       6.3513402943     0.0319027331    -0.0430536334
   17      O       3.2953655702    -1.5802824049    -0.8551997012
   18      C       7.3078257957    -1.0976343429    -0.1004164750
   19      C       2.3122164307     1.4289257824    -0.6447521428
   20      C       2.1650154624     2.8772442989    -0.0299126971
   21      C       3.6737977331     3.2830965447     0.1538544937
   22      C       4.4002796104     1.9651160241    -0.3218453436
   23      O       3.5527042616     1.4960506671    -1.4420704460
   24      H       2.0445816769     0.5427752472     1.4219907865
   25      H       4.2710767112     1.3048062553     1.7988501835
   26      H       1.4739963487     1.1095996508    -1.2916856830
   27      H       1.6460674611     3.5453610337    -0.7354334500
   28      H       1.6081929224     2.8653718379     0.9206984668
   29      H       3.9449806983     4.1269242176    -0.5005221243
   30      H       3.9219289669     3.5479818435     1.1939811445
   31      H       5.4509706643     2.0803784712    -0.6491597286
   32      O      -3.0647294240     0.5035752079    -2.6897454707
   33      C      -4.0087358817    -3.3145290760    -0.7796813260
   34      C      -4.9708159875     0.3232548291     1.4569340136
   35      C      -5.0383675478     1.8414381977     1.8952907638
   36      C      -5.0293741108     2.5687435139     0.4983532166
   37      C      -4.8027993068     1.3412065779    -0.4655447783
   38      O      -5.6525864929     0.2925293915     0.1437793034
   39      H      -2.7496321705     0.1945048002     1.8539387551
   40      H      -2.6778899411     1.7020233459     0.0193981169
   41      H      -5.0168598814    -3.5623556481    -1.1636854269
   42      H      -5.4444017175    -0.3894004982     2.1602214153
   43      H      -5.9664761667     2.0406513773     2.4540923909
   44      H      -4.1804164370     2.1239961113     2.5264879613
   45      H      -6.0011981673     3.0438492964     0.2886917571
   46      H      -4.2368667722     3.3292665388     0.4134843468
   47      H      -5.0633240813     1.4960713501    -1.5309386326
   48      H      -3.8009972390    -3.8763492428     0.1534526785
   49      H      -3.2498153686    -3.5617687113    -1.5487383940
   50      H       8.1483518995    -0.7527215383    -0.7302328106
   51      H       6.8444574445    -1.9965137180    -0.5557617687
   52      H       7.6834450683    -1.3664177414     0.9081641792
   53      H      -0.3284252694    -2.7542349791    -0.1078043158
   54      H       0.6266671092    -2.0562369160    -1.4653303498
   55      H      -1.0713284173    -0.4649169967     0.6076495666
   56      H      -0.0948817011     0.3018771023    -0.6870966468
 ----------------------------------------------------------------

    9   -1510.2411103445      4.26E-09 Convergence criterion met
 Total energy in the final basis set = -1510.24111034
 Final energy is   -1510.24111034450
 **  OPTIMIZATION CONVERGED  **

                    Orbital Energies (a.u.)
 --------------------------------------------------------------

 Alpha MOs
 -- Occupied --
-18.937 -18.936 -18.925 -18.905 -18.903 -18.896 -18.893 -18.887
-18.877 -18.872 -10.109 -10.107 -10.103 -10.100 -10.077 -10.075
-10.070 -10.067 -10.064 -10.063 -10.063 -10.058 -10.046 -10.044
-10.042 -10.042 -10.029 -10.026 -10.026 -10.024  -1.016  -1.013
 -1.006  -1.004  -0.978  -0.976  -0.944  -0.939  -0.936  -0.934
 -0.769  -0.768  -0.729  -0.728  -0.714  -0.710  -0.706  -0.662
 -0.659  -0.614  -0.605  -0.589  -0.555  -0.551  -0.545  -0.543
 -0.518  -0.515  -0.493  -0.479  -0.473  -0.463  -0.456  -0.446
 -0.443  -0.439  -0.432  -0.417  -0.415  -0.411  -0.409  -0.405
 -0.394  -0.388  -0.379  -0.375  -0.373  -0.364  -0.355  -0.350
 -0.346  -0.344  -0.340  -0.336  -0.335  -0.328  -0.322  -0.320
 -0.317  -0.311  -0.308  -0.305  -0.300  -0.296  -0.291  -0.281
 -0.277  -0.255  -0.254  -0.244  -0.241  -0.239  -0.237  -0.182
 -0.177  -0.169  -0.165  -0.162  -0.160  -0.154  -0.151  -0.148
 -0.148

          Ground-State Mulliken Net Atomic Charges

     Atom                 Charge (a.u.)
  ----------------------------------------
      1 O                    -0.217377
      2 C                     0.208238
      3 C                    -0.081433
      4 C                    -0.083974
      5 C                     0.218054
      6 O                    -0.177859
      7 C                    -0.055082
      8 C                    -0.043383
      9 O                    -0.195523
     10 C                     0.221799
     11 C                    -0.081804
     12 C                    -0.078822
     13 C                     0.212684
     14 O                    -0.213914
     15 O                    -0.162914
     16 O                    -0.168939
     17 O                    -0.177718
     18 C                    -0.127203
     19 C                     0.024056
     20 C                    -0.144920
     21 C                    -0.143365
     22 C                     0.023669
     23 O                    -0.185777
     24 H                     0.084712
     25 H                     0.083872
     26 H                     0.078272
     27 H                     0.078831
     28 H                     0.072458
     29 H                     0.079572
     30 H                     0.074313
     31 H                     0.096171
     32 O                    -0.192169
     33 C                    -0.133873
     34 C                     0.025669
     35 C                    -0.145070
     36 C                    -0.142338
     37 C                     0.025889
     38 O                    -0.186396
     39 H                     0.082437
     40 H                     0.076869
     41 H                     0.090072
     42 H                     0.084805
     43 H                     0.079740
     44 H                     0.072854
     45 H                     0.079626
     46 H                     0.072906
     47 H                     0.094552
     48 H                     0.100530
     49 H                     0.089320
     50 H                     0.090706
     51 H                     0.094877
     52 H                     0.088530
     53 H                     0.093088
     54 H                     0.088516
     55 H                     0.080344
     56 H                     0.071823
  ----------------------------------------
  Sum of atomic charges =     0.000000

                    Cartesian Multipole Moments
 -----------------------------------------------------------------
    Charge (ESU x 10^10)
                 0.0000
    Dipole Moment (Debye)
         X       0.4834      Y       3.5719      Z       2.4611
       Tot       4.3645
    Quadrupole Moments (Debye-Ang)
        XX    -157.0970     XY       3.2544     YY    -156.1455
        XZ      -3.4961     YZ       9.2959     ZZ    -170.1637

 Total job time:  76.42s(wall), 3639.06s(cpu)
        *  Thank you very much for using Q-Chem.  Have a nice day.  *
