 Q-Chem 5.0, Q-Chem, Inc., Pleasanton, CA (2017)
 Q-Chem 5.0.1 for Intel X86 EM64T Linux

User input:
--------------------------------------------------------------
$molecule
0  1
O -3.2430178868 -2.4972362454 1.6670331463
C -3.4644563075 -1.6093543346 0.8129009147
C -3.4708021582 -0.0595860757 1.0583203377
C -3.314032276 0.8326165244 -0.2373217422
C -2.6723458557 0.1978044641 -1.5433815686
O -1.714161749 -0.8809094404 -1.424395328
C -0.6659469373 -0.6086858606 -0.4142227777
C 0.272295584 -1.8760254361 -0.4256130781
O 1.3837209698 -1.7721500512 0.5335211804
C 2.5364314426 -1.0594546616 -0.0111337251
C 2.6855979225 0.4106156839 0.5334057759
C 4.1897513083 0.857655217 0.7898985832
C 5.2144767633 -0.3359803427 0.7413189401
O 5.0905651643 -1.4382616352 1.3181881085
O -3.9616975122 -1.8611508895 -0.5034435023
O 6.3513402943 0.0319027331 -0.0430536334
O 3.2953655702 -1.5802824049 -0.8551997012
C 7.3078257957 -1.0976343429 -0.100416475
C 2.3122164307 1.4289257824 -0.6447521428
C 2.1650154624 2.8772442989 -0.0299126971
C 3.6737977331 3.2830965447 0.1538544937
C 4.4002796104 1.9651160241 -0.3218453436
O 3.5527042616 1.4960506671 -1.442070446
H 2.0445816769 0.5427752472 1.4219907865
H 4.2710767112 1.3048062553 1.7988501835
H 1.4739963487 1.1095996508 -1.291685683
H 1.6460674611 3.5453610337 -0.73543345
H 1.6081929224 2.8653718379 0.9206984668
H 3.9449806983 4.1269242176 -0.5005221243
H 3.9219289669 3.5479818435 1.1939811445
H 5.4509706643 2.0803784712 -0.6491597286
O -3.064729424 0.5035752079 -2.6897454707
C -4.0087358817 -3.314529076 -0.779681326
C -4.9708159875 0.3232548291 1.4569340136
C -5.0383675478 1.8414381977 1.8952907638
C -5.0293741108 2.5687435139 0.4983532166
C -4.8027993068 1.3412065779 -0.4655447783
O -5.6525864929 0.2925293915 0.1437793034
H -2.7496321705 0.1945048002 1.8539387551
H -2.6778899411 1.7020233459 0.0193981169
H -5.0168598814 -3.5623556481 -1.1636854269
H -5.4444017175 -0.3894004982 2.1602214153
H -5.9664761667 2.0406513773 2.4540923909
H -4.180416437 2.1239961113 2.5264879613
H -6.0011981673 3.0438492964 0.2886917571
H -4.2368667722 3.3292665388 0.4134843468
H -5.0633240813 1.4960713501 -1.5309386326
H -3.800997239 -3.8763492428 0.1534526785
H -3.2498153686 -3.5617687113 -1.548738394
H 8.1483518995 -0.7527215383 -0.7302328106
H 6.8444574445 -1.996513718 -0.5557617687
H 7.6834450683 -1.3664177414 0.9081641792
H -0.3284252694 -2.7542349791 -0.1078043158
H 0.6266671092 -2.056236916 -1.4653303498
H -1.0713284173 -0.4649169967 0.6076495666
H -0.0948817011 0.3018771023 -0.6870966468
$end

$rem
JOBTYPE                   OPT
METHOD                    B3LYP
DFT_D                     d3_op
BASIS                     STO-3G
GEOM_OPT_MAX_CYCLES       100
GEOM_OPT_TOL_GRADIENT     300
GEOM_OPT_TOL_DISPLACEMENT 1200
GEOM_OPT_TOL_ENERGY       100
SYMMETRY                  False
THRESH                    12
SCF_CONVERGENCE           8
MAX_SUB_FILE_NUM          128
MEM_STATIC                400
MEM_TOTAL                 4000
$end
--------------------------------------------------------------

   16   -1510.2410653360      6.71E-09 Convergence criterion met
 Total energy in the final basis set = -1510.24106534
   13   -1510.2452760359      5.42E-09 Convergence criterion met
 Total energy in the final basis set = -1510.24527604
   14   -1510.2500490878      6.90E-09 Convergence criterion met
 Total energy in the final basis set = -1510.25004909
   14   -1510.2547120145      7.61E-09 Convergence criterion met
 Total energy in the final basis set = -1510.25471201
   14   -1510.2581310317      5.09E-09 Convergence criterion met
 Total energy in the final basis set = -1510.25813103
   13   -1510.2591881137      8.76E-09 Convergence criterion met
 Total energy in the final basis set = -1510.25918811
   14   -1510.2617760403      2.50E-09 Convergence criterion met
 Total energy in the final basis set = -1510.26177604
   14   -1510.2615892305      4.57E-09 Convergence criterion met
   11   -1510.2775494046      7.71E-09 Convergence criterion met
 Total energy in the final basis set = -1510.27754940
   11   -1510.2775791363      6.97E-09 Convergence criterion met
 Total energy in the final basis set = -1510.27757914
   11   -1510.2776082813      7.08E-09 Convergence criterion met
 Total energy in the final basis set = -1510.27760828
   11   -1510.2776103000      7.98E-09 Convergence criterion met
 Total energy in the final basis set = -1510.27761030
   11   -1510.2776269682      6.06E-09 Convergence criterion met
 Total energy in the final basis set = -1510.27762697
    9   -1510.2776258263      9.36E-09 Convergence criterion met
 Total energy in the final basis set = -1510.27762583

             Standard Nuclear Orientation (Angstroms)
    I     Atom           X                Y                Z
 ----------------------------------------------------------------
    1      O      -2.6469491317    -1.7102734432     2.1112801451
    2      C      -3.3144786111    -1.4247713785     1.0911318753
    3      C      -3.7744732538    -0.0004082201     0.6387336748
    4      C      -3.5077415368     0.3184829082    -0.8951562948
    5      C      -2.8751486084    -0.8675778352    -1.7339319710
    6      O      -1.5225318048    -1.2826530330    -1.4517139289
    7      C      -0.7412937921    -0.3639811013    -0.5942239122
    8      C       0.7113490228    -0.9626120582    -0.5701778868
    9      O       1.5782215918    -0.2852033084     0.4219617096
   10      C       2.0393864112     0.9775320570    -0.0869922962
   11      C       3.0323197505     1.5828338126     0.9662854357
   12      C       4.2320067364     0.6129820765     1.3347844977
   13      C       4.2085147332    -0.7492899154     0.5624926442
   14      O       4.3082137026    -1.8981160954     1.0430951827
   15      O      -3.7823733399    -2.3741418627     0.1315612434
   16      O       4.0950717402    -0.4685229872    -0.8402655147
   17      O       1.6604396972     1.4826048087    -1.1640238507
   18      C       4.0914061087    -1.7295553287    -1.6149275137
   19      C       3.8116093705     2.8285228167     0.3753629083
   20      C       4.4645798363     3.6207211324     1.5746772986
   21      C       5.6555896034     2.6632603818     1.9559907426
   22      C       5.4715751110     1.5084582147     0.8931791723
   23      O       4.9734513058     2.2138324842    -0.3080420359
   24      H       2.4558994863     1.8507904223     1.8711350143
   25      H       4.2544988916     0.3867144595     2.4148612888
   26      H       3.2176814007     3.4310141161    -0.3393555982
   27      H       4.8290674397     4.6032258018     1.2350157653
   28      H       3.7580267095     3.7729562050     2.4061693577
   29      H       6.6307525410     3.1578336310     1.8219656114
   30      H       5.5879259122     2.2895090417     2.9903140329
   31      H       6.3892331514     0.9363553625     0.6549319175
   32      O      -3.4673022400    -1.4629423977    -2.6587158816
   33      C      -3.2888389228    -3.7348673037     0.4471289589
   34      C      -5.3603678330     0.1551677754     0.6984306893
   35      C      -5.7057722200     1.6960733103     0.6363932623
   36      C      -5.4456299896     2.0041599420    -0.8848031915
   37      C      -4.9851424470     0.5884227864    -1.4067101644
   38      O      -5.8038143194    -0.3581666365    -0.6138839922
   39      H      -3.2769801930     0.7334183152     1.2970361298
   40      H      -2.8795075452     1.2206345299    -1.0006787189
   41      H      -4.1577787381    -4.4156357701     0.5324257932
   42      H      -5.8446898378    -0.4051382724     1.5218261246
   43      H      -6.7598578764     1.8628670417     0.9096940935
   44      H      -5.0682572460     2.2920529123     1.3088526360
   45      H      -6.3686795485     2.3206240081    -1.3957548766
   46      H      -4.6745064264     2.7759456873    -1.0382259715
   47      H      -5.1209280079     0.3986192174    -2.4889488106
   48      H      -2.7218564660    -3.7131723593     1.3997207019
   49      H      -2.6347360145    -4.0735988718    -0.3804740455
   50      H       3.8762185860    -1.4448235930    -2.6613186661
   51      H       3.3159331019    -2.4333782203    -1.2508549387
   52      H       5.0763262663    -2.2377531811    -1.5662698765
   53      H       0.6667361727    -2.0244168247    -0.2542306343
   54      H       1.1490711165    -0.8984927927    -1.5886509281
   55      H      -1.1340194208    -0.3171300520     0.4435883800
   56      H      -0.7041345559     0.6641187799    -1.0136070031
 ----------------------------------------------------------------

    9   -1510.2776267747      5.66E-09 Convergence criterion met
 Total energy in the final basis set = -1510.27762677
 Final energy is   -1510.27762677469
 **  OPTIMIZATION CONVERGED  **

                    Orbital Energies (a.u.)
 --------------------------------------------------------------

 Alpha MOs
 -- Occupied --
-18.942 -18.938 -18.934 -18.928 -18.891 -18.890 -18.883 -18.881
-18.875 -18.872 -10.107 -10.106 -10.100 -10.099 -10.078 -10.076
-10.065 -10.064 -10.063 -10.061 -10.060 -10.059 -10.044 -10.042
-10.040 -10.039 -10.024 -10.023 -10.022 -10.022  -1.021  -1.018
 -1.008  -1.002  -0.973  -0.972  -0.944  -0.942  -0.936  -0.934
 -0.767  -0.767  -0.729  -0.726  -0.713  -0.708  -0.703  -0.661
 -0.661  -0.615  -0.603  -0.590  -0.554  -0.547  -0.541  -0.539
 -0.516  -0.513  -0.489  -0.481  -0.473  -0.468  -0.454  -0.446
 -0.437  -0.434  -0.428  -0.419  -0.417  -0.413  -0.410  -0.404
 -0.394  -0.387  -0.376  -0.372  -0.366  -0.360  -0.359  -0.350
 -0.346  -0.340  -0.339  -0.334  -0.333  -0.328  -0.319  -0.312
 -0.311  -0.308  -0.308  -0.301  -0.298  -0.296  -0.293  -0.281
 -0.277  -0.258  -0.253  -0.252  -0.241  -0.237  -0.236  -0.184
 -0.178  -0.177  -0.171  -0.164  -0.162  -0.151  -0.147  -0.146
 -0.145

          Ground-State Mulliken Net Atomic Charges

     Atom                 Charge (a.u.)
  ----------------------------------------
      1 O                    -0.215961
      2 C                     0.205809
      3 C                    -0.082188
      4 C                    -0.084806
      5 C                     0.215058
      6 O                    -0.177129
      7 C                    -0.054021
      8 C                    -0.046241
      9 O                    -0.174820
     10 C                     0.216258
     11 C                    -0.078204
     12 C                    -0.078780
     13 C                     0.211988
     14 O                    -0.212607
     15 O                    -0.161881
     16 O                    -0.169615
     17 O                    -0.212362
     18 C                    -0.128822
     19 C                     0.024694
     20 C                    -0.143994
     21 C                    -0.143798
     22 C                     0.026062
     23 O                    -0.185383
     24 H                     0.084704
     25 H                     0.085987
     26 H                     0.089561
     27 H                     0.078516
     28 H                     0.072882
     29 H                     0.078517
     30 H                     0.074184
     31 H                     0.083133
     32 O                    -0.198706
     33 C                    -0.134270
     34 C                     0.027017
     35 C                    -0.143788
     36 C                    -0.144577
     37 C                     0.026365
     38 O                    -0.183497
     39 H                     0.082445
     40 H                     0.079193
     41 H                     0.089887
     42 H                     0.083670
     43 H                     0.079076
     44 H                     0.073159
     45 H                     0.079415
     46 H                     0.072859
     47 H                     0.093388
     48 H                     0.100601
     49 H                     0.092554
     50 H                     0.092166
     51 H                     0.089104
     52 H                     0.087836
     53 H                     0.094092
     54 H                     0.094932
     55 H                     0.083962
     56 H                     0.086372
  ----------------------------------------
  Sum of atomic charges =     0.000000

                    Cartesian Multipole Moments
 -----------------------------------------------------------------
    Charge (ESU x 10^10)
                 0.0000
    Dipole Moment (Debye)
         X       0.6007      Y       2.5515      Z       2.3692
       Tot       3.5333
    Quadrupole Moments (Debye-Ang)
        XX    -162.1360     XY      -6.6951     YY    -155.2304
        XZ      -4.2974     YZ       5.1731     ZZ    -166.8693

 Total job time:  126.45s(wall), 6027.53s(cpu)
        *  Thank you very much for using Q-Chem.  Have a nice day.  *
