 Q-Chem 5.0, Q-Chem, Inc., Pleasanton, CA (2017)
 Q-Chem 5.0.1 for Intel X86 EM64T Linux

User input:
--------------------------------------------------------------
$molecule
0  1
O 5.0925944342 -2.8033810637 -0.6024316132
C 4.505083986 -1.7465276665 -0.2795751652
C 4.659828267 -0.3501056354 -0.9901364991
C 3.821910833 0.814839368 -0.3412079124
C 2.4232668 0.441289501 0.269023211
O 1.8885029917 -0.6920807739 -0.437130149
C 0.4007642482 -0.6678395972 -0.5163298501
C -0.2372385107 -0.8121933724 0.9214969062
O -1.7062835815 -0.9768537844 1.0766179042
C -2.517593547 -0.7502928977 -0.0777580028
C -4.0069650509 -1.0054859726 0.3827995853
C -4.8555609714 0.3190088415 0.5678570854
C -3.9961415859 1.6188854398 0.4142971412
O -2.7476904397 1.6921644754 0.3522139731
O 3.7989239935 -1.5797260076 0.9559205292
O -4.867438613 2.7495583564 0.3770375738
O -2.1299038167 -0.5580894883 -1.2491127818
C -4.0757338064 3.9954098875 0.2454303943
C -4.8264372168 -1.7084350353 -0.7820067547
C -6.1926256232 -2.2423685375 -0.1938330123
C -7.0141223083 -0.9060155626 -0.0644680122
C -5.9536862636 0.1493252371 -0.5682134137
O -5.2341250249 -0.5712600649 -1.6410660583
H -3.990617232 -1.6034414073 1.3100843141
H -5.3322303242 0.3488975734 1.5653246745
H -4.244578349 -2.4430113528 -1.3715297104
H -6.6681302442 -2.9430126211 -0.8983481012
H -6.0552102135 -2.752270302 0.7731244637
H -7.8949721113 -0.9089232083 -0.7260431178
H -7.3457043109 -0.7049915442 0.966680505
H -6.3691407797 1.1048225216 -0.9429895136
O 1.8312232508 1.0977837818 1.1547490426
C 3.6966681127 -2.8651739057 1.679468889
C 6.1194618184 0.1416372538 -0.5775215887
C 6.4483094128 1.5443398126 -1.2314568004
C 5.6842996709 2.529627307 -0.2680471151
C 4.8894011536 1.4964731806 0.6186351565
O 5.9097627803 0.447624532 0.8607899712
H 4.5091275723 -0.4512105035 -2.0789518752
H 3.572777236 1.5342030104 -1.1461593203
H 4.0520515857 -2.7122178413 2.7166228083
H 6.9038746655 -0.6306017716 -0.7002927906
H 7.5341123156 1.7282265508 -1.2283933263
H 6.0843556822 1.6046088339 -2.2701567544
H 6.3879958374 3.1068514163 0.3531753301
H 5.0228750903 3.2296284795 -0.8031683994
H 4.4785437035 1.8802000896 1.5726697942
H 4.3189851679 -3.6254123903 1.1649197932
H 2.6372079425 -3.1911762955 1.6974225526
H -4.8095407291 4.8220643526 0.2298417327
H -3.4846613401 4.0039997579 -0.6930065532
H -3.3821222299 4.1287194764 1.1005610495
H 0.2169565243 -1.7005790252 1.4117665086
H 0.0793832108 0.0897886796 1.4912335637
H 0.13994001 -1.5238207327 -1.1687963208
H 0.0566364654 0.2703484291 -0.9981139004
$end

$rem
JOBTYPE                   OPT
METHOD                    B3LYP
DFT_D                     d3_op
BASIS                     STO-3G
GEOM_OPT_MAX_CYCLES       100
GEOM_OPT_TOL_GRADIENT     300
GEOM_OPT_TOL_DISPLACEMENT 1200
GEOM_OPT_TOL_ENERGY       100
SYMMETRY                  False
THRESH                    12
SCF_CONVERGENCE           8
MAX_SUB_FILE_NUM          128
MEM_STATIC                400
MEM_TOTAL                 4000
$end
--------------------------------------------------------------

   16   -1510.2631026031      5.84E-09 Convergence criterion met
 Total energy in the final basis set = -1510.26310260
   14   -1510.2674063304      6.72E-09 Convergence criterion met
 Total energy in the final basis set = -1510.26740633
   14   -1510.2698925227      4.31E-09 Convergence criterion met
 Total energy in the final basis set = -1510.26989252
   14   -1510.2723901471      5.50E-09 Convergence criterion met
 Total energy in the final basis set = -1510.27239015
   14   -1510.2746707689      4.36E-09 Convergence criterion met
 Total energy in the final basis set = -1510.27467077
   14   -1510.2766629825      3.19E-09 Convergence criterion met
 Total energy in the final basis set = -1510.27666298
   14   -1510.2786697887      2.74E-09 Convergence criterion met
 Total energy in the final basis set = -1510.27866979
   14   -1510.2805435993      2.49E-09 Convergence criterion met
   11   -1510.2896980279      5.86E-09 Convergence criterion met
 Total energy in the final basis set = -1510.28969803
   11   -1510.2897032056      3.00E-09 Convergence criterion met
 Total energy in the final basis set = -1510.28970321
    9   -1510.2897043194      4.04E-09 Convergence criterion met
 Total energy in the final basis set = -1510.28970432
    9   -1510.2897060872      3.95E-09 Convergence criterion met
 Total energy in the final basis set = -1510.28970609
    9   -1510.2897103286      9.50E-09 Convergence criterion met
 Total energy in the final basis set = -1510.28971033
    9   -1510.2897116373      3.32E-09 Convergence criterion met
 Total energy in the final basis set = -1510.28971164

             Standard Nuclear Orientation (Angstroms)
    I     Atom           X                Y                Z
 ----------------------------------------------------------------
    1      O       2.9572657545    -1.0756424373     2.1089686379
    2      C       3.0489288708    -0.2059028128     1.2126112475
    3      C       4.2533335621    -0.0191623804     0.2253887345
    4      C       3.9056510202    -0.0987367220    -1.3234910951
    5      C       2.4057641192    -0.4242973804    -1.6308609832
    6      O       2.1729720557    -1.7928406340    -1.2594336208
    7      C       0.7340553833    -2.1256823649    -1.4038902554
    8      C      -0.0112014218    -1.6411579501    -0.1060931986
    9      O      -1.4641616393    -1.9192526656    -0.0865127307
   10      C      -2.1579508136    -0.9584404133    -0.9016607960
   11      C      -3.6942443623    -1.0926684861    -0.5973544136
   12      C      -4.1253402545    -0.5041887342     0.8086718132
   13      C      -2.9552545569     0.2117735809     1.5639738355
   14      O      -1.8483422368     0.5601879662     1.0897540326
   15      O       2.0733335226     0.8168187980     0.9773452575
   16      O      -3.3671426805     0.4629646373     2.9059171995
   17      O      -1.6192517439    -0.2216263829    -1.7532755590
   18      C      -2.3054468231     1.1872476345     3.6449197338
   19      C      -4.5574727908    -0.1988195995    -1.5819194367
   20      C      -6.0470134608    -0.7156196435    -1.5470892074
   21      C      -6.5087004028    -0.2038579485    -0.1314751803
   22      C      -5.2164153444     0.5638967796     0.3555860610
   23      O      -4.6359147391     1.1107927922    -0.8899706875
   24      H      -3.9697919774    -2.1605807179    -0.6652054347
   25      H      -4.5571730422    -1.2740493652     1.4723961803
   26      H      -4.1079884529    -0.0745258724    -2.5860962489
   27      H      -6.6345002691    -0.2496197381    -2.3541960392
   28      H      -6.1130686648    -1.8106965735    -1.6482405121
   29      H      -7.3602027527     0.4906319455    -0.2090228139
   30      H      -6.7847289567    -1.0255726421     0.5488903674
   31      H      -5.3964796140     1.3694390949     1.0937414534
   32      O       1.5490892330     0.3295202846    -2.1370071383
   33      C       1.0574173389     0.8259727424     2.0625105196
   34      C       4.8342699839     1.4601788041     0.3081186822
   35      C       6.2586027974     1.4856946755    -0.3787074849
   36      C       5.8642255552     1.4462859587    -1.9029223809
   37      C       4.2920599016     1.3611563558    -1.8036420131
   38      O       3.9760774287     2.2117819965    -0.6329771684
   39      H       5.0112484713    -0.7749332433     0.4967128391
   40      H       4.5312342286    -0.8685441808    -1.8109578768
   41      H       1.2072641872     1.7357302029     2.6774219768
   42      H       4.7915717465     1.9122725102     1.3179346342
   43      H       6.7919679138     2.4148444564    -0.1223915427
   44      H       6.8800541778     0.6271786758    -0.0775694872
   45      H       6.1682966602     2.3692992281    -2.4217222770
   46      H       6.2966117601     0.5832726991    -2.4341908459
   47      H       3.7281673174     1.7049974918    -2.6922179037
   48      H       1.1907415052    -0.0752010004     2.6938150334
   49      H       0.0367273022     0.8406672200     1.6211127531
   50      H      -2.7389200229     1.4402131098     4.6297784630
   51      H      -2.0034287972     2.1153237710     3.1186286693
   52      H      -1.4078844093     0.5520350454     3.7888901238
   53      H       0.4103825152    -2.1573047984     0.7799077991
   54      H       0.1653493805    -0.5508539924    -0.0122429711
   55      H       0.6721894939    -3.2255901831    -1.5209421891
   56      H       0.2953286908    -1.6138209659    -2.2864365301
 ----------------------------------------------------------------

    8   -1510.2897115449      8.79E-09 Convergence criterion met
 Total energy in the final basis set = -1510.28971154
 Final energy is   -1510.28971154494
 **  OPTIMIZATION CONVERGED  **

                    Orbital Energies (a.u.)
 --------------------------------------------------------------

 Alpha MOs
 -- Occupied --
-18.950 -18.925 -18.924 -18.920 -18.894 -18.888 -18.883 -18.873
-18.868 -18.868 -10.114 -10.093 -10.093 -10.092 -10.074 -10.064
-10.060 -10.058 -10.057 -10.056 -10.053 -10.044 -10.039 -10.035
-10.034 -10.033 -10.022 -10.020 -10.017 -10.016  -1.026  -1.007
 -1.002  -0.999  -0.971  -0.965  -0.949  -0.932  -0.928  -0.927
 -0.765  -0.759  -0.726  -0.720  -0.711  -0.703  -0.690  -0.672
 -0.649  -0.613  -0.596  -0.582  -0.547  -0.540  -0.537  -0.532
 -0.514  -0.506  -0.482  -0.474  -0.466  -0.456  -0.456  -0.438
 -0.434  -0.428  -0.421  -0.421  -0.417  -0.407  -0.406  -0.390
 -0.383  -0.380  -0.369  -0.363  -0.359  -0.356  -0.350  -0.346
 -0.344  -0.341  -0.336  -0.331  -0.327  -0.322  -0.321  -0.313
 -0.307  -0.303  -0.303  -0.301  -0.295  -0.284  -0.277  -0.276
 -0.268  -0.262  -0.253  -0.237  -0.236  -0.235  -0.229  -0.192
 -0.182  -0.170  -0.162  -0.157  -0.152  -0.146  -0.145  -0.143
 -0.138

          Ground-State Mulliken Net Atomic Charges

     Atom                 Charge (a.u.)
  ----------------------------------------
      1 O                    -0.218819
      2 C                     0.205312
      3 C                    -0.077783
      4 C                    -0.078432
      5 C                     0.209363
      6 O                    -0.176520
      7 C                    -0.056068
      8 C                    -0.055929
      9 O                    -0.180829
     10 C                     0.215585
     11 C                    -0.081093
     12 C                    -0.077128
     13 C                     0.220555
     14 O                    -0.208912
     15 O                    -0.167040
     16 O                    -0.165865
     17 O                    -0.205622
     18 C                    -0.129078
     19 C                     0.024746
     20 C                    -0.143736
     21 C                    -0.143809
     22 C                     0.025352
     23 O                    -0.187924
     24 H                     0.084271
     25 H                     0.088415
     26 H                     0.091387
     27 H                     0.078762
     28 H                     0.073488
     29 H                     0.078816
     30 H                     0.073842
     31 H                     0.084183
     32 O                    -0.199449
     33 C                    -0.150586
     34 C                     0.026588
     35 C                    -0.144315
     36 C                    -0.143870
     37 C                     0.025190
     38 O                    -0.183694
     39 H                     0.084700
     40 H                     0.084509
     41 H                     0.077065
     42 H                     0.081502
     43 H                     0.077350
     44 H                     0.073010
     45 H                     0.077645
     46 H                     0.072521
     47 H                     0.090381
     48 H                     0.091043
     49 H                     0.106804
     50 H                     0.094212
     51 H                     0.094023
     52 H                     0.090382
     53 H                     0.086930
     54 H                     0.100996
     55 H                     0.085201
     56 H                     0.102367
  ----------------------------------------
  Sum of atomic charges =    -0.000000

                    Cartesian Multipole Moments
 -----------------------------------------------------------------
    Charge (ESU x 10^10)
                -0.0000
    Dipole Moment (Debye)
         X      -0.9694      Y      -1.6175      Z       1.7562
       Tot       2.5769
    Quadrupole Moments (Debye-Ang)
        XX    -133.7548     XY       6.0389     YY    -163.2630
        XZ      -7.2560     YZ      10.4305     ZZ    -154.8615

 Total job time:  119.90s(wall), 5713.98s(cpu)
        *  Thank you very much for using Q-Chem.  Have a nice day.  *
