 Q-Chem 5.0, Q-Chem, Inc., Pleasanton, CA (2017)
 Q-Chem 5.0.1 for Intel X86 EM64T Linux

User input:
--------------------------------------------------------------
$molecule
0  1
O -3.94934 -3.66094 2.70899
C -3.26408 -4.56952 2.26188
C -3.36658 -6.02376 2.66595
C -2.38494 -7.00687 2.00736
C -1.29436 -6.40007 1.15266
O -1.72573 -5.21886 0.61966
C -1.16964 -4.9471 -0.67114
C 0.33792 -4.74356 -0.56174
O 0.86539 -4.30494 -1.82359
C 0.01287 -4.39372 -2.87453
C 0.62209 -3.90974 -4.16885
C 1.01452 -5.01999 -5.15456
C 0.43011 -6.38979 -4.87381
O -0.16178 -6.71243 -3.85394
O -1.97428 -4.14153 2.53173
O 0.65263 -7.33808 -5.82236
O -1.20786 -4.30631 -2.94553
C 0.20534 -8.64011 -5.74037
C -0.28397 -3.04085 -5.08172
C 0.57403 -2.18551 -6.0139
C 1.10664 -3.2429 -6.95614
C 0.3575 -4.47487 -6.43856
O -0.86548 -3.96108 -5.97019
H 1.50265 -3.28192 -3.89853
H 2.11471 -5.15018 -5.25313
H -0.98531 -2.38691 -4.5186
H -0.11949 -1.52343 -6.5807
H 1.346 -1.56204 -5.51381
H 0.77743 -2.99015 -7.98864
H 2.20809 -3.39089 -6.9328
H 0.28494 -5.23976 -7.24258
O -0.42177 -7.11933 0.68367
C -1.4801 -2.84244 2.49563
C -3.0294 -6.23664 4.1553
C -3.63754 -7.54827 4.65087
C -2.72258 -8.55124 3.98157
C -1.74356 -7.60871 3.27579
O -1.6511 -6.51176 4.15087
H -4.42246 -6.3172 2.4731
H -2.88576 -7.79164 1.39774
H -1.13847 -2.55282 3.51058
H -3.35866 -5.39217 4.79981
H -3.47863 -7.60443 5.75152
H -4.71949 -7.666 4.42615
H -2.1856 -9.11907 4.7741
H -3.219 -9.2578 3.28188
H -0.7908 -8.14263 3.06475
H -2.2345 -2.10814 2.1393
H -0.61533 -2.79645 1.80744
H 0.52551 -9.19253 -6.64744
H -0.90412 -8.6597 -5.68285
H 0.63698 -9.13842 -4.84618
H 0.5269 -3.94034 0.17782
H 0.93839 -5.61573 -0.25527
H -1.65974 -3.9684 -0.88168
H -1.4607 -5.80472 -1.32867
$end

$opt
CONSTRAINT
tors           1           2           3           4    -178.504
tors           3           4           5           6     -28.626
tors           4           5           6           7    -147.847
tors           5           6           7           8     -65.322
tors           6           7           8           9    -172.697
tors           7           8           9          10     -11.350
tors           8           9          10          11    +179.614
tors           9          10          11          12    +105.264
tors          11          12          13          14     -10.401
ENDCONSTRAINT
$end

$rem
JOBTYPE                   OPT
METHOD                    B3LYP
DFT_D                     d3_op
BASIS                     STO-3G
GEOM_OPT_MAX_CYCLES       100
GEOM_OPT_TOL_GRADIENT     300
GEOM_OPT_TOL_DISPLACEMENT 1200
GEOM_OPT_TOL_ENERGY       100
SYMMETRY                  False
THRESH                    12
SCF_CONVERGENCE           8
MAX_SUB_FILE_NUM          128
MEM_STATIC                400
MEM_TOTAL                 4000
$end
--------------------------------------------------------------

   16   -1510.0355344677      5.58E-09 Convergence criterion met
 Total energy in the final basis set = -1510.03553447
   14   -1510.1226373597      9.34E-09 Convergence criterion met
 Total energy in the final basis set = -1510.12263736
   15   -1510.1757867453      2.24E-09 Convergence criterion met
 Total energy in the final basis set = -1510.17578675
   15   -1510.2088740125      2.24E-09 Convergence criterion met
 Total energy in the final basis set = -1510.20887401
   14   -1510.2276391240      7.75E-09 Convergence criterion met
 Total energy in the final basis set = -1510.22763912
   14   -1510.2387230221      4.16E-09 Convergence criterion met
 Total energy in the final basis set = -1510.23872302
   14   -1510.2460021973      2.20E-09 Convergence criterion met
 Total energy in the final basis set = -1510.24600220
   13   -1510.2509914085      3.74E-09 Convergence criterion met
   11   -1510.2629954815      7.37E-09 Convergence criterion met
 Total energy in the final basis set = -1510.26299548
   10   -1510.2630395744      9.96E-09 Convergence criterion met
 Total energy in the final basis set = -1510.26303957
   11   -1510.2630767480      2.62E-09 Convergence criterion met
 Total energy in the final basis set = -1510.26307675
   10   -1510.2630896359      6.90E-09 Convergence criterion met
 Total energy in the final basis set = -1510.26308964
    9   -1510.2630961321      7.73E-09 Convergence criterion met
 Total energy in the final basis set = -1510.26309613
    9   -1510.2631011155      6.15E-09 Convergence criterion met
 Total energy in the final basis set = -1510.26310112

             Standard Nuclear Orientation (Angstroms)
    I     Atom           X                Y                Z
 ----------------------------------------------------------------
    1      O       5.0925944342    -2.8033810637    -0.6024316132
    2      C       4.5050839860    -1.7465276665    -0.2795751652
    3      C       4.6598282670    -0.3501056354    -0.9901364991
    4      C       3.8219108330     0.8148393680    -0.3412079124
    5      C       2.4232668000     0.4412895010     0.2690232110
    6      O       1.8885029917    -0.6920807739    -0.4371301490
    7      C       0.4007642482    -0.6678395972    -0.5163298501
    8      C      -0.2372385107    -0.8121933724     0.9214969062
    9      O      -1.7062835815    -0.9768537844     1.0766179042
   10      C      -2.5175935470    -0.7502928977    -0.0777580028
   11      C      -4.0069650509    -1.0054859726     0.3827995853
   12      C      -4.8555609714     0.3190088415     0.5678570854
   13      C      -3.9961415859     1.6188854398     0.4142971412
   14      O      -2.7476904397     1.6921644754     0.3522139731
   15      O       3.7989239935    -1.5797260076     0.9559205292
   16      O      -4.8674386130     2.7495583564     0.3770375738
   17      O      -2.1299038167    -0.5580894883    -1.2491127818
   18      C      -4.0757338064     3.9954098875     0.2454303943
   19      C      -4.8264372168    -1.7084350353    -0.7820067547
   20      C      -6.1926256232    -2.2423685375    -0.1938330123
   21      C      -7.0141223083    -0.9060155626    -0.0644680122
   22      C      -5.9536862636     0.1493252371    -0.5682134137
   23      O      -5.2341250249    -0.5712600649    -1.6410660583
   24      H      -3.9906172320    -1.6034414073     1.3100843141
   25      H      -5.3322303242     0.3488975734     1.5653246745
   26      H      -4.2445783490    -2.4430113528    -1.3715297104
   27      H      -6.6681302442    -2.9430126211    -0.8983481012
   28      H      -6.0552102135    -2.7522703020     0.7731244637
   29      H      -7.8949721113    -0.9089232083    -0.7260431178
   30      H      -7.3457043109    -0.7049915442     0.9666805050
   31      H      -6.3691407797     1.1048225216    -0.9429895136
   32      O       1.8312232508     1.0977837818     1.1547490426
   33      C       3.6966681127    -2.8651739057     1.6794688890
   34      C       6.1194618184     0.1416372538    -0.5775215887
   35      C       6.4483094128     1.5443398126    -1.2314568004
   36      C       5.6842996709     2.5296273070    -0.2680471151
   37      C       4.8894011536     1.4964731806     0.6186351565
   38      O       5.9097627803     0.4476245320     0.8607899712
   39      H       4.5091275723    -0.4512105035    -2.0789518752
   40      H       3.5727772360     1.5342030104    -1.1461593203
   41      H       4.0520515857    -2.7122178413     2.7166228083
   42      H       6.9038746655    -0.6306017716    -0.7002927906
   43      H       7.5341123156     1.7282265508    -1.2283933263
   44      H       6.0843556822     1.6046088339    -2.2701567544
   45      H       6.3879958374     3.1068514163     0.3531753301
   46      H       5.0228750903     3.2296284795    -0.8031683994
   47      H       4.4785437035     1.8802000896     1.5726697942
   48      H       4.3189851679    -3.6254123903     1.1649197932
   49      H       2.6372079425    -3.1911762955     1.6974225526
   50      H      -4.8095407291     4.8220643526     0.2298417327
   51      H      -3.4846613401     4.0039997579    -0.6930065532
   52      H      -3.3821222299     4.1287194764     1.1005610495
   53      H       0.2169565243    -1.7005790252     1.4117665086
   54      H       0.0793832108     0.0897886796     1.4912335637
   55      H       0.1399400100    -1.5238207327    -1.1687963208
   56      H       0.0566364654     0.2703484291    -0.9981139004
 ----------------------------------------------------------------

    9   -1510.2631018050      4.01E-09 Convergence criterion met
 Total energy in the final basis set = -1510.26310181
 Final energy is   -1510.26310180504
 **  OPTIMIZATION CONVERGED  **

                    Orbital Energies (a.u.)
 --------------------------------------------------------------

 Alpha MOs
 -- Occupied --
-18.942 -18.932 -18.921 -18.920 -18.886 -18.884 -18.884 -18.876
-18.870 -18.857 -10.105 -10.102 -10.097 -10.093 -10.069 -10.064
-10.059 -10.059 -10.057 -10.057 -10.055 -10.054 -10.039 -10.038
-10.034 -10.031 -10.020 -10.020 -10.019 -10.018  -1.018  -1.011
 -1.001  -0.994  -0.969  -0.968  -0.942  -0.935  -0.930  -0.925
 -0.763  -0.761  -0.725  -0.721  -0.709  -0.702  -0.689  -0.665
 -0.656  -0.614  -0.595  -0.584  -0.544  -0.542  -0.536  -0.535
 -0.511  -0.507  -0.481  -0.474  -0.463  -0.453  -0.449  -0.443
 -0.436  -0.432  -0.422  -0.415  -0.412  -0.411  -0.405  -0.388
 -0.379  -0.378  -0.373  -0.365  -0.361  -0.357  -0.354  -0.347
 -0.339  -0.336  -0.330  -0.328  -0.328  -0.323  -0.316  -0.313
 -0.311  -0.305  -0.304  -0.300  -0.295  -0.292  -0.279  -0.275
 -0.272  -0.262  -0.255  -0.241  -0.233  -0.232  -0.224  -0.184
 -0.177  -0.168  -0.162  -0.158  -0.153  -0.143  -0.143  -0.142
 -0.136

          Ground-State Mulliken Net Atomic Charges

     Atom                 Charge (a.u.)
  ----------------------------------------
      1 O                    -0.218536
      2 C                     0.218334
      3 C                    -0.074385
      4 C                    -0.078435
      5 C                     0.222528
      6 O                    -0.177626
      7 C                    -0.048718
      8 C                    -0.061613
      9 O                    -0.174993
     10 C                     0.216826
     11 C                    -0.080728
     12 C                    -0.078885
     13 C                     0.214247
     14 O                    -0.206446
     15 O                    -0.165909
     16 O                    -0.168936
     17 O                    -0.222358
     18 C                    -0.128031
     19 C                     0.025658
     20 C                    -0.144664
     21 C                    -0.143323
     22 C                     0.024766
     23 O                    -0.187602
     24 H                     0.084679
     25 H                     0.085738
     26 H                     0.084688
     27 H                     0.077742
     28 H                     0.073372
     29 H                     0.077950
     30 H                     0.073236
     31 H                     0.087672
     32 O                    -0.212937
     33 C                    -0.133542
     34 C                     0.023340
     35 C                    -0.145687
     36 C                    -0.141186
     37 C                     0.024407
     38 O                    -0.191397
     39 H                     0.087934
     40 H                     0.081766
     41 H                     0.088355
     42 H                     0.085419
     43 H                     0.078550
     44 H                     0.073684
     45 H                     0.077810
     46 H                     0.073432
     47 H                     0.089853
     48 H                     0.102517
     49 H                     0.082874
     50 H                     0.091945
     51 H                     0.092119
     52 H                     0.091018
     53 H                     0.078819
     54 H                     0.105132
     55 H                     0.093722
     56 H                     0.095806
  ----------------------------------------
  Sum of atomic charges =    -0.000000

                    Cartesian Multipole Moments
 -----------------------------------------------------------------
    Charge (ESU x 10^10)
                 0.0000
    Dipole Moment (Debye)
         X      -1.7867      Y       1.1951      Z       0.5898
       Tot       2.2290
    Quadrupole Moments (Debye-Ang)
        XX    -149.6777     XY       7.1134     YY    -150.1201
        XZ     -11.9792     YZ      -6.1934     ZZ    -162.9918

 Total job time:  66.43s(wall), 3158.67s(cpu)
        *  Thank you very much for using Q-Chem.  Have a nice day.  *
