 Q-Chem 5.0, Q-Chem, Inc., Pleasanton, CA (2017)
 Q-Chem 5.0.1 for Intel X86 EM64T Linux

User input:
--------------------------------------------------------------
$molecule
0  1
O -4.3251576414 2.3677436392 1.7064517833
C -4.143765246 1.8347247058 0.5917516956
C -4.8497402941 0.5513915982 0.0254139688
C -3.9198996317 -0.3931362658 -0.8354434197
C -2.3921598061 -0.1009433486 -0.6185219133
O -1.6870118969 -0.3983830148 -1.8320755507
C -0.3916041413 -1.114314385 -1.6909786588
C 0.3398438297 -1.091289808 -0.2973917606
O 1.7850563238 -1.1640711968 -0.6202794831
C 2.5648815484 -1.1778153878 0.5839379147
C 4.0696387108 -1.3491308385 0.1692935533
C 4.5980685515 -0.1545468352 -0.7359225565
C 3.4710187072 0.843482525 -1.1691754885
O 3.1032702712 1.1106569923 -2.333507326
O -3.3705962023 2.4200122871 -0.4664168049
O 2.8798446246 1.4042614271 0.0108422199
O 2.0868048662 -1.125646284 1.7353978385
C 1.752535102 2.2911197468 -0.3572469916
C 5.001109037 -1.1994298402 1.4397082647
C 6.4629015651 -1.6619083824 1.0616604147
C 6.9624129557 -0.4327317074 0.2137753247
C 5.6810378378 0.4905807094 0.2345576034
O 5.1218294038 0.2707076574 1.5862628016
H 4.1905037054 -2.3224282137 -0.3403644258
H 5.0661422192 -0.5363937518 -1.6601947269
H 4.5743122634 -1.6425971918 2.3603928243
H 7.0710831771 -1.8029497407 1.9691683473
H 6.4632232902 -2.6017412678 0.4867340027
H 7.808735099 0.0766793978 0.701865784
H 7.2597157482 -0.7118188923 -0.8096687415
H 5.8714699036 1.567750303 0.063134357
O -1.8815536715 0.305529275 0.4503772395
C -2.6578142466 3.6181844195 0.0283315175
C -5.3613947388 -0.4423663346 1.150314413
C -6.5335858315 -1.2961612435 0.5317303542
C -5.7346375539 -2.2062662365 -0.475311944
C -4.2427003396 -1.7949359148 -0.1510527598
O -4.2689332929 -1.4362516181 1.2856242406
H -5.6998553137 0.9004745562 -0.5906132802
H -4.1557878901 -0.374496179 -1.9135433038
H -1.8781060771 3.3420761774 0.7679846163
H -5.5710853569 0.04402065 2.1229273359
H -7.0233784624 -1.8986925787 1.3133399965
H -7.293879179 -0.672467065 0.0351504252
H -5.8923522214 -3.2768380549 -0.2697531482
H -5.9959518393 -2.0066762988 -1.5269744093
H -3.4879144904 -2.5826008499 -0.3426312855
H -3.3522690437 4.3421949593 0.5008709294
H -2.1806297641 4.0794541437 -0.8559033005
H 1.228923535 2.5285478058 0.5871587444
H 1.0529865841 1.7933230013 -1.058563258
H 2.1123832842 3.2296219598 -0.826964292
H 0.0735035431 -0.1670459296 0.2583660111
H 0.0306624119 -1.9548847374 0.3289939418
H 0.2920543375 -0.6548703559 -2.4384229076
H -0.567085187 -2.1686989471 -2.0002333297
$end

$rem
JOBTYPE                   OPT
METHOD                    B3LYP
DFT_D                     d3_op
BASIS                     STO-3G
GEOM_OPT_MAX_CYCLES       100
GEOM_OPT_TOL_GRADIENT     300
GEOM_OPT_TOL_DISPLACEMENT 1200
GEOM_OPT_TOL_ENERGY       100
SYMMETRY                  False
THRESH                    12
SCF_CONVERGENCE           8
MAX_SUB_FILE_NUM          128
MEM_STATIC                400
MEM_TOTAL                 4000
$end
--------------------------------------------------------------

   16   -1510.2693594365      4.24E-09 Convergence criterion met
 Total energy in the final basis set = -1510.26935944
   15   -1510.2715983858      3.54E-09 Convergence criterion met
 Total energy in the final basis set = -1510.27159839
   14   -1510.2728223509      6.26E-09 Convergence criterion met
 Total energy in the final basis set = -1510.27282235
   14   -1510.2744383567      3.57E-09 Convergence criterion met
 Total energy in the final basis set = -1510.27443836
   14   -1510.2768734117      7.12E-09 Convergence criterion met
 Total energy in the final basis set = -1510.27687341
   14   -1510.2797803693      3.98E-09 Convergence criterion met
 Total energy in the final basis set = -1510.27978037
   14   -1510.2818859911      5.09E-09 Convergence criterion met
 Total energy in the final basis set = -1510.28188599
   14   -1510.2841846648      6.15E-09 Convergence criterion met
   12   -1510.3015103606      4.30E-09 Convergence criterion met
 Total energy in the final basis set = -1510.30151036
   12   -1510.3015843000      9.84E-09 Convergence criterion met
 Total energy in the final basis set = -1510.30158430
   12   -1510.3015795409      8.81E-09 Convergence criterion met
 Total energy in the final basis set = -1510.30157954
   12   -1510.3016467996      4.14E-09 Convergence criterion met
 Total energy in the final basis set = -1510.30164680
   11   -1510.3016535183      6.03E-09 Convergence criterion met
 Total energy in the final basis set = -1510.30165352
   10   -1510.3016590224      9.05E-09 Convergence criterion met
 Total energy in the final basis set = -1510.30165902

             Standard Nuclear Orientation (Angstroms)
    I     Atom           X                Y                Z
 ----------------------------------------------------------------
    1      O      -3.5360092899     0.5045005429     2.5894661105
    2      C      -2.9125563045     0.5969985108     1.5123368992
    3      C      -3.5166112313     0.7009143822     0.0644782575
    4      C      -3.1028121260    -0.4835823106    -0.9065793714
    5      C      -2.2259110523    -1.5721488390    -0.2065372216
    6      O      -1.1320662746    -1.9176875926    -1.0758512567
    7      C      -0.2860979046    -2.9600565376    -0.4443097255
    8      C       0.6165399277    -2.4127800321     0.7197378493
    9      O       1.8781093574    -1.8806223992     0.1501414456
   10      C       2.4330585266    -0.8594521036     0.9920252855
   11      C       3.8438499893    -0.4649033161     0.4219024587
   12      C       3.8168176687     0.0703552094    -1.0698115203
   13      C       2.3653630994     0.1679211313    -1.6470528565
   14      O       1.9583325230    -0.2129833309    -2.7655708670
   15      O      -1.4845465950     0.6564324993     1.4097044291
   16      O       1.5517578273     0.7882638139    -0.6491514843
   17      O       1.9133983716    -0.4449195257     2.0523678048
   18      C       0.1304103431     0.8059866085    -1.0649084129
   19      C       4.4395183014     0.7847654882     1.1912712058
   20      C       5.9908254973     0.8426717141     0.9095023579
   21      C       6.0061833496     1.3369998688    -0.5853015328
   22      C       4.4599664677     1.5123010799    -0.8673242599
   23      O       3.9111356180     1.9448052027     0.4361424407
   24      H       4.5036470208    -1.3479038974     0.5072486895
   25      H       4.4203367601    -0.5591486681    -1.7465253251
   26      H       4.1326535080     0.8431637896     2.2537259008
   27      H       6.4766069312     1.5699239823     1.5793031908
   28      H       6.4758593723    -0.1378992801     1.0404466358
   29      H       6.5293112808     2.3010283524    -0.6884728700
   30      H       6.4707676031     0.6085253931    -1.2688649056
   31      H       4.2048637971     2.2431160698    -1.6592086631
   32      O      -2.4189139268    -2.1004656875     0.9096001922
   33      C      -0.8412268855     0.5443125100     2.7403039504
   34      C      -5.0931080867     0.5404422284     0.0910775913
   35      C      -5.6687731728     1.0918615641    -1.2710127414
   36      C      -5.2462932552    -0.0550449380    -2.2624635685
   37      C      -4.5380111627    -1.0675539205    -1.2771314547
   38      O      -5.2948950221    -0.9242040786    -0.0154196258
   39      H      -3.2142077780     1.6727148101    -0.3667663767
   40      H      -2.5691658816    -0.1174689119    -1.8000128084
   41      H      -1.3533663348    -0.2178106647     3.3599124512
   42      H      -5.5674365248     0.9280390871     1.0134777748
   43      H      -6.7642087400     1.1933599928    -1.2144435599
   44      H      -5.2352587446     2.0684054336    -1.5391368047
   45      H      -6.1227206080    -0.5271786822    -2.7343955599
   46      H      -4.5653266220     0.2960229645    -3.0544893625
   47      H      -4.5314006428    -2.1234800806    -1.6108685925
   48      H      -0.8749004424     1.5159872518     3.2733515834
   49      H       0.2143636666     0.2446762475     2.5510230447
   50      H      -0.4588877835     1.0006761380    -0.1418366177
   51      H      -0.1745946719    -0.1826333453    -1.4687967931
   52      H      -0.0524517102     1.5930266137    -1.8235233530
   53      H       0.0802255279    -1.6304056058     1.2938063572
   54      H       0.8526451916    -3.2488670230     1.4147519644
   55      H       0.3543046047    -3.3561932091    -1.2583871035
   56      H      -0.9240653352    -3.7764014181    -0.0431648041
 ----------------------------------------------------------------

    9   -1510.3016596327      5.88E-09 Convergence criterion met
 Total energy in the final basis set = -1510.30165963
 Final energy is   -1510.30165963269
 **  OPTIMIZATION CONVERGED  **

                    Orbital Energies (a.u.)
 --------------------------------------------------------------

 Alpha MOs
 -- Occupied --
-18.945 -18.936 -18.934 -18.925 -18.890 -18.887 -18.884 -18.881
-18.878 -18.867 -10.109 -10.107 -10.101 -10.092 -10.082 -10.076
-10.064 -10.060 -10.059 -10.057 -10.045 -10.043 -10.040 -10.039
-10.035 -10.031 -10.023 -10.021 -10.020 -10.019  -1.023  -1.016
 -1.009  -1.000  -0.973  -0.969  -0.947  -0.940  -0.936  -0.928
 -0.767  -0.763  -0.731  -0.724  -0.715  -0.706  -0.700  -0.655
 -0.645  -0.621  -0.599  -0.584  -0.549  -0.545  -0.539  -0.537
 -0.513  -0.511  -0.487  -0.476  -0.466  -0.462  -0.455  -0.441
 -0.436  -0.431  -0.429  -0.423  -0.411  -0.406  -0.405  -0.400
 -0.395  -0.383  -0.371  -0.368  -0.363  -0.356  -0.355  -0.354
 -0.346  -0.337  -0.336  -0.333  -0.331  -0.327  -0.323  -0.313
 -0.309  -0.306  -0.305  -0.300  -0.297  -0.290  -0.287  -0.275
 -0.273  -0.262  -0.253  -0.249  -0.236  -0.236  -0.233  -0.190
 -0.179  -0.177  -0.166  -0.162  -0.161  -0.153  -0.146  -0.145
 -0.143

          Ground-State Mulliken Net Atomic Charges

     Atom                 Charge (a.u.)
  ----------------------------------------
      1 O                    -0.204420
      2 C                     0.215999
      3 C                    -0.079506
      4 C                    -0.079456
      5 C                     0.211218
      6 O                    -0.168490
      7 C                    -0.048570
      8 C                    -0.052869
      9 O                    -0.176865
     10 C                     0.226021
     11 C                    -0.077494
     12 C                    -0.079348
     13 C                     0.210816
     14 O                    -0.214696
     15 O                    -0.179578
     16 O                    -0.171566
     17 O                    -0.219109
     18 C                    -0.156469
     19 C                     0.024826
     20 C                    -0.143859
     21 C                    -0.144048
     22 C                     0.026076
     23 O                    -0.185666
     24 H                     0.083638
     25 H                     0.084185
     26 H                     0.089834
     27 H                     0.078110
     28 H                     0.072639
     29 H                     0.077912
     30 H                     0.073558
     31 H                     0.082958
     32 O                    -0.209905
     33 C                    -0.144498
     34 C                     0.024932
     35 C                    -0.143914
     36 C                    -0.143777
     37 C                     0.026281
     38 O                    -0.185845
     39 H                     0.085265
     40 H                     0.088663
     41 H                     0.090987
     42 H                     0.091735
     43 H                     0.079064
     44 H                     0.073764
     45 H                     0.078942
     46 H                     0.074565
     47 H                     0.083002
     48 H                     0.082292
     49 H                     0.114523
     50 H                     0.105468
     51 H                     0.095819
     52 H                     0.072871
     53 H                     0.104133
     54 H                     0.085912
     55 H                     0.099383
     56 H                     0.094558
  ----------------------------------------
  Sum of atomic charges =     0.000000

                    Cartesian Multipole Moments
 -----------------------------------------------------------------
    Charge (ESU x 10^10)
                 0.0000
    Dipole Moment (Debye)
         X       1.8180      Y      -0.4514      Z      -1.7190
       Tot       2.5424
    Quadrupole Moments (Debye-Ang)
        XX    -150.4138     XY      -9.1019     YY    -155.1863
        XZ      12.8899     YZ      -1.6406     ZZ    -167.4980

 Total job time:  134.88s(wall), 6432.07s(cpu)
        *  Thank you very much for using Q-Chem.  Have a nice day.  *
