 Q-Chem 5.0, Q-Chem, Inc., Pleasanton, CA (2017)
 Q-Chem 5.0.1 for Intel X86 EM64T Linux

User input:
--------------------------------------------------------------
$molecule
0  1
O -3.94934 -3.66094 2.70899
C -3.26408 -4.56952 2.26188
C -3.36658 -6.02376 2.66595
C -2.05485 -6.81962 2.76498
C -0.77355 -6.02841 2.62234
O 0.1939 -6.80982 2.05766
C 1.47521 -6.65532 2.67703
C 1.52688 -5.3466 3.45852
O 2.86788 -4.83224 3.46362
C 3.04697 -3.67773 4.15222
C 4.49016 -3.2348 4.19301
C 5.11536 -2.93857 2.82201
C 4.14125 -2.77966 1.67199
O 4.10442 -3.48207 0.67208
O -2.72435 -4.36763 1.02502
O 3.19337 -1.81225 1.80866
O 2.139 -3.05228 4.68762
C 2.19188 -1.56562 0.89325
C 4.75812 -1.89339 4.91133
C 6.20805 -1.85337 5.39451
C 6.94457 -1.71622 4.07566
C 5.76025 -1.57285 3.11278
O 4.77108 -0.93195 3.88423
H 5.04053 -4.03916 4.7319
H 5.84711 -3.72221 2.52448
H 4.06805 -1.69769 5.76041
H 6.33062 -0.90665 5.96838
H 6.52793 -2.7071 6.02983
H 7.547 -0.78134 4.10579
H 7.58978 -2.57835 3.79968
H 6.06908 -1.04984 2.18073
O -0.80967 -4.82483 2.45819
C -2.657 -3.14533 0.38761
C -3.88863 -6.18241 4.10935
C -4.46641 -7.5842 4.3104
C -3.19758 -8.40715 4.36016
C -2.14547 -7.30444 4.22187
O -2.72058 -6.20905 4.89096
H -4.08141 -6.49374 1.95382
H -2.03175 -7.67537 2.05146
H -2.05995 -2.43201 0.99547
H -4.64906 -5.42215 4.39161
H -4.94674 -7.61706 5.31444
H -5.20363 -7.89084 3.53742
H -3.11803 -8.87019 5.36918
H -3.10593 -9.1908 3.57732
H -1.16585 -7.65731 4.61523
H -3.67763 -2.73852 0.22436
H -2.16237 -3.27556 -0.59663
H 1.56552 -0.72576 1.25744
H 1.5503 -2.46556 0.77743
H 2.63067 -1.28627 -0.08838
H 1.16486 -4.50395 2.86445
H 1.06767 -5.42666 4.47093
H 2.19935 -6.56307 1.83879
H 1.76295 -7.53932 3.28388
$end

$opt
CONSTRAINT
tors           1           2           3           4    -142.409
tors           3           4           5           6    -149.101
tors           4           5           6           7    -137.763
tors           5           6           7           8     -19.341
tors           6           7           8           9    -149.247
tors           7           8           9          10    -178.832
tors           8           9          10          11    +176.403
tors           9          10          11          12     +61.418
tors          11          12          13          14    -118.896
ENDCONSTRAINT
$end

$rem
JOBTYPE                   OPT
METHOD                    B3LYP
DFT_D                     d3_op
BASIS                     STO-3G
GEOM_OPT_MAX_CYCLES       100
GEOM_OPT_TOL_GRADIENT     300
GEOM_OPT_TOL_DISPLACEMENT 1200
GEOM_OPT_TOL_ENERGY       100
SYMMETRY                  False
THRESH                    12
SCF_CONVERGENCE           8
MAX_SUB_FILE_NUM          128
MEM_STATIC                400
MEM_TOTAL                 4000
$end
--------------------------------------------------------------

   15   -1510.0992042150      6.12E-09 Convergence criterion met
 Total energy in the final basis set = -1510.09920421
   14   -1510.1760402895      4.03E-09 Convergence criterion met
 Total energy in the final basis set = -1510.17604029
   14   -1510.2186728650      4.80E-09 Convergence criterion met
 Total energy in the final basis set = -1510.21867287
   14   -1510.2433538851      3.68E-09 Convergence criterion met
 Total energy in the final basis set = -1510.24335389
    2   -1510.2433538850      5.86E-09 Convergence criterion met
 Total energy in the final basis set = -1510.24335389
   13   -1510.2547990212      5.88E-09 Convergence criterion met
 Total energy in the final basis set = -1510.25479902
   13   -1510.2610693777      3.98E-09 Convergence criterion met
 Total energy in the final basis set = -1510.26106938
   13   -1510.2648869449      2.89E-09 Convergence criterion met
    9   -1510.2694804995      8.20E-09 Convergence criterion met
 Total energy in the final basis set = -1510.26948050
    9   -1510.2694847777      4.82E-09 Convergence criterion met
 Total energy in the final basis set = -1510.26948478
    9   -1510.2694870620      3.56E-09 Convergence criterion met
 Total energy in the final basis set = -1510.26948706
    9   -1510.2694888924      4.50E-09 Convergence criterion met
 Total energy in the final basis set = -1510.26948889
    9   -1510.2694902304      4.82E-09 Convergence criterion met
 Total energy in the final basis set = -1510.26949023
    9   -1510.2694913537      4.02E-09 Convergence criterion met
 Total energy in the final basis set = -1510.26949135

             Standard Nuclear Orientation (Angstroms)
    I     Atom           X                Y                Z
 ----------------------------------------------------------------
    1      O      -4.3251576414     2.3677436392     1.7064517833
    2      C      -4.1437652460     1.8347247058     0.5917516956
    3      C      -4.8497402941     0.5513915982     0.0254139688
    4      C      -3.9198996317    -0.3931362658    -0.8354434197
    5      C      -2.3921598061    -0.1009433486    -0.6185219133
    6      O      -1.6870118969    -0.3983830148    -1.8320755507
    7      C      -0.3916041413    -1.1143143850    -1.6909786588
    8      C       0.3398438297    -1.0912898080    -0.2973917606
    9      O       1.7850563238    -1.1640711968    -0.6202794831
   10      C       2.5648815484    -1.1778153878     0.5839379147
   11      C       4.0696387108    -1.3491308385     0.1692935533
   12      C       4.5980685515    -0.1545468352    -0.7359225565
   13      C       3.4710187072     0.8434825250    -1.1691754885
   14      O       3.1032702712     1.1106569923    -2.3335073260
   15      O      -3.3705962023     2.4200122871    -0.4664168049
   16      O       2.8798446246     1.4042614271     0.0108422199
   17      O       2.0868048662    -1.1256462840     1.7353978385
   18      C       1.7525351020     2.2911197468    -0.3572469916
   19      C       5.0011090370    -1.1994298402     1.4397082647
   20      C       6.4629015651    -1.6619083824     1.0616604147
   21      C       6.9624129557    -0.4327317074     0.2137753247
   22      C       5.6810378378     0.4905807094     0.2345576034
   23      O       5.1218294038     0.2707076574     1.5862628016
   24      H       4.1905037054    -2.3224282137    -0.3403644258
   25      H       5.0661422192    -0.5363937518    -1.6601947269
   26      H       4.5743122634    -1.6425971918     2.3603928243
   27      H       7.0710831771    -1.8029497407     1.9691683473
   28      H       6.4632232902    -2.6017412678     0.4867340027
   29      H       7.8087350990     0.0766793978     0.7018657840
   30      H       7.2597157482    -0.7118188923    -0.8096687415
   31      H       5.8714699036     1.5677503030     0.0631343570
   32      O      -1.8815536715     0.3055292750     0.4503772395
   33      C      -2.6578142466     3.6181844195     0.0283315175
   34      C      -5.3613947388    -0.4423663346     1.1503144130
   35      C      -6.5335858315    -1.2961612435     0.5317303542
   36      C      -5.7346375539    -2.2062662365    -0.4753119440
   37      C      -4.2427003396    -1.7949359148    -0.1510527598
   38      O      -4.2689332929    -1.4362516181     1.2856242406
   39      H      -5.6998553137     0.9004745562    -0.5906132802
   40      H      -4.1557878901    -0.3744961790    -1.9135433038
   41      H      -1.8781060771     3.3420761774     0.7679846163
   42      H      -5.5710853569     0.0440206500     2.1229273359
   43      H      -7.0233784624    -1.8986925787     1.3133399965
   44      H      -7.2938791790    -0.6724670650     0.0351504252
   45      H      -5.8923522214    -3.2768380549    -0.2697531482
   46      H      -5.9959518393    -2.0066762988    -1.5269744093
   47      H      -3.4879144904    -2.5826008499    -0.3426312855
   48      H      -3.3522690437     4.3421949593     0.5008709294
   49      H      -2.1806297641     4.0794541437    -0.8559033005
   50      H       1.2289235350     2.5285478058     0.5871587444
   51      H       1.0529865841     1.7933230013    -1.0585632580
   52      H       2.1123832842     3.2296219598    -0.8269642920
   53      H       0.0735035431    -0.1670459296     0.2583660111
   54      H       0.0306624119    -1.9548847374     0.3289939418
   55      H       0.2920543375    -0.6548703559    -2.4384229076
   56      H      -0.5670851870    -2.1686989471    -2.0002333297
 ----------------------------------------------------------------

    9   -1510.2694921826      3.11E-09 Convergence criterion met
 Total energy in the final basis set = -1510.26949218
 Final energy is   -1510.26949218261
 **  OPTIMIZATION CONVERGED  **

                    Orbital Energies (a.u.)
 --------------------------------------------------------------

 Alpha MOs
 -- Occupied --
-18.931 -18.929 -18.929 -18.928 -18.889 -18.887 -18.885 -18.875
-18.873 -18.871 -10.109 -10.098 -10.098 -10.096 -10.077 -10.066
-10.065 -10.062 -10.061 -10.059 -10.059 -10.056 -10.039 -10.037
-10.037 -10.035 -10.024 -10.021 -10.019 -10.018  -1.015  -1.013
 -1.005  -1.003  -0.972  -0.968  -0.943  -0.935  -0.933  -0.932
 -0.765  -0.762  -0.729  -0.723  -0.712  -0.705  -0.698  -0.660
 -0.658  -0.619  -0.597  -0.585  -0.548  -0.546  -0.539  -0.536
 -0.513  -0.511  -0.482  -0.474  -0.464  -0.458  -0.450  -0.448
 -0.434  -0.433  -0.426  -0.412  -0.410  -0.409  -0.407  -0.396
 -0.391  -0.380  -0.375  -0.367  -0.365  -0.361  -0.353  -0.352
 -0.348  -0.341  -0.336  -0.333  -0.329  -0.327  -0.325  -0.313
 -0.307  -0.306  -0.304  -0.297  -0.290  -0.289  -0.287  -0.275
 -0.274  -0.254  -0.252  -0.248  -0.244  -0.236  -0.232  -0.179
 -0.176  -0.173  -0.171  -0.156  -0.155  -0.150  -0.147  -0.145
 -0.141

          Ground-State Mulliken Net Atomic Charges

     Atom                 Charge (a.u.)
  ----------------------------------------
      1 O                    -0.211399
      2 C                     0.215398
      3 C                    -0.079868
      4 C                    -0.077038
      5 C                     0.221472
      6 O                    -0.180516
      7 C                    -0.050422
      8 C                    -0.060612
      9 O                    -0.180760
     10 C                     0.215307
     11 C                    -0.078075
     12 C                    -0.079756
     13 C                     0.210732
     14 O                    -0.215405
     15 O                    -0.174447
     16 O                    -0.167529
     17 O                    -0.206016
     18 C                    -0.128769
     19 C                     0.024774
     20 C                    -0.144604
     21 C                    -0.143349
     22 C                     0.026021
     23 O                    -0.185177
     24 H                     0.084153
     25 H                     0.083738
     26 H                     0.090153
     27 H                     0.078190
     28 H                     0.072642
     29 H                     0.077851
     30 H                     0.073295
     31 H                     0.082992
     32 O                    -0.203069
     33 C                    -0.128679
     34 C                     0.024268
     35 C                    -0.142529
     36 C                    -0.144385
     37 C                     0.024275
     38 O                    -0.188161
     39 H                     0.084295
     40 H                     0.088324
     41 H                     0.089788
     42 H                     0.092252
     43 H                     0.078868
     44 H                     0.073818
     45 H                     0.078562
     46 H                     0.074301
     47 H                     0.079419
     48 H                     0.090562
     49 H                     0.089001
     50 H                     0.093294
     51 H                     0.090152
     52 H                     0.085713
     53 H                     0.111821
     54 H                     0.085242
     55 H                     0.097024
     56 H                     0.082864
  ----------------------------------------
  Sum of atomic charges =     0.000000

                    Cartesian Multipole Moments
 -----------------------------------------------------------------
    Charge (ESU x 10^10)
                 0.0000
    Dipole Moment (Debye)
         X      -0.4107      Y      -1.4972      Z      -2.9113
       Tot       3.2994
    Quadrupole Moments (Debye-Ang)
        XX    -137.6191     XY      -1.6769     YY    -149.4689
        XZ       5.1002     YZ       0.5645     ZZ    -174.6310

 Total job time:  68.59s(wall), 3263.55s(cpu)
        *  Thank you very much for using Q-Chem.  Have a nice day.  *
