 Q-Chem 5.0, Q-Chem, Inc., Pleasanton, CA (2017)
 Q-Chem 5.0.1 for Intel X86 EM64T Linux

User input:
--------------------------------------------------------------
$molecule
0  1
O -3.94934 -3.66094 2.70899
C -3.26408 -4.56952 2.26188
C -3.36658 -6.02376 2.66595
C -3.7761 -7.0285 1.57662
C -3.86457 -6.49347 0.16453
O -4.30353 -7.4755 -0.6771
C -3.59559 -7.5092 -1.92086
C -2.53529 -6.41334 -1.952
O -2.33449 -5.96484 -3.3016
C -1.31822 -6.5643 -3.97017
C -1.30724 -6.23344 -5.44362
C -0.10574 -6.78817 -6.22269
C 0.69754 -7.86421 -5.52016
O 1.90622 -8.02167 -5.61433
O -2.31201 -4.26782 1.33653
O -0.01712 -8.91711 -5.0248
O -0.40606 -7.1011 -3.35568
C 0.53608 -10.05547 -4.47556
C -2.47891 -6.85425 -6.22741
C -2.72416 -6.04599 -7.50079
C -1.49942 -6.42011 -8.31286
C -0.86356 -7.46286 -7.38546
O -1.96442 -8.05687 -6.73933
H -1.36187 -5.12345 -5.51871
H 0.60037 -6.00672 -6.58074
H -3.41438 -6.93501 -5.63173
H -3.62343 -6.48088 -7.99334
H -2.88033 -4.95575 -7.35289
H -1.8391 -6.89171 -9.26163
H -0.79866 -5.58508 -8.53016
H -0.2102 -8.15316 -7.96412
O -4.36434 -5.38567 0.00521
C -2.0734 -3.00134 0.84634
C -2.00506 -6.60249 3.08828
C -2.20881 -7.82888 3.9773
C -2.68418 -8.84196 2.95639
C -2.59333 -8.01083 1.67321
O -1.49377 -7.1623 1.90274
H -4.07836 -6.06104 3.52174
H -4.75691 -7.50162 1.81068
H -1.77775 -2.32035 1.67275
H -1.35704 -5.8571 3.59982
H -1.20795 -8.14513 4.34903
H -2.88931 -7.66808 4.84101
H -1.94694 -9.67486 2.91941
H -3.70502 -9.24735 3.12654
H -2.51492 -8.68077 0.78899
H -2.98234 -2.60941 0.34192
H -1.24741 -3.04797 0.10739
H -0.27864 -10.73518 -4.15213
H 1.15421 -9.79085 -3.59123
H 1.16133 -10.58007 -5.22918
H -2.78566 -5.4172 -1.55604
H -1.61905 -6.69954 -1.38673
H -4.35152 -7.29766 -2.70749
H -3.14768 -8.5053 -2.12042
$end

$opt
CONSTRAINT
tors           1           2           3           4    +117.144
tors           3           4           5           6    -176.867
tors           4           5           6           7    -137.763
tors           5           6           7           8      -0.186
tors           6           7           8           9    -149.541
tors           7           8           9          10     -94.522
tors           8           9          10          11    +169.936
tors           9          10          11          12    +174.903
tors          11          12          13          14    -145.785
ENDCONSTRAINT
$end

$rem
JOBTYPE                   OPT
METHOD                    B3LYP
DFT_D                     d3_op
BASIS                     STO-3G
GEOM_OPT_MAX_CYCLES       100
GEOM_OPT_TOL_GRADIENT     300
GEOM_OPT_TOL_DISPLACEMENT 1200
GEOM_OPT_TOL_ENERGY       100
SYMMETRY                  False
THRESH                    12
SCF_CONVERGENCE           8
MAX_SUB_FILE_NUM          128
MEM_STATIC                400
MEM_TOTAL                 4000
$end
--------------------------------------------------------------

   16   -1510.0925695837      2.39E-09 Convergence criterion met
 Total energy in the final basis set = -1510.09256958
   14   -1510.1700133388      4.53E-09 Convergence criterion met
 Total energy in the final basis set = -1510.17001334
   14   -1510.2130984479      3.03E-09 Convergence criterion met
 Total energy in the final basis set = -1510.21309845
   14   -1510.2375188401      1.93E-09 Convergence criterion met
 Total energy in the final basis set = -1510.23751884
   13   -1510.2493030252      6.16E-09 Convergence criterion met
 Total energy in the final basis set = -1510.24930303
   13   -1510.2557955720      3.55E-09 Convergence criterion met
 Total energy in the final basis set = -1510.25579557
   13   -1510.2597125202      2.69E-09 Convergence criterion met
 Total energy in the final basis set = -1510.25971252
   13   -1510.2618725504      2.73E-09 Convergence criterion met
   10   -1510.2636846648      7.17E-09 Convergence criterion met
 Total energy in the final basis set = -1510.26368466
   11   -1510.2637040408      4.87E-09 Convergence criterion met
 Total energy in the final basis set = -1510.26370404
   11   -1510.2637121769      2.84E-09 Convergence criterion met
 Total energy in the final basis set = -1510.26371218
    9   -1510.2637169170      7.81E-09 Convergence criterion met
 Total energy in the final basis set = -1510.26371692
    9   -1510.2637223058      4.48E-09 Convergence criterion met
 Total energy in the final basis set = -1510.26372231
    9   -1510.2637238744      3.82E-09 Convergence criterion met
 Total energy in the final basis set = -1510.26372387

             Standard Nuclear Orientation (Angstroms)
    I     Atom           X                Y                Z
 ----------------------------------------------------------------
    1      O       5.3173328276    -2.6251364301     0.5711650248
    2      C       4.8145494932    -1.4826854808     0.6431909557
    3      C       5.1510327762    -0.2562816562    -0.2861463443
    4      C       3.9351448022     0.2679950071    -1.1503016980
    5      C       2.6731297943    -0.6581613441    -1.1013555468
    6      O       1.6740415929    -0.1200772693    -1.9742300920
    7      C       0.2756574834    -0.1322454806    -1.4540988130
    8      C       0.0124846686    -0.7283830703    -0.0159064903
    9      O      -1.3444678120    -1.3174067271     0.0244301254
   10      C      -2.2917802473    -0.3639896945     0.5376439963
   11      C      -3.7174385102    -0.9682269091     0.3031333207
   12      C      -4.9260042492    -0.1471165212     0.9034560329
   13      C      -4.6664545572     1.3787231036     1.1820593645
   14      O      -5.1551119238     2.0449848090     2.1215667234
   15      O       3.9680481879    -1.0413025857     1.7144547673
   16      O      -3.9890354911     1.9598711822     0.0629553052
   17      O      -1.9703981935     0.6951964984     1.1169171892
   18      C      -3.7974114606     3.4092357709     0.2890272324
   19      C      -4.1648302530    -1.1420636735    -1.2180353014
   20      C      -5.1634321358    -2.3627471618    -1.2619929824
   21      C      -6.4064203373    -1.7443386844    -0.5180203837
   22      C      -5.9408756679    -0.2442624175    -0.3229995826
   23      O      -5.0534981836     0.0102802937    -1.4817000001
   24      H      -3.6911485161    -1.9691959190     0.7734126832
   25      H      -5.3267034342    -0.6043552089     1.8244276782
   26      H      -3.3322152402    -1.1747768041    -1.9472359333
   27      H      -5.4072678432    -2.6180052192    -2.3058740789
   28      H      -4.7612480605    -3.2576760582    -0.7609174296
   29      H      -7.3157231912    -1.7891825276    -1.1377924394
   30      H      -6.6117064447    -2.2383534357     0.4452959039
   31      H      -6.7616623706     0.4988513392    -0.2949681480
   32      O       2.5649393622    -1.7253867454    -0.4506247529
   33      C       3.6182619304    -2.1916182219     2.5757089649
   34      C       5.4503861833     1.0408601703     0.5848986372
   35      C       6.0727402635     2.1554085479    -0.3492735980
   36      C       4.7936910599     2.6730076421    -1.1074028116
   37      C       3.6898832018     1.7089814412    -0.5196614329
   38      O       4.0949809347     1.5559764333     0.8935171198
   39      H       6.0059631807    -0.5418605023    -0.9231645679
   40      H       4.2221195323     0.3734955221    -2.2129862153
   41      H       4.5211435518    -2.6963162463     2.9762633628
   42      H       6.0091904944     0.8445282526     1.5202790056
   43      H       6.5364538512     2.9512875331     0.2545686651
   44      H       6.8315355263     1.7409028018    -1.0319964538
   45      H       4.5654593723     3.7187713801    -0.8459824131
   46      H       4.8816755284     2.5918708791    -2.2026410359
   47      H       2.6469934662     2.0730795732    -0.5973888028
   48      H       3.0135880339    -2.9382054483     2.0208113064
   49      H       3.0214455156    -1.7784879740     3.4095693414
   50      H      -3.3520178092     3.8062686484    -0.6415470945
   51      H      -3.1089781960     3.5975542093     1.1382889388
   52      H      -4.7588896133     3.9234704833     0.4924928988
   53      H       0.7420005360    -1.5460937807     0.1650827127
   54      H       0.1159652175     0.0574128373     0.7602895200
   55      H      -0.3371505049    -0.7150945214    -2.1782041990
   56      H      -0.0709366851     0.9235133416    -1.4934235987
 ----------------------------------------------------------------

    9   -1510.2637246745      2.23E-09 Convergence criterion met
 Total energy in the final basis set = -1510.26372467
 Final energy is   -1510.26372467446
 **  OPTIMIZATION CONVERGED  **

                    Orbital Energies (a.u.)
 --------------------------------------------------------------

 Alpha MOs
 -- Occupied --
-18.935 -18.934 -18.926 -18.920 -18.902 -18.891 -18.891 -18.885
-18.864 -18.859 -10.118 -10.105 -10.092 -10.090 -10.078 -10.065
-10.065 -10.064 -10.062 -10.061 -10.056 -10.053 -10.042 -10.040
-10.037 -10.035 -10.023 -10.023 -10.022 -10.022  -1.021  -1.016
 -1.002  -0.997  -0.973  -0.972  -0.950  -0.942  -0.926  -0.923
 -0.766  -0.764  -0.728  -0.724  -0.717  -0.708  -0.697  -0.654
 -0.652  -0.624  -0.599  -0.585  -0.548  -0.547  -0.540  -0.539
 -0.517  -0.512  -0.483  -0.478  -0.470  -0.461  -0.444  -0.439
 -0.435  -0.435  -0.428  -0.411  -0.410  -0.405  -0.403  -0.396
 -0.395  -0.389  -0.376  -0.368  -0.365  -0.358  -0.352  -0.347
 -0.341  -0.338  -0.334  -0.333  -0.332  -0.331  -0.328  -0.317
 -0.315  -0.309  -0.307  -0.302  -0.298  -0.288  -0.282  -0.276
 -0.273  -0.259  -0.251  -0.243  -0.242  -0.237  -0.236  -0.185
 -0.181  -0.171  -0.164  -0.160  -0.157  -0.146  -0.146  -0.142
 -0.140

          Ground-State Mulliken Net Atomic Charges

     Atom                 Charge (a.u.)
  ----------------------------------------
      1 O                    -0.219768
      2 C                     0.212692
      3 C                    -0.081566
      4 C                    -0.079102
      5 C                     0.222691
      6 O                    -0.180115
      7 C                    -0.052689
      8 C                    -0.068932
      9 O                    -0.174755
     10 C                     0.211978
     11 C                    -0.079563
     12 C                    -0.079137
     13 C                     0.212124
     14 O                    -0.218130
     15 O                    -0.170106
     16 O                    -0.164660
     17 O                    -0.207521
     18 C                    -0.126641
     19 C                     0.027345
     20 C                    -0.141754
     21 C                    -0.145151
     22 C                     0.025771
     23 O                    -0.185580
     24 H                     0.086340
     25 H                     0.085570
     26 H                     0.084214
     27 H                     0.078284
     28 H                     0.074889
     29 H                     0.078668
     30 H                     0.074569
     31 H                     0.083263
     32 O                    -0.195961
     33 C                    -0.128033
     34 C                     0.027073
     35 C                    -0.144907
     36 C                    -0.142433
     37 C                     0.025672
     38 O                    -0.184779
     39 H                     0.084528
     40 H                     0.087769
     41 H                     0.086730
     42 H                     0.085035
     43 H                     0.078504
     44 H                     0.074235
     45 H                     0.078607
     46 H                     0.074221
     47 H                     0.083411
     48 H                     0.089321
     49 H                     0.087443
     50 H                     0.087889
     51 H                     0.089834
     52 H                     0.087981
     53 H                     0.110796
     54 H                     0.097386
     55 H                     0.088331
     56 H                     0.088118
  ----------------------------------------
  Sum of atomic charges =    -0.000000

                    Cartesian Multipole Moments
 -----------------------------------------------------------------
    Charge (ESU x 10^10)
                 0.0000
    Dipole Moment (Debye)
         X      -0.0270      Y       0.2757      Z      -1.5629
       Tot       1.5872
    Quadrupole Moments (Debye-Ang)
        XX    -153.6417     XY      19.9726     YY    -160.7556
        XZ      -0.0285     YZ      -7.0015     ZZ    -162.5292

 Total job time:  60.80s(wall), 2889.09s(cpu)
        *  Thank you very much for using Q-Chem.  Have a nice day.  *
