 Q-Chem 5.0, Q-Chem, Inc., Pleasanton, CA (2017)
 Q-Chem 5.0.1 for Intel X86 EM64T Linux

User input:
--------------------------------------------------------------
$molecule
0  1
O 5.3173328276 -2.6251364301 0.5711650248
C 4.8145494932 -1.4826854808 0.6431909557
C 5.1510327762 -0.2562816562 -0.2861463443
C 3.9351448022 0.2679950071 -1.150301698
C 2.6731297943 -0.6581613441 -1.1013555468
O 1.6740415929 -0.1200772693 -1.974230092
C 0.2756574834 -0.1322454806 -1.454098813
C 0.0124846686 -0.7283830703 -0.0159064903
O -1.344467812 -1.3174067271 0.0244301254
C -2.2917802473 -0.3639896945 0.5376439963
C -3.7174385102 -0.9682269091 0.3031333207
C -4.9260042492 -0.1471165212 0.9034560329
C -4.6664545572 1.3787231036 1.1820593645
O -5.1551119238 2.044984809 2.1215667234
O 3.9680481879 -1.0413025857 1.7144547673
O -3.9890354911 1.9598711822 0.0629553052
O -1.9703981935 0.6951964984 1.1169171892
C -3.7974114606 3.4092357709 0.2890272324
C -4.164830253 -1.1420636735 -1.2180353014
C -5.1634321358 -2.3627471618 -1.2619929824
C -6.4064203373 -1.7443386844 -0.5180203837
C -5.9408756679 -0.2442624175 -0.3229995826
O -5.0534981836 0.0102802937 -1.4817000001
H -3.6911485161 -1.969195919 0.7734126832
H -5.3267034342 -0.6043552089 1.8244276782
H -3.3322152402 -1.1747768041 -1.9472359333
H -5.4072678432 -2.6180052192 -2.3058740789
H -4.7612480605 -3.2576760582 -0.7609174296
H -7.3157231912 -1.7891825276 -1.1377924394
H -6.6117064447 -2.2383534357 0.4452959039
H -6.7616623706 0.4988513392 -0.294968148
O 2.5649393622 -1.7253867454 -0.4506247529
C 3.6182619304 -2.1916182219 2.5757089649
C 5.4503861833 1.0408601703 0.5848986372
C 6.0727402635 2.1554085479 -0.349273598
C 4.7936910599 2.6730076421 -1.1074028116
C 3.6898832018 1.7089814412 -0.5196614329
O 4.0949809347 1.5559764333 0.8935171198
H 6.0059631807 -0.5418605023 -0.9231645679
H 4.2221195323 0.3734955221 -2.2129862153
H 4.5211435518 -2.6963162463 2.9762633628
H 6.0091904944 0.8445282526 1.5202790056
H 6.5364538512 2.9512875331 0.2545686651
H 6.8315355263 1.7409028018 -1.0319964538
H 4.5654593723 3.7187713801 -0.8459824131
H 4.8816755284 2.5918708791 -2.2026410359
H 2.6469934662 2.0730795732 -0.5973888028
H 3.0135880339 -2.9382054483 2.0208113064
H 3.0214455156 -1.778487974 3.4095693414
H -3.3520178092 3.8062686484 -0.6415470945
H -3.108978196 3.5975542093 1.1382889388
H -4.7588896133 3.9234704833 0.4924928988
H 0.742000536 -1.5460937807 0.1650827127
H 0.1159652175 0.0574128373 0.76028952
H -0.3371505049 -0.7150945214 -2.178204199
H -0.0709366851 0.9235133416 -1.4934235987
$end

$rem
JOBTYPE                   OPT
METHOD                    B3LYP
DFT_D                     d3_op
BASIS                     STO-3G
GEOM_OPT_MAX_CYCLES       100
GEOM_OPT_TOL_GRADIENT     300
GEOM_OPT_TOL_DISPLACEMENT 1200
GEOM_OPT_TOL_ENERGY       100
SYMMETRY                  False
THRESH                    12
SCF_CONVERGENCE           8
MAX_SUB_FILE_NUM          128
MEM_STATIC                400
MEM_TOTAL                 4000
$end
--------------------------------------------------------------

   16   -1510.2637172905      6.24E-09 Convergence criterion met
 Total energy in the final basis set = -1510.26371729
   13   -1510.2673559882      8.58E-09 Convergence criterion met
 Total energy in the final basis set = -1510.26735599
   13   -1510.2704301942      7.69E-09 Convergence criterion met
 Total energy in the final basis set = -1510.27043019
   13   -1510.2727506182      2.55E-09 Convergence criterion met
 Total energy in the final basis set = -1510.27275062
   13   -1510.2748278520      3.96E-09 Convergence criterion met
 Total energy in the final basis set = -1510.27482785
   13   -1510.2766114152      5.10E-09 Convergence criterion met
 Total energy in the final basis set = -1510.27661142
   13   -1510.2783240046      6.07E-09 Convergence criterion met
 Total energy in the final basis set = -1510.27832400
   13   -1510.2799705648      5.96E-09 Convergence criterion met
   12   -1510.2876167318      3.10E-09 Convergence criterion met
 Total energy in the final basis set = -1510.28761673
   13   -1510.2875852053      5.58E-09 Convergence criterion met
 Total energy in the final basis set = -1510.28758521
   11   -1510.2876173741      9.16E-09 Convergence criterion met
 Total energy in the final basis set = -1510.28761737
   10   -1510.2876230650      8.99E-09 Convergence criterion met
 Total energy in the final basis set = -1510.28762306
   12   -1510.2876157452      4.06E-09 Convergence criterion met
 Total energy in the final basis set = -1510.28761575
   10   -1510.2876215361      8.89E-09 Convergence criterion met
 Total energy in the final basis set = -1510.28762154

             Standard Nuclear Orientation (Angstroms)
    I     Atom           X                Y                Z
 ----------------------------------------------------------------
    1      O       4.6743810243    -2.6564339145    -0.9402643118
    2      C       4.4307427300    -1.5764879396    -0.3605230299
    3      C       4.9808089723    -0.1578699518    -0.7421735443
    4      C       3.8568147727     0.8814702652    -1.1640293705
    5      C       2.4204575414     0.2508563055    -1.1450714263
    6      O       1.4644870501     1.2376529657    -0.7430541295
    7      C       0.1170544277     0.6295901218    -0.6356576167
    8      C      -0.0453543358    -0.1031022916     0.7513207557
    9      O      -1.3058937421    -0.8838604916     0.7998583042
   10      C      -2.4280098925    -0.0143445460     0.9703911148
   11      C      -3.7427719465    -0.8678141578     0.9366695874
   12      C      -5.0369421214     0.0021941456     0.6458853792
   13      C      -4.7640076981     1.5423800595     0.4785823612
   14      O      -5.0754919151     2.4458652622     1.2841851678
   15      O       3.6320231733    -1.4601284170     0.8263387906
   16      O      -4.1957368180     1.7725848767    -0.8184503387
   17      O      -2.3374429764     1.2243062572     1.1261250971
   18      C      -3.8799783502     3.2085588326    -0.9770475752
   19      C      -3.7687221780    -1.8776781250    -0.2886173285
   20      C      -4.9146908538    -2.9357000959    -0.0411771809
   21      C      -6.1949669806    -2.0710505108    -0.3418622099
   22      C      -5.5441173739    -0.6763089139    -0.7001192457
   23      O      -4.2917175117    -1.0486320805    -1.3974408927
   24      H      -3.8285629014    -1.4056888193     1.8993396616
   25      H      -5.7729155833    -0.1124267472     1.4607913348
   26      H      -2.7760926050    -2.2961970054    -0.5441484674
   27      H      -4.8206242034    -3.7766079824    -0.7464929724
   28      H      -4.8996225018    -3.3329426099     0.9864304790
   29      H      -6.7549025532    -2.4668467553    -1.2039925187
   30      H      -6.8762478279    -2.0021719000     0.5210624218
   31      H      -6.1618325981    -0.0182451665    -1.3410761477
   32      O       2.1219409049    -0.9251684821    -1.4520628650
   33      C       3.0476268811    -2.7773090602     1.1639579035
   34      C       5.6169508725     0.5955891635     0.5055257720
   35      C       6.4886611239     1.7988616159    -0.0337565308
   36      C       5.3685934109     2.8244127884    -0.4467447785
   37      C       4.0640744724     2.0165722482    -0.0754710855
   38      O       4.4550025150     1.2613589389     1.1365361643
   39      H       5.7167823358    -0.2973078605    -1.5529050682
   40      H       4.0425894862     1.2667221414    -2.1842248421
   41      H       3.8301199317    -3.5486571073     1.3145078378
   42      H       6.1246797627    -0.0675954266     1.2321922953
   43      H       7.1296511961     2.2003795496     0.7670526466
   44      H       7.1260867146     1.5003948457    -0.8812814700
   45      H       5.4296650856     3.7500069889     0.1473801031
   46      H       5.4040525769     3.0873389559    -1.5159454128
   47      H       3.1584941354     2.6232070374     0.1169792292
   48      H       2.3577395678    -3.1266383038     0.3680217263
   49      H       2.4858643278    -2.6316937029     2.1051093663
   50      H      -3.5025103095     3.3272590350    -2.0094377425
   51      H      -3.0994298380     3.5289860263    -0.2564786970
   52      H      -4.7762731549     3.8458460334    -0.8324476918
   53      H       0.7696737117    -0.8436240096     0.8765621036
   54      H      -0.0034384301     0.6405573529     1.5750072930
   55      H      -0.0549158657    -0.0991767213    -1.4560779127
   56      H      -0.6093143837     1.4627452387    -0.7095128694
 ----------------------------------------------------------------

    9   -1510.2876217802      6.91E-09 Convergence criterion met
 Total energy in the final basis set = -1510.28762178
 Final energy is   -1510.28762178017
 **  OPTIMIZATION CONVERGED  **

                    Orbital Energies (a.u.)
 --------------------------------------------------------------

 Alpha MOs
 -- Occupied --
-18.945 -18.943 -18.926 -18.921 -18.888 -18.887 -18.887 -18.882
-18.868 -18.860 -10.109 -10.107 -10.094 -10.090 -10.076 -10.075
-10.061 -10.060 -10.059 -10.059 -10.059 -10.054 -10.042 -10.041
-10.036 -10.033 -10.021 -10.021 -10.020 -10.019  -1.024  -1.019
 -1.003  -0.998  -0.971  -0.970  -0.947  -0.943  -0.929  -0.924
 -0.765  -0.763  -0.729  -0.723  -0.715  -0.707  -0.695  -0.657
 -0.653  -0.623  -0.597  -0.584  -0.546  -0.545  -0.538  -0.537
 -0.514  -0.512  -0.489  -0.478  -0.469  -0.464  -0.450  -0.438
 -0.433  -0.433  -0.430  -0.411  -0.408  -0.407  -0.404  -0.399
 -0.394  -0.389  -0.370  -0.367  -0.364  -0.359  -0.348  -0.345
 -0.341  -0.339  -0.335  -0.332  -0.331  -0.327  -0.321  -0.318
 -0.311  -0.306  -0.305  -0.303  -0.298  -0.287  -0.282  -0.276
 -0.275  -0.269  -0.253  -0.247  -0.243  -0.235  -0.234  -0.197
 -0.175  -0.170  -0.165  -0.163  -0.161  -0.146  -0.144  -0.144
 -0.140

          Ground-State Mulliken Net Atomic Charges

     Atom                 Charge (a.u.)
  ----------------------------------------
      1 O                    -0.212802
      2 C                     0.211473
      3 C                    -0.080406
      4 C                    -0.077990
      5 C                     0.214142
      6 O                    -0.169343
      7 C                    -0.052991
      8 C                    -0.050925
      9 O                    -0.169839
     10 C                     0.214735
     11 C                    -0.078026
     12 C                    -0.081489
     13 C                     0.212856
     14 O                    -0.217604
     15 O                    -0.172722
     16 O                    -0.172170
     17 O                    -0.209779
     18 C                    -0.128537
     19 C                     0.023884
     20 C                    -0.143946
     21 C                    -0.144259
     22 C                     0.026568
     23 O                    -0.188005
     24 H                     0.086593
     25 H                     0.083400
     26 H                     0.089659
     27 H                     0.078395
     28 H                     0.073274
     29 H                     0.077828
     30 H                     0.073678
     31 H                     0.085135
     32 O                    -0.213759
     33 C                    -0.130031
     34 C                     0.026186
     35 C                    -0.144079
     36 C                    -0.144056
     37 C                     0.023432
     38 O                    -0.187543
     39 H                     0.084598
     40 H                     0.086184
     41 H                     0.088610
     42 H                     0.083781
     43 H                     0.078028
     44 H                     0.073938
     45 H                     0.078292
     46 H                     0.073244
     47 H                     0.092203
     48 H                     0.091213
     49 H                     0.087288
     50 H                     0.086773
     51 H                     0.090265
     52 H                     0.087067
     53 H                     0.096987
     54 H                     0.094967
     55 H                     0.097463
     56 H                     0.098161
  ----------------------------------------
  Sum of atomic charges =    -0.000000

                    Cartesian Multipole Moments
 -----------------------------------------------------------------
    Charge (ESU x 10^10)
                -0.0000
    Dipole Moment (Debye)
         X       0.3562      Y      -0.0662      Z      -0.0559
       Tot       0.3666
    Quadrupole Moments (Debye-Ang)
        XX    -148.7596     XY      17.8353     YY    -160.2903
        XZ       0.5466     YZ     -13.9831     ZZ    -163.0431

 Total job time:  79.85s(wall), 3796.99s(cpu)
        *  Thank you very much for using Q-Chem.  Have a nice day.  *
