 Q-Chem 5.0, Q-Chem, Inc., Pleasanton, CA (2017)
 Q-Chem 5.0.1 for Intel X86 EM64T Linux

User input:
--------------------------------------------------------------
$molecule
0  1
O -3.94934 -3.66094 2.70899
C -3.26408 -4.56952 2.26188
C -3.36658 -6.02376 2.66595
C -2.06171 -6.83597 2.70443
C -0.77828 -6.06003 2.50736
O -0.55698 -5.24828 3.58323
C -1.76079 -4.70669 4.1371
C -2.18789 -5.51509 5.35783
O -3.47112 -5.064 5.81906
C -3.45252 -4.29989 6.9393
C -4.80661 -3.72619 7.28273
C -5.98649 -4.35459 6.5269
C -5.69944 -5.66878 5.82889
O -6.19142 -6.03122 4.77004
O -2.43152 -4.26358 1.21916
O -5.20906 -6.6437 6.6575
O -2.43822 -3.95957 7.53579
C -5.26995 -8.01167 6.47273
C -5.24354 -3.97683 8.74219
C -6.26488 -2.91698 9.15427
C -7.46288 -3.34299 8.32747
C -6.92421 -4.64267 7.71698
O -6.03754 -5.13445 8.69285
H -4.72957 -2.62666 7.12554
H -6.44389 -3.66828 5.78054
H -4.39508 -3.99548 9.46037
H -6.49491 -3.09331 10.22976
H -5.94726 -1.86068 9.01935
H -8.31063 -3.54769 9.01826
H -7.77588 -2.62528 7.53843
H -7.75966 -5.32058 7.43339
O 0.13538 -6.39947 1.76659
C -2.25633 -2.99708 0.70203
C -4.33685 -7.2076 2.9358
C -4.29628 -8.40313 1.92632
C -3.04924 -9.15632 2.39132
C -2.50452 -8.15152 3.40477
O -3.71847 -7.79321 4.04952
H -3.7111 -6.08537 1.60861
H -1.97571 -7.20988 1.65412
H -1.86306 -2.31584 1.48651
H -5.38127 -6.89496 2.9765
H -5.16856 -9.08019 2.06327
H -4.26874 -8.06211 0.86895
H -3.35849 -10.05538 2.97178
H -2.35546 -9.46799 1.58102
H -1.72467 -8.57664 4.07175
H -3.22017 -2.60594 0.31204
H -1.5255 -3.04276 -0.1311
H -5.82079 -8.4628 7.32327
H -4.2418 -8.42751 6.46704
H -5.79382 -8.29514 5.53568
H -2.20593 -6.59139 5.25197
H -1.39416 -5.46731 6.14642
H -1.93455 -3.62584 3.93476
H -1.31722 -3.92486 4.79344
$end

$opt
CONSTRAINT
tors           1           2           3           4    -145.052
tors           3           4           5           6     +68.525
tors           4           5           6           7     -35.555
tors           5           6           7           8     +98.967
tors           6           7           8           9    -173.543
tors           7           8           9          10    -104.474
tors           8           9          10          11    +173.357
tors           9          10          11          12     +13.559
tors          11          12          13          14    -145.461
ENDCONSTRAINT
$end

$rem
JOBTYPE                   OPT
METHOD                    B3LYP
DFT_D                     d3_op
BASIS                     STO-3G
GEOM_OPT_MAX_CYCLES       100
GEOM_OPT_TOL_GRADIENT     300
GEOM_OPT_TOL_DISPLACEMENT 1200
GEOM_OPT_TOL_ENERGY       100
SYMMETRY                  False
THRESH                    12
SCF_CONVERGENCE           8
MAX_SUB_FILE_NUM          128
MEM_STATIC                400
MEM_TOTAL                 4000
$end
--------------------------------------------------------------

   15   -1509.8233903056      9.90E-09 Convergence criterion met
 Total energy in the final basis set = -1509.82339031
   15   -1509.9134470276      2.99E-09 Convergence criterion met
 Total energy in the final basis set = -1509.91344703
   14   -1509.9806676282      7.36E-09 Convergence criterion met
 Total energy in the final basis set = -1509.98066763
   14   -1510.0284114046      5.42E-09 Convergence criterion met
 Total energy in the final basis set = -1510.02841140
   14   -1510.0654296667      5.58E-09 Convergence criterion met
 Total energy in the final basis set = -1510.06542967
   14   -1510.0957163333      2.27E-09 Convergence criterion met
 Total energy in the final basis set = -1510.09571633
   14   -1510.1213377158      4.78E-09 Convergence criterion met
 Total energy in the final basis set = -1510.12133772
   13   -1510.1433915480      9.52E-09 Convergence criterion met
   12   -1510.2662687315      4.97E-09 Convergence criterion met
 Total energy in the final basis set = -1510.26626873
   11   -1510.2663282452      9.78E-09 Convergence criterion met
 Total energy in the final basis set = -1510.26632825
   11   -1510.2663849982      7.25E-09 Convergence criterion met
 Total energy in the final basis set = -1510.26638500
   11   -1510.2664131724      6.69E-09 Convergence criterion met
 Total energy in the final basis set = -1510.26641317
   11   -1510.2664239775      2.19E-09 Convergence criterion met
 Total energy in the final basis set = -1510.26642398
    9   -1510.2664268506      7.96E-09 Convergence criterion met
 Total energy in the final basis set = -1510.26642685

             Standard Nuclear Orientation (Angstroms)
    I     Atom           X                Y                Z
 ----------------------------------------------------------------
    1      O       1.2850383499    -0.9368375231     2.3506675189
    2      C       2.3226040473    -0.7926213566     1.6678421940
    3      C       2.9105191716     0.5356268140     1.0852921236
    4      C       3.6358064262     0.4713491112    -0.3288629071
    5      C       3.7239621710    -0.8722461970    -1.2043817596
    6      O       2.6342175708    -1.5505206979    -1.8637639791
    7      C       1.3144718864    -1.5549950715    -1.1964807588
    8      C       0.3334009183    -0.4717892243    -1.7579820186
    9      O      -0.8712686612    -0.4871683804    -0.9024881467
   10      C      -2.0154153638    -1.1103370794    -1.4638286072
   11      C      -3.1070734442    -1.1656721209    -0.3335279527
   12      C      -2.8228097422    -0.2677985630     0.9426752577
   13      C      -1.8142919922     0.9292397997     0.7466829960
   14      O      -1.0085864474     1.3454273808     1.6151035881
   15      O       3.2315905380    -1.8543316173     1.3395341880
   16      O      -2.1581797116     1.6663303536    -0.4308185025
   17      O      -2.0949601104    -1.5468557679    -2.6321926891
   18      C      -1.2606462973     2.8372606722    -0.5788649184
   19      C      -4.5687289677    -0.6947930751    -0.7465544338
   20      C      -5.5831242474    -1.4729135190     0.1782563419
   21      C      -5.2889577195    -0.7924465942     1.5673957578
   22      C      -4.2767130252     0.3505366496     1.1493857691
   23      O      -4.6714590816     0.6912825775    -0.2375101343
   24      H      -3.1498850174    -2.2269568136    -0.0212311023
   25      H      -2.4809364589    -0.8636999934     1.8063880525
   26      H      -4.7772737702    -0.7331797137    -1.8334773804
   27      H      -6.6182471150    -1.2839453971    -0.1488562594
   28      H      -5.4054211659    -2.5600334206     0.1842781644
   29      H      -6.2001404977    -0.3606680266     2.0107341151
   30      H      -4.8402983387    -1.4892986920     2.2934925712
   31      H      -4.3007228644     1.2530013813     1.7905314233
   32      O       4.8651045361    -1.2974797530    -1.5035194966
   33      C       2.7438554549    -3.1394989807     1.8912247398
   34      C       1.8535189257     1.7031572138     0.8641252792
   35      C       2.6349258796     3.0652683710     1.0003270041
   36      C       3.5112267951     3.0468448294    -0.3133239620
   37      C       2.9820450283     1.7394503931    -1.0322675257
   38      O       1.5716596306     1.6935731830    -0.5946311779
   39      H       3.6560215293     0.8709300937     1.8309370854
   40      H       4.7098053021     0.6758320812    -0.1691539159
   41      H       1.7507968899    -3.4096821454     1.4775422984
   42      H       0.8838098211     1.6027984846     1.4122250332
   43      H       1.9285797088     3.9108768998     0.9979385333
   44      H       3.2424788241     3.1139587250     1.9178161290
   45      H       3.3189141925     3.9320589064    -0.9403110489
   46      H       4.5909915391     2.9925115320    -0.1018816147
   47      H       3.0460436449     1.7460568718    -2.1379707048
   48      H       2.6684145849    -3.1054960435     2.9971631015
   49      H       3.4878272324    -3.9002269005     1.5915662661
   50      H      -1.6265789780     3.3818342356    -1.4681125120
   51      H      -0.2012565959     2.5271804519    -0.7328940493
   52      H      -1.3150378358     3.5004849646     0.3082863577
   53      H       0.7926840422     0.5259139255    -1.5711684722
   54      H       0.0723067324    -0.6559267024    -2.8198557454
   55      H       1.3897556712    -1.4186406311    -0.1050883437
   56      H       0.9007253110    -2.5686447483    -1.3850598851
 ----------------------------------------------------------------

    9   -1510.2664286740      6.21E-09 Convergence criterion met
 Total energy in the final basis set = -1510.26642867
 Final energy is   -1510.26642867395
 **  OPTIMIZATION CONVERGED  **

                    Orbital Energies (a.u.)
 --------------------------------------------------------------

 Alpha MOs
 -- Occupied --
-18.946 -18.932 -18.928 -18.920 -18.919 -18.891 -18.885 -18.873
-18.871 -18.858 -10.113 -10.101 -10.100 -10.093 -10.078 -10.073
-10.067 -10.063 -10.057 -10.057 -10.049 -10.047 -10.045 -10.043
-10.034 -10.032 -10.032 -10.028 -10.019 -10.017  -1.023  -1.012
 -1.002  -0.996  -0.993  -0.967  -0.949  -0.937  -0.931  -0.921
 -0.775  -0.760  -0.730  -0.723  -0.715  -0.705  -0.695  -0.671
 -0.648  -0.612  -0.604  -0.585  -0.557  -0.552  -0.539  -0.534
 -0.524  -0.507  -0.491  -0.480  -0.477  -0.462  -0.454  -0.443
 -0.433  -0.430  -0.424  -0.419  -0.416  -0.414  -0.404  -0.400
 -0.389  -0.384  -0.381  -0.369  -0.365  -0.359  -0.356  -0.353
 -0.345  -0.338  -0.337  -0.331  -0.328  -0.326  -0.319  -0.316
 -0.315  -0.310  -0.307  -0.302  -0.294  -0.289  -0.286  -0.283
 -0.279  -0.262  -0.250  -0.242  -0.234  -0.232  -0.229  -0.190
 -0.183  -0.173  -0.168  -0.163  -0.154  -0.148  -0.146  -0.140
 -0.139

          Ground-State Mulliken Net Atomic Charges

     Atom                 Charge (a.u.)
  ----------------------------------------
      1 O                    -0.202138
      2 C                     0.204254
      3 C                    -0.083443
      4 C                    -0.083108
      5 C                     0.207470
      6 O                    -0.171768
      7 C                    -0.054528
      8 C                    -0.074819
      9 O                    -0.176186
     10 C                     0.214819
     11 C                    -0.079003
     12 C                    -0.076558
     13 C                     0.225469
     14 O                    -0.232834
     15 O                    -0.168667
     16 O                    -0.166378
     17 O                    -0.216496
     18 C                    -0.140423
     19 C                     0.025713
     20 C                    -0.142158
     21 C                    -0.145201
     22 C                     0.024827
     23 O                    -0.185523
     24 H                     0.081842
     25 H                     0.085812
     26 H                     0.088289
     27 H                     0.077716
     28 H                     0.072993
     29 H                     0.077487
     30 H                     0.073301
     31 H                     0.081843
     32 O                    -0.198500
     33 C                    -0.128952
     34 C                     0.014577
     35 C                    -0.142107
     36 C                    -0.143577
     37 C                     0.024736
     38 O                    -0.193050
     39 H                     0.089740
     40 H                     0.091465
     41 H                     0.088817
     42 H                     0.121289
     43 H                     0.080848
     44 H                     0.076342
     45 H                     0.080681
     46 H                     0.077322
     47 H                     0.088402
     48 H                     0.090974
     49 H                     0.096502
     50 H                     0.084310
     51 H                     0.099854
     52 H                     0.079625
     53 H                     0.118493
     54 H                     0.090675
     55 H                     0.084584
     56 H                     0.084348
  ----------------------------------------
  Sum of atomic charges =     0.000000

                    Cartesian Multipole Moments
 -----------------------------------------------------------------
    Charge (ESU x 10^10)
                 0.0000
    Dipole Moment (Debye)
         X       0.3626      Y       0.7204      Z       2.6629
       Tot       2.7824
    Quadrupole Moments (Debye-Ang)
        XX    -163.3694     XY      14.1557     YY    -150.7672
        XZ       2.5271     YZ      -8.6798     ZZ    -166.9839

 Total job time:  112.15s(wall), 5347.72s(cpu)
        *  Thank you very much for using Q-Chem.  Have a nice day.  *
