 Q-Chem 5.0, Q-Chem, Inc., Pleasanton, CA (2017)
 Q-Chem 5.0.1 for Intel X86 EM64T Linux

User input:
--------------------------------------------------------------
$molecule
0  1
O 1.2850383499 -0.9368375231 2.3506675189
C 2.3226040473 -0.7926213566 1.667842194
C 2.9105191716 0.535626814 1.0852921236
C 3.6358064262 0.4713491112 -0.3288629071
C 3.723962171 -0.872246197 -1.2043817596
O 2.6342175708 -1.5505206979 -1.8637639791
C 1.3144718864 -1.5549950715 -1.1964807588
C 0.3334009183 -0.4717892243 -1.7579820186
O -0.8712686612 -0.4871683804 -0.9024881467
C -2.0154153638 -1.1103370794 -1.4638286072
C -3.1070734442 -1.1656721209 -0.3335279527
C -2.8228097422 -0.267798563 0.9426752577
C -1.8142919922 0.9292397997 0.746682996
O -1.0085864474 1.3454273808 1.6151035881
O 3.231590538 -1.8543316173 1.339534188
O -2.1581797116 1.6663303536 -0.4308185025
O -2.0949601104 -1.5468557679 -2.6321926891
C -1.2606462973 2.8372606722 -0.5788649184
C -4.5687289677 -0.6947930751 -0.7465544338
C -5.5831242474 -1.472913519 0.1782563419
C -5.2889577195 -0.7924465942 1.5673957578
C -4.2767130252 0.3505366496 1.1493857691
O -4.6714590816 0.6912825775 -0.2375101343
H -3.1498850174 -2.2269568136 -0.0212311023
H -2.4809364589 -0.8636999934 1.8063880525
H -4.7772737702 -0.7331797137 -1.8334773804
H -6.618247115 -1.2839453971 -0.1488562594
H -5.4054211659 -2.5600334206 0.1842781644
H -6.2001404977 -0.3606680266 2.0107341151
H -4.8402983387 -1.489298692 2.2934925712
H -4.3007228644 1.2530013813 1.7905314233
O 4.8651045361 -1.297479753 -1.5035194966
C 2.7438554549 -3.1394989807 1.8912247398
C 1.8535189257 1.7031572138 0.8641252792
C 2.6349258796 3.065268371 1.0003270041
C 3.5112267951 3.0468448294 -0.313323962
C 2.9820450283 1.7394503931 -1.0322675257
O 1.5716596306 1.693573183 -0.5946311779
H 3.6560215293 0.8709300937 1.8309370854
H 4.7098053021 0.6758320812 -0.1691539159
H 1.7507968899 -3.4096821454 1.4775422984
H 0.8838098211 1.6027984846 1.4122250332
H 1.9285797088 3.9108768998 0.9979385333
H 3.2424788241 3.113958725 1.917816129
H 3.3189141925 3.9320589064 -0.9403110489
H 4.5909915391 2.992511532 -0.1018816147
H 3.0460436449 1.7460568718 -2.1379707048
H 2.6684145849 -3.1054960435 2.9971631015
H 3.4878272324 -3.9002269005 1.5915662661
H -1.626578978 3.3818342356 -1.468112512
H -0.2012565959 2.5271804519 -0.7328940493
H -1.3150378358 3.5004849646 0.3082863577
H 0.7926840422 0.5259139255 -1.5711684722
H 0.0723067324 -0.6559267024 -2.8198557454
H 1.3897556712 -1.4186406311 -0.1050883437
H 0.900725311 -2.5686447483 -1.3850598851
$end

$rem
JOBTYPE                   OPT
METHOD                    B3LYP
DFT_D                     d3_op
BASIS                     STO-3G
GEOM_OPT_MAX_CYCLES       100
GEOM_OPT_TOL_GRADIENT     300
GEOM_OPT_TOL_DISPLACEMENT 1200
GEOM_OPT_TOL_ENERGY       100
SYMMETRY                  False
THRESH                    12
SCF_CONVERGENCE           8
MAX_SUB_FILE_NUM          128
MEM_STATIC                400
MEM_TOTAL                 4000
$end
--------------------------------------------------------------

   16   -1510.2664730165      5.35E-09 Convergence criterion met
 Total energy in the final basis set = -1510.26647302
   15   -1510.2617096971      2.72E-09 Convergence criterion met
 Total energy in the final basis set = -1510.26170970
   13   -1510.2686526265      9.70E-09 Convergence criterion met
 Total energy in the final basis set = -1510.26865263
   15   -1510.2612793463      8.44E-09 Convergence criterion met
 Total energy in the final basis set = -1510.26127935
   14   -1510.2630501872      7.18E-09 Convergence criterion met
 Total energy in the final basis set = -1510.26305019
   15   -1510.2627540813      5.86E-09 Convergence criterion met
 Total energy in the final basis set = -1510.26275408
   14   -1510.2672595217      6.73E-09 Convergence criterion met
 Total energy in the final basis set = -1510.26725952
   14   -1510.2701639912      3.37E-09 Convergence criterion met
   11   -1510.2852753802      7.23E-09 Convergence criterion met
 Total energy in the final basis set = -1510.28527538
   12   -1510.2853120953      4.03E-09 Convergence criterion met
 Total energy in the final basis set = -1510.28531210
   11   -1510.2853266835      6.68E-09 Convergence criterion met
 Total energy in the final basis set = -1510.28532668
   10   -1510.2853319175      5.63E-09 Convergence criterion met
 Total energy in the final basis set = -1510.28533192
    9   -1510.2853333465      4.58E-09 Convergence criterion met
 Total energy in the final basis set = -1510.28533335
    9   -1510.2853271475      6.82E-09 Convergence criterion met
 Total energy in the final basis set = -1510.28532715

             Standard Nuclear Orientation (Angstroms)
    I     Atom           X                Y                Z
 ----------------------------------------------------------------
    1      O       0.4008882857    -0.2997980287     2.0626470563
    2      C       1.5220817084    -0.5318778551     1.5600789344
    3      C       2.6220927782     0.5617639755     1.2739337843
    4      C       3.7035109759     0.3257599731     0.1213137248
    5      C       3.6004943644    -1.0569033968    -0.6370229390
    6      O       2.9264350765    -0.8870200850    -1.9063678279
    7      C       1.6914250676    -1.6983022548    -1.9896582104
    8      C       0.4974001899    -0.6867993307    -1.7532589665
    9      O      -0.4251532712    -1.1078138253    -0.6708500690
   10      C      -1.7850627502    -1.0877122397    -1.1295054031
   11      C      -2.7158807984    -1.1611889231     0.1306976487
   12      C      -2.6342186044     0.1200561519     1.0690139425
   13      C      -1.6893768887     1.2694429274     0.5791429839
   14      O      -0.9809898081     2.0072634654     1.3052540177
   15      O       1.9770868855    -1.8410127669     1.2288610300
   16      O      -1.8091095944     1.4179030865    -0.8324736280
   17      O      -2.1287031285    -1.0615076917    -2.3302350315
   18      C      -0.9715699004     2.5410210871    -1.3251316696
   19      C      -4.2450445752    -1.1449001671    -0.2832701760
   20      C      -5.1005064724    -1.6523319559     0.9416081312
   21      C      -5.0118199070    -0.4110126789     1.9051510022
   22      C      -4.1560130952     0.5929476894     1.0351662096
   23      O      -4.5695864432     0.2997638309    -0.3537782850
   24      H      -2.4566483180    -2.0688715624     0.7058224866
   25      H      -2.3094133492    -0.1487278120     2.0894989557
   26      H      -4.4515295742    -1.6325437932    -1.2557979615
   27      H      -6.1391243575    -1.8474742470     0.6304524705
   28      H      -4.6875201396    -2.5704083470     1.3894302894
   29      H      -6.0072304007     0.0122366380     2.1137309575
   30      H      -4.5211374832    -0.6486159587     2.8624868954
   31      H      -4.3077196886     1.6645816268     1.2692976518
   32      O       4.1311213635    -2.1300653673    -0.2829157833
   33      C       0.8709719156    -2.8121568021     1.4149641173
   34      C       1.9020967881     1.8778947723     0.7626206734
   35      C       2.8639472702     3.1061968045     0.9695580850
   36      C       3.9205071739     2.8752052798    -0.1738129917
   37      C       3.3770428734     1.5518205650    -0.8364762690
   38      O       1.9030912475     1.6966302144    -0.7130558922
   39      H       3.1415658743     0.7495348115     2.2324406591
   40      H       4.7186465046     0.4048874195     0.5508320926
   41      H       0.0362928587    -2.5413945050     0.7328540421
   42      H       0.8514562152     1.9995856127     1.1234280757
   43      H       2.3168572701     4.0520180180     0.8286024028
   44      H       3.3171127876     3.1073354153     1.9735432981
   45      H       3.9154233802     3.7005421629    -0.9037117443
   46      H       4.9456117405     2.7515571380     0.2102917299
   47      H       3.6601619090     1.3920614371    -1.8940461942
   48      H       0.5091849331    -2.8246923499     2.4626583309
   49      H       1.2878094051    -3.8006239858     1.1492587063
   50      H      -1.2431758807     2.6663294199    -2.3889327759
   51      H       0.1159624778     2.3159629213    -1.2380799408
   52      H      -1.1949128652     3.4742228566    -0.7705087166
   53      H       0.9695566201     0.2774538604    -1.4225274699
   54      H      -0.0935003381    -0.5419312993    -2.6808533096
   55      H       1.6809369791    -2.5246771447    -1.2483825446
   56      H       1.6426121060    -2.1343189724    -3.0094680995
 ----------------------------------------------------------------

    9   -1510.2853268147      5.82E-09 Convergence criterion met
 Total energy in the final basis set = -1510.28532681
 Final energy is   -1510.28532681473
 **  OPTIMIZATION CONVERGED  **

                    Orbital Energies (a.u.)
 --------------------------------------------------------------

 Alpha MOs
 -- Occupied --
-18.938 -18.936 -18.922 -18.907 -18.900 -18.889 -18.886 -18.876
-18.872 -18.871 -10.103 -10.101 -10.099 -10.098 -10.066 -10.065
-10.059 -10.057 -10.056 -10.051 -10.051 -10.040 -10.039 -10.038
-10.036 -10.035 -10.024 -10.021 -10.019 -10.018  -1.015  -1.012
 -1.003  -0.999  -0.981  -0.968  -0.937  -0.935  -0.933  -0.928
 -0.765  -0.761  -0.724  -0.723  -0.709  -0.705  -0.688  -0.660
 -0.656  -0.612  -0.598  -0.577  -0.548  -0.541  -0.540  -0.535
 -0.512  -0.508  -0.482  -0.477  -0.471  -0.461  -0.447  -0.439
 -0.435  -0.431  -0.419  -0.414  -0.409  -0.408  -0.406  -0.399
 -0.389  -0.375  -0.373  -0.370  -0.360  -0.356  -0.352  -0.347
 -0.346  -0.338  -0.336  -0.334  -0.329  -0.324  -0.321  -0.315
 -0.309  -0.306  -0.302  -0.296  -0.292  -0.289  -0.285  -0.275
 -0.274  -0.257  -0.251  -0.243  -0.235  -0.232  -0.228  -0.178
 -0.176  -0.172  -0.161  -0.156  -0.152  -0.151  -0.149  -0.144
 -0.142

          Ground-State Mulliken Net Atomic Charges

     Atom                 Charge (a.u.)
  ----------------------------------------
      1 O                    -0.214239
      2 C                     0.209505
      3 C                    -0.080515
      4 C                    -0.081937
      5 C                     0.222687
      6 O                    -0.199040
      7 C                    -0.050334
      8 C                    -0.078765
      9 O                    -0.187927
     10 C                     0.219104
     11 C                    -0.078236
     12 C                    -0.077013
     13 C                     0.220470
     14 O                    -0.216329
     15 O                    -0.170614
     16 O                    -0.164817
     17 O                    -0.211196
     18 C                    -0.140096
     19 C                     0.024778
     20 C                    -0.143969
     21 C                    -0.143764
     22 C                     0.025327
     23 O                    -0.186660
     24 H                     0.082247
     25 H                     0.093933
     26 H                     0.089671
     27 H                     0.077926
     28 H                     0.072681
     29 H                     0.077785
     30 H                     0.074476
     31 H                     0.082216
     32 O                    -0.186825
     33 C                    -0.135907
     34 C                     0.010438
     35 C                    -0.144255
     36 C                    -0.144314
     37 C                     0.027730
     38 O                    -0.195232
     39 H                     0.086345
     40 H                     0.083907
     41 H                     0.101158
     42 H                     0.115680
     43 H                     0.079111
     44 H                     0.075288
     45 H                     0.078315
     46 H                     0.075249
     47 H                     0.093616
     48 H                     0.086165
     49 H                     0.088317
     50 H                     0.090196
     51 H                     0.106681
     52 H                     0.084998
     53 H                     0.108729
     54 H                     0.092062
     55 H                     0.090281
     56 H                     0.084913
  ----------------------------------------
  Sum of atomic charges =    -0.000000

                    Cartesian Multipole Moments
 -----------------------------------------------------------------
    Charge (ESU x 10^10)
                -0.0000
    Dipole Moment (Debye)
         X       0.4089      Y       0.4312      Z       1.6295
       Tot       1.7345
    Quadrupole Moments (Debye-Ang)
        XX    -159.5569     XY      13.4230     YY    -153.3972
        XZ      -5.8206     YZ      -3.1348     ZZ    -162.6182

 Total job time:  172.86s(wall), 8249.07s(cpu)
        *  Thank you very much for using Q-Chem.  Have a nice day.  *
