 Q-Chem 5.0, Q-Chem, Inc., Pleasanton, CA (2017)
 Q-Chem 5.0.1 for Intel X86 EM64T Linux

User input:
--------------------------------------------------------------
$molecule
0  1
O -3.94934 -3.66094 2.70899
C -3.26408 -4.56952 2.26188
C -3.36658 -6.02376 2.66595
C -2.05485 -6.81962 2.76498
C -0.77355 -6.02841 2.62234
O 0.24825 -6.8607 2.26367
C 1.15688 -7.13149 3.3362
C 1.01865 -6.07022 4.42281
O 2.15711 -6.11405 5.29737
C 2.10118 -7.04586 6.28111
C 1.51782 -8.35871 5.81549
C 0.0193 -8.53812 6.09929
C -0.73905 -7.27855 6.46686
O -1.72556 -7.22992 7.18727
O -2.65268 -4.35157 1.06432
O -0.05589 -6.14363 6.81849
O 2.8088 -6.90503 7.27638
C -0.54752 -4.91941 7.26315
C 1.78934 -9.7139 5.03406
C 1.82764 -10.96753 5.9357
C 0.34594 -11.08309 6.31445
C -0.27682 -9.9375 5.47792
O 0.5632 -9.98642 4.3591
H 1.9713 -8.80362 6.72357
H -0.02334 -8.83555 7.1755
H 2.67935 -9.63825 4.37332
H 2.09144 -11.8317 5.28464
H 2.54067 -10.93873 6.78776
H -0.02624 -12.06471 5.94515
H 0.12752 -11.00947 7.40135
H -1.35596 -10.11591 5.30339
O -0.66381 -4.81363 2.53964
C -2.57865 -3.12657 0.43363
C -3.94754 -6.25339 4.06793
C -4.65677 -7.6026 4.10856
C -3.47708 -8.53839 3.95912
C -2.31484 -7.5322 4.04655
O -2.81359 -6.49475 4.85623
H -4.05057 -6.47573 1.91035
H -2.03139 -7.5409 1.91478
H -2.04228 -2.39774 1.07821
H -4.62867 -5.44953 4.42162
H -5.07533 -7.70945 5.13541
H -5.4697 -7.7483 3.36511
H -3.48336 -9.24044 4.8206
H -3.44408 -9.10624 3.00398
H -1.39564 -8.03871 4.26426
H -3.5984 -2.74893 0.20638
H -2.02021 -3.24097 -0.51792
H -0.17701 -4.11578 6.59409
H -0.17241 -4.72644 8.28904
H -1.65761 -4.87395 7.26359
H 1.24715 -5.12821 3.88053
H 0.03822 -5.80544 4.7757
H 2.19125 -7.07605 2.93289
H 0.95898 -8.1158 3.51729
$end

$opt
CONSTRAINT
tors           1           2           3           4    -142.409
tors           3           4           5           6    -158.883
tors           4           5           6           7    -105.730
tors           5           6           7           8     -19.310
tors           6           7           8           9    -163.836
tors           7           8           9          10     -82.957
tors           8           9          10          11     +40.220
tors           9          10          11          12     -96.211
tors          11          12          13          14    -150.611
ENDCONSTRAINT
$end

$rem
JOBTYPE                   OPT
METHOD                    B3LYP
DFT_D                     d3_op
BASIS                     STO-3G
GEOM_OPT_MAX_CYCLES       100
GEOM_OPT_TOL_GRADIENT     300
GEOM_OPT_TOL_DISPLACEMENT 1200
GEOM_OPT_TOL_ENERGY       100
SYMMETRY                  False
THRESH                    12
SCF_CONVERGENCE           8
MAX_SUB_FILE_NUM          128
MEM_STATIC                400
MEM_TOTAL                 4000
$end
--------------------------------------------------------------

   16   -1509.9086111541      2.84E-09 Convergence criterion met
 Total energy in the final basis set = -1509.90861115
   14   -1510.0023187761      6.90E-09 Convergence criterion met
 Total energy in the final basis set = -1510.00231878
   15   -1510.0697143132      1.94E-09 Convergence criterion met
 Total energy in the final basis set = -1510.06971431
   14   -1510.1124296123      8.11E-09 Convergence criterion met
 Total energy in the final basis set = -1510.11242961
   14   -1510.1420800518      6.09E-09 Convergence criterion met
 Total energy in the final basis set = -1510.14208005
   14   -1510.1640344967      5.27E-09 Convergence criterion met
 Total energy in the final basis set = -1510.16403450
   14   -1510.1805224411      4.04E-09 Convergence criterion met
 Total energy in the final basis set = -1510.18052244
   14   -1510.1938605478      5.91E-09 Convergence criterion met
   12   -1510.2433406375      3.31E-09 Convergence criterion met
 Total energy in the final basis set = -1510.24334064
   11   -1510.2433833945      7.15E-09 Convergence criterion met
 Total energy in the final basis set = -1510.24338339
   11   -1510.2434018008      5.37E-09 Convergence criterion met
 Total energy in the final basis set = -1510.24340180
   10   -1510.2434103536      8.92E-09 Convergence criterion met
 Total energy in the final basis set = -1510.24341035
    9   -1510.2434159405      9.00E-09 Convergence criterion met
 Total energy in the final basis set = -1510.24341594
    9   -1510.2434179456      4.91E-09 Convergence criterion met
 Total energy in the final basis set = -1510.24341795

             Standard Nuclear Orientation (Angstroms)
    I     Atom           X                Y                Z
 ----------------------------------------------------------------
    1      O      -5.2817285370     0.5640850372     0.6032278211
    2      C      -4.4998995810     0.1987846738    -0.3003580579
    3      C      -3.4854983631    -0.9999700907    -0.2387742660
    4      C      -2.0983287506    -0.7488803698    -0.9534975120
    5      C      -1.8001403800     0.7838507510    -1.1954134709
    6      O      -0.8259236004     0.9807601875    -2.2395579932
    7      C       0.5223102056     1.3826224913    -1.7409623816
    8      C       0.5668258515     1.9785202137    -0.2838793779
    9      O       1.7961271916     2.7153175924     0.0928941372
   10      C       2.9900341249     2.0674171182     0.5588965109
   11      C       3.6785968651     0.7126155615     0.0518011253
   12      C       3.3760925718    -0.6496469902     0.8179228205
   13      C       2.3669162153    -0.6738876308     2.0146090453
   14      O       2.4341174887    -1.4735658016     2.9762929186
   15      O      -4.5555690111     0.6681563685    -1.6537988426
   16      O       1.3795822113     0.3429277161     1.8926324694
   17      O       3.6605641654     2.7628715876     1.3626735565
   18      C       0.4204529182     0.3063582355     3.0296353388
   19      C       3.5035893553     0.2441697144    -1.4510823842
   20      C       4.7187116947    -0.6914512384    -1.8343751559
   21      C       4.3201991990    -2.0359788184    -1.1158246558
   22      C       2.9828762195    -1.6073391630    -0.3967679213
   23      O       2.3685819336    -0.7077539540    -1.3975828423
   24      H       4.7444041517     0.9496618048     0.2209728507
   25      H       4.3196681016    -1.0233959598     1.2542005419
   26      H       3.2949504551     1.0561337596    -2.1728347810
   27      H       4.7725933544    -0.8194817241    -2.9271496238
   28      H       5.6799619265    -0.2876323719    -1.4787363787
   29      H       4.1207764987    -2.8371354083    -1.8454131041
   30      H       5.0843127012    -2.3857272170    -0.4033976250
   31      H       2.2904581018    -2.4325381305    -0.1391095134
   32      O      -2.3194197480     1.7154770495    -0.5404583454
   33      C      -5.5174662294     1.7873398847    -1.7615100384
   34      C      -3.0326153469    -1.3692107616     1.2329670831
   35      C      -2.5923730822    -2.8815561145     1.2369275146
   36      C      -1.2615716927    -2.8041344462     0.3979763569
   37      C      -1.1097255767    -1.2456193533     0.1869365792
   38      O      -1.7426309840    -0.6553937033     1.3911764574
   39      H      -3.9931531573    -1.8641828488    -0.7075417507
   40      H      -1.9821539846    -1.3105447895    -1.8967296381
   41      H      -5.1791497744     2.6659330561    -1.1749234876
   42      H      -3.7491302982    -1.0621222330     2.0199306780
   43      H      -2.3977564271    -3.2235104849     2.2662229003
   44      H      -3.3486307168    -3.5400645584     0.7812829921
   45      H      -0.4021156837    -3.2017546117     0.9610270159
   46      H      -1.3337910035    -3.3400962901    -0.5619947310
   47      H      -0.0655908777    -0.8937078507     0.0854661164
   48      H      -6.5277544168     1.4943337394    -1.4095273622
   49      H      -5.5584281242     2.0535651145    -2.8336849208
   50      H      -0.5549098405    -0.0683096923     2.6336257077
   51      H       0.3177504433     1.3394529967     3.4105227006
   52      H       0.8129953999    -0.3649648485     3.8175242242
   53      H      -0.2416115625     2.7296934134    -0.1653951487
   54      H       0.4211840394     1.1650371026     0.4568691335
   55      H       0.9186625102     2.1217244599    -2.4685679595
   56      H       1.1498026268     0.4609086262    -1.7436187510
 ----------------------------------------------------------------

    9   -1510.2434186896      3.84E-09 Convergence criterion met
 Total energy in the final basis set = -1510.24341869
 Final energy is   -1510.24341868957
 **  OPTIMIZATION CONVERGED  **

                    Orbital Energies (a.u.)
 --------------------------------------------------------------

 Alpha MOs
 -- Occupied --
-18.945 -18.928 -18.918 -18.918 -18.906 -18.898 -18.895 -18.881
-18.871 -18.864 -10.110 -10.106 -10.098 -10.097 -10.081 -10.077
-10.072 -10.069 -10.059 -10.053 -10.050 -10.046 -10.045 -10.043
-10.041 -10.040 -10.035 -10.034 -10.031 -10.029  -1.020  -1.010
 -1.000  -0.997  -0.993  -0.985  -0.943  -0.933  -0.930  -0.922
 -0.776  -0.770  -0.732  -0.730  -0.721  -0.714  -0.695  -0.660
 -0.657  -0.612  -0.606  -0.588  -0.560  -0.556  -0.552  -0.546
 -0.523  -0.511  -0.493  -0.477  -0.471  -0.465  -0.454  -0.448
 -0.439  -0.435  -0.426  -0.421  -0.415  -0.413  -0.409  -0.405
 -0.392  -0.382  -0.373  -0.371  -0.365  -0.358  -0.356  -0.353
 -0.350  -0.349  -0.343  -0.340  -0.339  -0.332  -0.327  -0.319
 -0.318  -0.316  -0.312  -0.305  -0.298  -0.291  -0.289  -0.282
 -0.279  -0.258  -0.255  -0.251  -0.247  -0.238  -0.216  -0.181
 -0.176  -0.172  -0.167  -0.163  -0.161  -0.155  -0.148  -0.143
 -0.138

          Ground-State Mulliken Net Atomic Charges

     Atom                 Charge (a.u.)
  ----------------------------------------
      1 O                    -0.214704
      2 C                     0.215689
      3 C                    -0.080095
      4 C                    -0.077825
      5 C                     0.225404
      6 O                    -0.196862
      7 C                    -0.077186
      8 C                    -0.067316
      9 O                    -0.174954
     10 C                     0.206985
     11 C                    -0.083147
     12 C                    -0.083268
     13 C                     0.208163
     14 O                    -0.213398
     15 O                    -0.173524
     16 O                    -0.175020
     17 O                    -0.203507
     18 C                    -0.153181
     19 C                     0.022449
     20 C                    -0.142978
     21 C                    -0.141359
     22 C                     0.026877
     23 O                    -0.192237
     24 H                     0.091132
     25 H                     0.090423
     26 H                     0.089114
     27 H                     0.081618
     28 H                     0.078565
     29 H                     0.081047
     30 H                     0.078803
     31 H                     0.086028
     32 O                    -0.187973
     33 C                    -0.127998
     34 C                     0.026359
     35 C                    -0.142512
     36 C                    -0.144997
     37 C                     0.022174
     38 O                    -0.192852
     39 H                     0.084793
     40 H                     0.089366
     41 H                     0.092329
     42 H                     0.095153
     43 H                     0.080144
     44 H                     0.076707
     45 H                     0.078026
     46 H                     0.076972
     47 H                     0.086130
     48 H                     0.088454
     49 H                     0.089888
     50 H                     0.115609
     51 H                     0.087898
     52 H                     0.095760
     53 H                     0.096715
     54 H                     0.098983
     55 H                     0.077049
     56 H                     0.106089
  ----------------------------------------
  Sum of atomic charges =     0.000000

                    Cartesian Multipole Moments
 -----------------------------------------------------------------
    Charge (ESU x 10^10)
                 0.0000
    Dipole Moment (Debye)
         X       0.7440      Y      -4.3378      Z      -2.4548
       Tot       5.0394
    Quadrupole Moments (Debye-Ang)
        XX    -153.5183     XY      -3.6008     YY    -164.6487
        XZ      -5.1430     YZ      -2.6489     ZZ    -165.7725

 Total job time:  85.33s(wall), 4064.32s(cpu)
        *  Thank you very much for using Q-Chem.  Have a nice day.  *
