 Q-Chem 5.0, Q-Chem, Inc., Pleasanton, CA (2017)
 Q-Chem 5.0.1 for Intel X86 EM64T Linux

User input:
--------------------------------------------------------------
$molecule
0  1
O -5.281728537 0.5640850372 0.6032278211
C -4.499899581 0.1987846738 -0.3003580579
C -3.4854983631 -0.9999700907 -0.238774266
C -2.0983287506 -0.7488803698 -0.953497512
C -1.80014038 0.783850751 -1.1954134709
O -0.8259236004 0.9807601875 -2.2395579932
C 0.5223102056 1.3826224913 -1.7409623816
C 0.5668258515 1.9785202137 -0.2838793779
O 1.7961271916 2.7153175924 0.0928941372
C 2.9900341249 2.0674171182 0.5588965109
C 3.6785968651 0.7126155615 0.0518011253
C 3.3760925718 -0.6496469902 0.8179228205
C 2.3669162153 -0.6738876308 2.0146090453
O 2.4341174887 -1.4735658016 2.9762929186
O -4.5555690111 0.6681563685 -1.6537988426
O 1.3795822113 0.3429277161 1.8926324694
O 3.6605641654 2.7628715876 1.3626735565
C 0.4204529182 0.3063582355 3.0296353388
C 3.5035893553 0.2441697144 -1.4510823842
C 4.7187116947 -0.6914512384 -1.8343751559
C 4.320199199 -2.0359788184 -1.1158246558
C 2.9828762195 -1.607339163 -0.3967679213
O 2.3685819336 -0.707753954 -1.3975828423
H 4.7444041517 0.9496618048 0.2209728507
H 4.3196681016 -1.0233959598 1.2542005419
H 3.2949504551 1.0561337596 -2.172834781
H 4.7725933544 -0.8194817241 -2.9271496238
H 5.6799619265 -0.2876323719 -1.4787363787
H 4.1207764987 -2.8371354083 -1.8454131041
H 5.0843127012 -2.385727217 -0.403397625
H 2.2904581018 -2.4325381305 -0.1391095134
O -2.319419748 1.7154770495 -0.5404583454
C -5.5174662294 1.7873398847 -1.7615100384
C -3.0326153469 -1.3692107616 1.2329670831
C -2.5923730822 -2.8815561145 1.2369275146
C -1.2615716927 -2.8041344462 0.3979763569
C -1.1097255767 -1.2456193533 0.1869365792
O -1.742630984 -0.6553937033 1.3911764574
H -3.9931531573 -1.8641828488 -0.7075417507
H -1.9821539846 -1.3105447895 -1.8967296381
H -5.1791497744 2.6659330561 -1.1749234876
H -3.7491302982 -1.062122233 2.019930678
H -2.3977564271 -3.2235104849 2.2662229003
H -3.3486307168 -3.5400645584 0.7812829921
H -0.4021156837 -3.2017546117 0.9610270159
H -1.3337910035 -3.3400962901 -0.561994731
H -0.0655908777 -0.8937078507 0.0854661164
H -6.5277544168 1.4943337394 -1.4095273622
H -5.5584281242 2.0535651145 -2.8336849208
H -0.5549098405 -0.0683096923 2.6336257077
H 0.3177504433 1.3394529967 3.4105227006
H 0.8129953999 -0.3649648485 3.8175242242
H -0.2416115625 2.7296934134 -0.1653951487
H 0.4211840394 1.1650371026 0.4568691335
H 0.9186625102 2.1217244599 -2.4685679595
H 1.1498026268 0.4609086262 -1.743618751
$end

$rem
JOBTYPE                   OPT
METHOD                    B3LYP
DFT_D                     d3_op
BASIS                     STO-3G
GEOM_OPT_MAX_CYCLES       100
GEOM_OPT_TOL_GRADIENT     300
GEOM_OPT_TOL_DISPLACEMENT 1200
GEOM_OPT_TOL_ENERGY       100
SYMMETRY                  False
THRESH                    12
SCF_CONVERGENCE           8
MAX_SUB_FILE_NUM          128
MEM_STATIC                400
MEM_TOTAL                 4000
$end
--------------------------------------------------------------

   16   -1510.2432919678      7.08E-09 Convergence criterion met
 Total energy in the final basis set = -1510.24329197
   14   -1510.2426661137      5.06E-09 Convergence criterion met
 Total energy in the final basis set = -1510.24266611
   14   -1510.2436258479      5.13E-09 Convergence criterion met
 Total energy in the final basis set = -1510.24362585
   14   -1510.2387252051      5.40E-09 Convergence criterion met
 Total energy in the final basis set = -1510.23872521
   14   -1510.2262844660      3.31E-09 Convergence criterion met
 Total energy in the final basis set = -1510.22628447
   14   -1510.2168544134      9.99E-09 Convergence criterion met
 Total energy in the final basis set = -1510.21685441
   13   -1510.2368561276      7.69E-09 Convergence criterion met
 Total energy in the final basis set = -1510.23685613
   14   -1510.2442086537      7.98E-09 Convergence criterion met
   10   -1510.2918717271      7.70E-09 Convergence criterion met
 Total energy in the final basis set = -1510.29187173
   10   -1510.2918744663      8.41E-09 Convergence criterion met
 Total energy in the final basis set = -1510.29187447
   10   -1510.2918733382      9.38E-09 Convergence criterion met
 Total energy in the final basis set = -1510.29187334
    9   -1510.2918737047      4.81E-09 Convergence criterion met
 Total energy in the final basis set = -1510.29187370
    9   -1510.2918739692      5.96E-09 Convergence criterion met
 Total energy in the final basis set = -1510.29187397
    9   -1510.2918732235      9.78E-09 Convergence criterion met
 Total energy in the final basis set = -1510.29187322

             Standard Nuclear Orientation (Angstroms)
    I     Atom           X                Y                Z
 ----------------------------------------------------------------
    1      O      -3.0059203752    -0.7789294905     1.6764817585
    2      C      -3.3932646778    -0.3744036266     0.5553438015
    3      C      -2.9800857072    -0.9303521439    -0.8595660912
    4      C      -2.0451798582     0.0331048283    -1.6983440029
    5      C      -1.5755536974     1.2658791820    -0.8533882513
    6      O      -0.6896719193     2.0643958724    -1.6318152920
    7      C       0.0706346333     2.9995243256    -0.7505353260
    8      C       0.9603523609     2.1536284675     0.2311199545
    9      O       2.1682187528     2.9242986478     0.6046346957
   10      C       3.3056475172     2.1267315788     0.9742925198
   11      C       3.6059342791     0.6943319054     0.3196818118
   12      C       2.8225471753    -0.5668813026     0.8833403051
   13      C       1.7629590580    -0.2087630904     1.9845813876
   14      O       1.8073374297     0.7836968092     2.7486246951
   15      O      -4.4701957327     0.5504025346     0.3673979738
   16      O       0.7368959434    -1.1913131287     1.9679717923
   17      O       4.1727305831     2.6779812676     1.6898229635
   18      C      -0.3378186016    -0.8676913770     2.9401404914
   19      C       3.3173309094     0.5477425115    -1.2346686163
   20      C       4.1563653367    -0.6655409354    -1.7934792010
   21      C       3.3349671720    -1.8971123290    -1.2481690386
   22      C       2.1935235651    -1.1755935918    -0.4385343691
   23      O       1.9275329871     0.0214554276    -1.2799702052
   24      H       4.6865646074     0.5627208280     0.5058218568
   25      H       3.5328046680    -1.2879238077     1.3289166092
   26      H       3.3910965814     1.4873554586    -1.8161534298
   27      H       4.1720140482    -0.6472555681    -2.8949662951
   28      H       5.1948033382    -0.6511943426    -1.4260261658
   29      H       2.9068419372    -2.4893385262    -2.0725817392
   30      H       3.9392296267    -2.5616426997    -0.6105204418
   31      H       1.2371655420    -1.7269541500    -0.2916258340
   32      O      -1.8726201606     1.4893536114     0.3445810009
   33      C      -4.8638696387     1.1308161852     1.6707760397
   34      C      -2.0608453629    -2.2170193041    -0.7355216871
   35      C      -2.0902747113    -2.9850899549    -2.1130027983
   36      C      -1.2179432880    -2.0291508758    -3.0107280638
   37      C      -0.8015806226    -0.9178593323    -1.9707427082
   38      O      -0.6892671138    -1.6588101669    -0.6917136625
   39      H      -3.9087574614    -1.1479526896    -1.4171603009
   40      H      -2.5195019520     0.3768239105    -2.6349468484
   41      H      -4.0413649984     1.7401025091     2.0984878652
   42      H      -2.2559653056    -2.8297886865     0.1661487293
   43      H      -1.6217906420    -3.9767759917    -2.0084931656
   44      H      -3.1142237196    -3.1165285979    -2.4977272586
   45      H      -0.3258035947    -2.5435138580    -3.4017770259
   46      H      -1.7831195380    -1.6107861755    -3.8587903209
   47      H       0.1517313948    -0.3840795727    -2.1729731362
   48      H      -5.1397289082     0.3438121597     2.4018129999
   49      H      -5.7383535759     1.7761418108     1.4684188873
   50      H      -1.3159332202    -0.8753052265     2.3996931594
   51      H      -0.1430961982     0.1247702430     3.3919169882
   52      H      -0.3416378491    -1.6397110572     3.7346060530
   53      H       0.3738737004     1.9275991136     1.1445258047
   54      H       1.2240774674     1.2059977856    -0.3120041231
   55      H      -0.6200691925     3.6773647066    -0.2057470863
   56      H       0.7023992530     3.5963777320    -1.4385780343
 ----------------------------------------------------------------

    9   -1510.2918725720      3.00E-09 Convergence criterion met
 Total energy in the final basis set = -1510.29187257
 Final energy is   -1510.29187257201
 **  OPTIMIZATION CONVERGED  **

                    Orbital Energies (a.u.)
 --------------------------------------------------------------

 Alpha MOs
 -- Occupied --
-18.941 -18.929 -18.929 -18.917 -18.911 -18.895 -18.888 -18.870
-18.869 -18.858 -10.109 -10.102 -10.096 -10.087 -10.072 -10.068
-10.064 -10.060 -10.059 -10.058 -10.044 -10.039 -10.039 -10.036
-10.035 -10.032 -10.030 -10.027 -10.025 -10.024  -1.021  -1.006
 -1.006  -0.993  -0.985  -0.976  -0.945  -0.932  -0.930  -0.919
 -0.768  -0.767  -0.728  -0.725  -0.713  -0.711  -0.692  -0.660
 -0.647  -0.610  -0.595  -0.580  -0.555  -0.549  -0.544  -0.540
 -0.513  -0.511  -0.480  -0.471  -0.468  -0.462  -0.456  -0.446
 -0.440  -0.435  -0.427  -0.413  -0.409  -0.408  -0.404  -0.399
 -0.392  -0.377  -0.372  -0.367  -0.363  -0.356  -0.352  -0.348
 -0.345  -0.342  -0.339  -0.333  -0.330  -0.323  -0.319  -0.317
 -0.316  -0.309  -0.306  -0.302  -0.295  -0.284  -0.278  -0.275
 -0.274  -0.258  -0.255  -0.250  -0.239  -0.233  -0.229  -0.187
 -0.175  -0.168  -0.164  -0.162  -0.154  -0.152  -0.149  -0.144
 -0.133

          Ground-State Mulliken Net Atomic Charges

     Atom                 Charge (a.u.)
  ----------------------------------------
      1 O                    -0.225207
      2 C                     0.224728
      3 C                    -0.081584
      4 C                    -0.077722
      5 C                     0.216623
      6 O                    -0.168635
      7 C                    -0.049437
      8 C                    -0.083633
      9 O                    -0.178074
     10 C                     0.211164
     11 C                    -0.086239
     12 C                    -0.082515
     13 C                     0.209508
     14 O                    -0.214346
     15 O                    -0.172512
     16 O                    -0.168521
     17 O                    -0.204048
     18 C                    -0.150599
     19 C                     0.022705
     20 C                    -0.142976
     21 C                    -0.143503
     22 C                     0.014098
     23 O                    -0.190981
     24 H                     0.087597
     25 H                     0.087076
     26 H                     0.087333
     27 H                     0.079233
     28 H                     0.078181
     29 H                     0.078311
     30 H                     0.077080
     31 H                     0.120001
     32 O                    -0.208116
     33 C                    -0.128185
     34 C                     0.025590
     35 C                    -0.143861
     36 C                    -0.144875
     37 C                     0.015796
     38 O                    -0.194246
     39 H                     0.085538
     40 H                     0.088368
     41 H                     0.093375
     42 H                     0.089431
     43 H                     0.077761
     44 H                     0.074367
     45 H                     0.076891
     46 H                     0.074633
     47 H                     0.104008
     48 H                     0.088743
     49 H                     0.088358
     50 H                     0.116014
     51 H                     0.093007
     52 H                     0.077260
     53 H                     0.085361
     54 H                     0.110225
     55 H                     0.089809
     56 H                     0.091642
  ----------------------------------------
  Sum of atomic charges =    -0.000000

                    Cartesian Multipole Moments
 -----------------------------------------------------------------
    Charge (ESU x 10^10)
                 0.0000
    Dipole Moment (Debye)
         X      -1.7916      Y      -3.3125      Z      -3.9795
       Tot       5.4790
    Quadrupole Moments (Debye-Ang)
        XX    -153.9090     XY     -11.6849     YY    -163.8280
        XZ      -9.0800     YZ      -4.2071     ZZ    -161.1738

 Total job time:  228.22s(wall), 10887.25s(cpu)
        *  Thank you very much for using Q-Chem.  Have a nice day.  *
