 Q-Chem 5.0, Q-Chem, Inc., Pleasanton, CA (2017)
 Q-Chem 5.0.1 for Intel X86 EM64T Linux

User input:
--------------------------------------------------------------
$molecule
0  1
O -4.7862474677 -1.8712063757 2.1664271887
C -4.1810367587 -1.2591684054 1.2599783944
C -4.1742323393 0.2919607457 1.0293779995
C -3.3720887482 0.8167434768 -0.2218698687
C -3.2937800399 -0.2077342996 -1.4311114337
O -2.0788239676 -0.0869073192 -2.2241152987
C -0.900481118 -0.5293979533 -1.4460931786
C 0.3211711413 0.3798965228 -1.8394927968
O 1.5694703753 -0.4139960556 -1.7421799199
C 2.4680901997 0.1625816883 -0.7802780487
C 3.6450377232 -0.8511053604 -0.6022194581
C 5.0936036568 -0.2168206418 -0.4692583098
C 5.1142359325 1.3383780665 -0.2449296609
O 5.5811589813 2.1931575658 -1.030602927
O -3.2009383797 -1.8745958672 0.4129578567
O 4.6272529959 1.634411684 1.065107089
O 2.2703131165 1.2611637659 -0.2168225406
C 4.5991057865 3.0994569338 1.2729692764
C 3.5608470331 -1.7226244642 0.732279204
C 4.3692438505 -3.0521739826 0.4651638786
C 5.8447768229 -2.5036326195 0.4684140013
C 5.6112007575 -0.9802351843 0.8257207242
O 4.4137972776 -1.0003200571 1.6976404572
H 3.6044951458 -1.5189906662 -1.4810630681
H 5.7056233477 -0.4350324045 -1.3619926284
H 2.539495123 -1.8583688983 1.1379690609
H 4.2040498263 -3.7709156525 1.2837229787
H 4.0900891025 -3.5281168787 -0.4881841101
H 6.4576730983 -2.9924059016 1.242128495
H 6.3441774185 -2.6256086066 -0.50608868
H 6.4555529117 -0.4849123534 1.342842416
O -4.2704077486 -0.8265667224 -1.8988876076
C -3.1570160375 -3.3352885232 0.6438890709
C -5.5917058435 0.9905244553 0.8276894765
C -5.4631672685 2.4485829603 1.4152636941
C -4.4897550218 3.0986656115 0.3611986864
C -4.3824201578 1.948051894 -0.7192657411
O -5.6821522365 1.2412033516 -0.628791476
H -3.712544103 0.7067091718 1.9462499171
H -2.3771915793 1.2108558305 0.0418653013
H -4.1167539749 -3.8179487546 0.3687078788
H -6.4582597042 0.3999067932 1.183064667
H -6.4455372119 2.947691185 1.415133059
H -5.0577603987 2.459215335 2.4396824348
H -4.9196072267 4.0092246528 -0.0851865028
H -3.5065086708 3.3483939611 0.7914996062
H -4.2014127291 2.294275576 -1.7555327174
H -2.9319862702 -3.5726992486 1.7038392169
H -2.3505114736 -3.7219303803 -0.0059739023
H 4.2987662173 3.2512226524 2.3258291487
H 3.8589336497 3.5833953794 0.6035648334
H 5.5931164549 3.5586175145 1.0956852233
H 0.1981665976 0.7062518156 -2.8942506839
H 0.4081091079 1.2728060441 -1.1842315447
H -0.6592418864 -1.5825301997 -1.7203811369
H -1.0739327044 -0.5025767534 -0.3501698082
$end

$rem
JOBTYPE                   OPT
METHOD                    B3LYP
DFT_D                     d3_op
BASIS                     STO-3G
GEOM_OPT_MAX_CYCLES       100
GEOM_OPT_TOL_GRADIENT     300
GEOM_OPT_TOL_DISPLACEMENT 1200
GEOM_OPT_TOL_ENERGY       100
SYMMETRY                  False
THRESH                    12
SCF_CONVERGENCE           8
MAX_SUB_FILE_NUM          128
MEM_STATIC                400
MEM_TOTAL                 4000
$end
--------------------------------------------------------------

   16   -1510.2550856060      4.48E-09 Convergence criterion met
 Total energy in the final basis set = -1510.25508561
   13   -1510.2580356634      5.90E-09 Convergence criterion met
 Total energy in the final basis set = -1510.25803566
   12   -1510.2602680571      8.41E-09 Convergence criterion met
 Total energy in the final basis set = -1510.26026806
   14   -1510.2624467904      5.02E-09 Convergence criterion met
 Total energy in the final basis set = -1510.26244679
   14   -1510.2643586808      4.48E-09 Convergence criterion met
 Total energy in the final basis set = -1510.26435868
   13   -1510.2662084056      9.87E-09 Convergence criterion met
 Total energy in the final basis set = -1510.26620841
   13   -1510.2677325410      5.77E-09 Convergence criterion met
 Total energy in the final basis set = -1510.26773254
   13   -1510.2689187878      8.15E-09 Convergence criterion met
   12   -1510.2833907299      4.27E-09 Convergence criterion met
 Total energy in the final basis set = -1510.28339073
   12   -1510.2834188571      5.08E-09 Convergence criterion met
 Total energy in the final basis set = -1510.28341886
   12   -1510.2834469494      2.58E-09 Convergence criterion met
 Total energy in the final basis set = -1510.28344695
   11   -1510.2834541099      5.77E-09 Convergence criterion met
 Total energy in the final basis set = -1510.28345411
   10   -1510.2834595910      6.45E-09 Convergence criterion met
 Total energy in the final basis set = -1510.28345959
   10   -1510.2834646850      6.32E-09 Convergence criterion met
 Total energy in the final basis set = -1510.28346468

             Standard Nuclear Orientation (Angstroms)
    I     Atom           X                Y                Z
 ----------------------------------------------------------------
    1      O      -5.2531768037    -0.2139754756     1.6387818259
    2      C      -4.0498227980    -0.4947227451     1.4621834493
    3      C      -2.8757733892     0.4842448871     1.0996666271
    4      C      -2.2131347702     0.2027303147    -0.3130232265
    5      C      -2.8952502169    -0.9953682701    -1.0685966074
    6      O      -2.1312642419    -1.8537713827    -1.9457684444
    7      C      -0.6628366762    -1.7822689447    -1.8155565585
    8      C      -0.0337793302    -0.6011648982    -2.6578715246
    9      O       1.4271322980    -0.4844783004    -2.4101288141
   10      C       1.6810050803     0.1491999244    -1.1594178381
   11      C       3.2256869049     0.2357996707    -0.9361351333
   12      C       3.6223021177     0.6929555699     0.5288718885
   13      C       2.4000220560     0.9868678246     1.4767668999
   14      O       1.9774029308     2.1121841987     1.8202102816
   15      O      -3.4799975457    -1.7987054160     1.6566607129
   16      O       1.8961511563    -0.2560963948     1.9843180859
   17      O       0.7865387911     0.5651009987    -0.3829813235
   18      C       0.7234264352    -0.0002708064     2.8476893819
   19      C       3.9125285412    -1.1967446412    -1.0114509051
   20      C       5.4675173986    -0.9881749958    -1.1817477226
   21      C       5.8705210739    -0.5296678167     0.2686518711
   22      C       4.4713241296    -0.5648441596     1.0022192674
   23      O       3.7756176856    -1.7100729236     0.3688437235
   24      H       3.6447817797     0.9160325935    -1.7005029518
   25      H       4.2357879417     1.6103057819     0.4941105462
   26      H       3.4388687413    -1.8843125941    -1.7387660244
   27      H       5.9535768673    -1.9380928737    -1.4552255492
   28      H       5.7042150104    -0.2352617937    -1.9505497007
   29      H       6.5681623906    -1.2415453427     0.7375906680
   30      H       6.3240187209     0.4741497332     0.2868641476
   31      H       4.5158585022    -0.7001614561     2.0997823930
   32      O      -4.1250446119    -1.2254378224    -1.0187075359
   33      C      -4.5540570075    -2.7877804219     1.8935281414
   34      C      -3.4024433856     1.9639987628     0.9073588923
   35      C      -2.1643305497     2.9456524276     0.9140289850
   36      C      -1.5403254528     2.6624587554    -0.5021383024
   37      C      -2.5434421000     1.5773521139    -1.0593166666
   38      O      -3.8517703234     1.9785186851    -0.5046288520
   39      H      -2.1169871752     0.4165579719     1.8997497656
   40      H      -1.1183125202     0.0910819198    -0.2178060103
   41      H      -5.1970377217    -2.9000406048     0.9961219731
   42      H      -4.2401200916     2.2348023620     1.5788904985
   43      H      -2.5021750247     3.9901170411     1.0057191275
   44      H      -1.4627434774     2.7286562578     1.7356644675
   45      H      -1.5485819370     3.5622220130    -1.1371927254
   46      H      -0.5125480151     2.2664742092    -0.4397395877
   47      H      -2.6025793086     1.5050306317    -2.1630730993
   48      H      -5.1938573755    -2.5035209463     2.7537748985
   49      H      -4.0480033462    -3.7472598727     2.1073934406
   50      H       0.3291023635    -0.9926485683     3.1342963993
   51      H      -0.0579975972     0.5681774281     2.3038496932
   52      H       0.9993564026     0.5670112531     3.7603903904
   53      H      -0.1353307344    -0.8116865813    -3.7407122140
   54      H      -0.5435765041     0.3551573887    -2.4253103870
   55      H      -0.2889165309    -2.7451391328    -2.2204881393
   56      H      -0.3339738024    -1.7056663119    -0.7586089720
 ----------------------------------------------------------------

    9   -1510.2834669702      2.96E-09 Convergence criterion met
 Total energy in the final basis set = -1510.28346697
 Final energy is   -1510.28346697015
 **  OPTIMIZATION CONVERGED  **

                    Orbital Energies (a.u.)
 --------------------------------------------------------------

 Alpha MOs
 -- Occupied --
-18.966 -18.935 -18.931 -18.918 -18.910 -18.898 -18.883 -18.876
-18.869 -18.864 -10.131 -10.100 -10.099 -10.090 -10.088 -10.085
-10.071 -10.068 -10.063 -10.056 -10.055 -10.052 -10.051 -10.044
-10.030 -10.029 -10.027 -10.026 -10.012 -10.010  -1.042  -1.008
 -1.007  -0.996  -0.980  -0.966  -0.965  -0.937  -0.933  -0.924
 -0.774  -0.757  -0.736  -0.724  -0.714  -0.709  -0.700  -0.662
 -0.652  -0.628  -0.600  -0.593  -0.556  -0.546  -0.542  -0.533
 -0.525  -0.509  -0.495  -0.483  -0.475  -0.468  -0.456  -0.447
 -0.442  -0.434  -0.426  -0.417  -0.412  -0.410  -0.407  -0.401
 -0.398  -0.395  -0.386  -0.375  -0.366  -0.357  -0.352  -0.349
 -0.345  -0.342  -0.342  -0.337  -0.329  -0.327  -0.324  -0.316
 -0.313  -0.311  -0.301  -0.301  -0.296  -0.292  -0.286  -0.278
 -0.276  -0.266  -0.253  -0.246  -0.244  -0.242  -0.228  -0.210
 -0.182  -0.174  -0.171  -0.164  -0.154  -0.150  -0.149  -0.141
 -0.138

          Ground-State Mulliken Net Atomic Charges

     Atom                 Charge (a.u.)
  ----------------------------------------
      1 O                    -0.210133
      2 C                     0.215134
      3 C                    -0.078883
      4 C                    -0.097901
      5 C                     0.208640
      6 O                    -0.169806
      7 C                    -0.050766
      8 C                    -0.053813
      9 O                    -0.164992
     10 C                     0.221838
     11 C                    -0.077942
     12 C                    -0.081585
     13 C                     0.212739
     14 O                    -0.218860
     15 O                    -0.179562
     16 O                    -0.170718
     17 O                    -0.212082
     18 C                    -0.127832
     19 C                     0.024904
     20 C                    -0.143511
     21 C                    -0.144294
     22 C                     0.026880
     23 O                    -0.186621
     24 H                     0.089816
     25 H                     0.085198
     26 H                     0.087813
     27 H                     0.079955
     28 H                     0.074487
     29 H                     0.079557
     30 H                     0.074847
     31 H                     0.087701
     32 O                    -0.196791
     33 C                    -0.129257
     34 C                     0.024933
     35 C                    -0.144023
     36 C                    -0.150006
     37 C                     0.022565
     38 O                    -0.186535
     39 H                     0.079639
     40 H                     0.097950
     41 H                     0.093524
     42 H                     0.089148
     43 H                     0.077017
     44 H                     0.075042
     45 H                     0.073810
     46 H                     0.083980
     47 H                     0.075673
     48 H                     0.087440
     49 H                     0.086103
     50 H                     0.090895
     51 H                     0.086926
     52 H                     0.086563
     53 H                     0.096885
     54 H                     0.093002
     55 H                     0.093949
     56 H                     0.091361
  ----------------------------------------
  Sum of atomic charges =    -0.000000

                    Cartesian Multipole Moments
 -----------------------------------------------------------------
    Charge (ESU x 10^10)
                -0.0000
    Dipole Moment (Debye)
         X       5.8898      Y      -0.3060      Z      -0.7372
       Tot       5.9436
    Quadrupole Moments (Debye-Ang)
        XX    -174.4994     XY       2.7482     YY    -163.1260
        XZ      -8.1946     YZ      -3.3611     ZZ    -152.7944

 Total job time:  154.93s(wall), 7391.10s(cpu)
        *  Thank you very much for using Q-Chem.  Have a nice day.  *
