 Q-Chem 5.0, Q-Chem, Inc., Pleasanton, CA (2017)
 Q-Chem 5.0.1 for Intel X86 EM64T Linux

User input:
--------------------------------------------------------------
$molecule
0  1
O -3.94934 -3.66094 2.70899
C -3.26408 -4.56952 2.26188
C -3.36658 -6.02376 2.66595
C -2.37425 -7.00423 2.01957
C -1.27582 -6.3946 1.17702
O -0.92319 -7.25787 0.17909
C -1.94496 -7.423 -0.80983
C -1.95849 -8.86147 -1.31652
O -2.3665 -8.89158 -2.69329
C -3.4937 -9.59982 -2.95206
C -3.97838 -9.43589 -4.37294
C -4.51065 -10.71909 -5.02743
C -4.8126 -11.8659 -4.08384
O -4.23345 -12.94242 -4.06848
O -2.51447 -4.21531 1.18458
O -5.83569 -11.68917 -3.20138
O -4.20512 -10.0567 -2.06663
C -6.25523 -12.63475 -2.28878
C -5.22172 -8.52929 -4.52061
C -5.26059 -7.94835 -5.93412
C -5.58794 -9.1909 -6.74242
C -5.83415 -10.19671 -5.61025
O -6.32155 -9.40645 -4.55155
H -3.15434 -8.97176 -4.96365
H -3.79328 -11.10407 -5.78568
H -5.26417 -7.71527 -3.76432
H -6.13612 -7.26055 -5.9693
H -4.3542 -7.3955 -6.26216
H -6.51666 -8.99677 -7.32317
H -4.77886 -9.54417 -7.41802
H -6.49564 -11.02481 -5.94814
O -0.4504 -5.61827 1.6399
C -2.39997 -2.93989 0.6671
C -3.00693 -6.19885 4.154
C -3.60291 -7.50167 4.68754
C -2.68849 -8.51483 4.0345
C -1.72356 -7.58235 3.2955
O -1.62797 -6.46568 4.14451
H -4.42621 -6.31939 2.49767
H -2.89754 -7.83185 1.49419
H -1.9788 -2.25359 1.4324
H -3.33487 -5.34405 4.78574
H -3.43404 -7.53113 5.78775
H -4.68616 -7.63095 4.47563
H -2.13793 -9.05784 4.83506
H -3.18737 -9.24425 3.36055
H -0.76999 -8.11463 3.08079
H -3.3932 -2.5703 0.33389
H -1.71703 -2.96321 -0.2067
H -7.10114 -12.22251 -1.70153
H -5.42701 -12.88881 -1.59323
H -6.59804 -13.55022 -2.81655
H -0.91151 -9.23438 -1.31896
H -2.51311 -9.50845 -0.60191
H -1.5872 -6.81284 -1.66803
H -2.95913 -7.02441 -0.57663
$end

$opt
CONSTRAINT
tors           1           2           3           4    -177.815
tors           3           4           5           6    -149.505
tors           4           5           6           7     +68.732
tors           5           6           7           8    -144.315
tors           6           7           8           9    -148.184
tors           7           8           9          10    -119.410
tors           8           9          10          11    +171.926
tors           9          10          11          12    +140.192
tors          11          12          13          14    -115.309
ENDCONSTRAINT
$end

$rem
JOBTYPE                   OPT
METHOD                    B3LYP
DFT_D                     d3_op
BASIS                     STO-3G
GEOM_OPT_MAX_CYCLES       100
GEOM_OPT_TOL_GRADIENT     300
GEOM_OPT_TOL_DISPLACEMENT 1200
GEOM_OPT_TOL_ENERGY       100
SYMMETRY                  False
THRESH                    12
SCF_CONVERGENCE           8
MAX_SUB_FILE_NUM          128
MEM_STATIC                400
MEM_TOTAL                 4000
$end
--------------------------------------------------------------

   16   -1510.1092024770      2.24E-09 Convergence criterion met
 Total energy in the final basis set = -1510.10920248
   14   -1510.1828435870      3.82E-09 Convergence criterion met
 Total energy in the final basis set = -1510.18284359
   14   -1510.2229072893      1.99E-09 Convergence criterion met
 Total energy in the final basis set = -1510.22290729
   14   -1510.2412115943      4.92E-09 Convergence criterion met
 Total energy in the final basis set = -1510.24121159
   14   -1510.2480950607      4.51E-09 Convergence criterion met
 Total energy in the final basis set = -1510.24809506
    2   -1510.2480950606      1.97E-09 Convergence criterion met
 Total energy in the final basis set = -1510.24809506
   13   -1510.2511080925      7.31E-09 Convergence criterion met
 Total energy in the final basis set = -1510.25110809
   13   -1510.2527916614      5.19E-09 Convergence criterion met
   12   -1510.2549503875      5.69E-09 Convergence criterion met
 Total energy in the final basis set = -1510.25495039
   11   -1510.2550041572      9.84E-09 Convergence criterion met
 Total energy in the final basis set = -1510.25500416
   11   -1510.2550316366      4.39E-09 Convergence criterion met
 Total energy in the final basis set = -1510.25503164
   11   -1510.2550540357      4.14E-09 Convergence criterion met
 Total energy in the final basis set = -1510.25505404
   11   -1510.2550690009      2.67E-09 Convergence criterion met
 Total energy in the final basis set = -1510.25506900
   10   -1510.2550781933      9.52E-09 Convergence criterion met
 Total energy in the final basis set = -1510.25507819

             Standard Nuclear Orientation (Angstroms)
    I     Atom           X                Y                Z
 ----------------------------------------------------------------
    1      O      -4.7862474677    -1.8712063757     2.1664271887
    2      C      -4.1810367587    -1.2591684054     1.2599783944
    3      C      -4.1742323393     0.2919607457     1.0293779995
    4      C      -3.3720887482     0.8167434768    -0.2218698687
    5      C      -3.2937800399    -0.2077342996    -1.4311114337
    6      O      -2.0788239676    -0.0869073192    -2.2241152987
    7      C      -0.9004811180    -0.5293979533    -1.4460931786
    8      C       0.3211711413     0.3798965228    -1.8394927968
    9      O       1.5694703753    -0.4139960556    -1.7421799199
   10      C       2.4680901997     0.1625816883    -0.7802780487
   11      C       3.6450377232    -0.8511053604    -0.6022194581
   12      C       5.0936036568    -0.2168206418    -0.4692583098
   13      C       5.1142359325     1.3383780665    -0.2449296609
   14      O       5.5811589813     2.1931575658    -1.0306029270
   15      O      -3.2009383797    -1.8745958672     0.4129578567
   16      O       4.6272529959     1.6344116840     1.0651070890
   17      O       2.2703131165     1.2611637659    -0.2168225406
   18      C       4.5991057865     3.0994569338     1.2729692764
   19      C       3.5608470331    -1.7226244642     0.7322792040
   20      C       4.3692438505    -3.0521739826     0.4651638786
   21      C       5.8447768229    -2.5036326195     0.4684140013
   22      C       5.6112007575    -0.9802351843     0.8257207242
   23      O       4.4137972776    -1.0003200571     1.6976404572
   24      H       3.6044951458    -1.5189906662    -1.4810630681
   25      H       5.7056233477    -0.4350324045    -1.3619926284
   26      H       2.5394951230    -1.8583688983     1.1379690609
   27      H       4.2040498263    -3.7709156525     1.2837229787
   28      H       4.0900891025    -3.5281168787    -0.4881841101
   29      H       6.4576730983    -2.9924059016     1.2421284950
   30      H       6.3441774185    -2.6256086066    -0.5060886800
   31      H       6.4555529117    -0.4849123534     1.3428424160
   32      O      -4.2704077486    -0.8265667224    -1.8988876076
   33      C      -3.1570160375    -3.3352885232     0.6438890709
   34      C      -5.5917058435     0.9905244553     0.8276894765
   35      C      -5.4631672685     2.4485829603     1.4152636941
   36      C      -4.4897550218     3.0986656115     0.3611986864
   37      C      -4.3824201578     1.9480518940    -0.7192657411
   38      O      -5.6821522365     1.2412033516    -0.6287914760
   39      H      -3.7125441030     0.7067091718     1.9462499171
   40      H      -2.3771915793     1.2108558305     0.0418653013
   41      H      -4.1167539749    -3.8179487546     0.3687078788
   42      H      -6.4582597042     0.3999067932     1.1830646670
   43      H      -6.4455372119     2.9476911850     1.4151330590
   44      H      -5.0577603987     2.4592153350     2.4396824348
   45      H      -4.9196072267     4.0092246528    -0.0851865028
   46      H      -3.5065086708     3.3483939611     0.7914996062
   47      H      -4.2014127291     2.2942755760    -1.7555327174
   48      H      -2.9319862702    -3.5726992486     1.7038392169
   49      H      -2.3505114736    -3.7219303803    -0.0059739023
   50      H       4.2987662173     3.2512226524     2.3258291487
   51      H       3.8589336497     3.5833953794     0.6035648334
   52      H       5.5931164549     3.5586175145     1.0956852233
   53      H       0.1981665976     0.7062518156    -2.8942506839
   54      H       0.4081091079     1.2728060441    -1.1842315447
   55      H      -0.6592418864    -1.5825301997    -1.7203811369
   56      H      -1.0739327044    -0.5025767534    -0.3501698082
 ----------------------------------------------------------------

   10   -1510.2550790469      5.54E-09 Convergence criterion met
 Total energy in the final basis set = -1510.25507905
 Final energy is   -1510.25507904686
 **  OPTIMIZATION CONVERGED  **

                    Orbital Energies (a.u.)
 --------------------------------------------------------------

 Alpha MOs
 -- Occupied --
-18.943 -18.937 -18.930 -18.908 -18.894 -18.891 -18.885 -18.885
-18.881 -18.867 -10.107 -10.106 -10.101 -10.094 -10.073 -10.071
-10.069 -10.066 -10.063 -10.063 -10.063 -10.057 -10.042 -10.042
-10.039 -10.039 -10.025 -10.024 -10.023 -10.022  -1.019  -1.018
 -1.005  -0.999  -0.974  -0.973  -0.944  -0.943  -0.933  -0.929
 -0.767  -0.766  -0.728  -0.725  -0.716  -0.707  -0.699  -0.668
 -0.656  -0.614  -0.604  -0.582  -0.550  -0.549  -0.542  -0.541
 -0.517  -0.515  -0.486  -0.485  -0.468  -0.464  -0.456  -0.442
 -0.436  -0.436  -0.421  -0.416  -0.413  -0.411  -0.406  -0.402
 -0.396  -0.385  -0.382  -0.373  -0.364  -0.357  -0.356  -0.349
 -0.346  -0.343  -0.337  -0.336  -0.334  -0.330  -0.318  -0.315
 -0.314  -0.310  -0.309  -0.303  -0.299  -0.297  -0.283  -0.279
 -0.276  -0.264  -0.255  -0.246  -0.238  -0.237  -0.232  -0.184
 -0.181  -0.174  -0.163  -0.159  -0.158  -0.153  -0.148  -0.146
 -0.141

          Ground-State Mulliken Net Atomic Charges

     Atom                 Charge (a.u.)
  ----------------------------------------
      1 O                    -0.211412
      2 C                     0.211225
      3 C                    -0.080992
      4 C                    -0.082350
      5 C                     0.223572
      6 O                    -0.188848
      7 C                    -0.048462
      8 C                    -0.057737
      9 O                    -0.174211
     10 C                     0.207486
     11 C                    -0.080003
     12 C                    -0.079413
     13 C                     0.207895
     14 O                    -0.217225
     15 O                    -0.172415
     16 O                    -0.159674
     17 O                    -0.210746
     18 C                    -0.126042
     19 C                     0.026897
     20 C                    -0.142551
     21 C                    -0.144905
     22 C                     0.027290
     23 O                    -0.182562
     24 H                     0.087453
     25 H                     0.085391
     26 H                     0.081881
     27 H                     0.078241
     28 H                     0.074610
     29 H                     0.078586
     30 H                     0.074553
     31 H                     0.084873
     32 O                    -0.185756
     33 C                    -0.127080
     34 C                     0.026428
     35 C                    -0.141526
     36 C                    -0.145505
     37 C                     0.024830
     38 O                    -0.183874
     39 H                     0.084552
     40 H                     0.078626
     41 H                     0.093993
     42 H                     0.089331
     43 H                     0.079441
     44 H                     0.074124
     45 H                     0.079620
     46 H                     0.073549
     47 H                     0.084763
     48 H                     0.091006
     49 H                     0.091382
     50 H                     0.089967
     51 H                     0.090619
     52 H                     0.087341
     53 H                     0.091223
     54 H                     0.097022
     55 H                     0.083198
     56 H                     0.082320
  ----------------------------------------
  Sum of atomic charges =    -0.000000

                    Cartesian Multipole Moments
 -----------------------------------------------------------------
    Charge (ESU x 10^10)
                 0.0000
    Dipole Moment (Debye)
         X       2.0405      Y      -0.5602      Z       1.6942
       Tot       2.7107
    Quadrupole Moments (Debye-Ang)
        XX    -174.4954     XY     -16.2163     YY    -149.2957
        XZ      -6.3440     YZ       4.3463     ZZ    -169.7186

 Total job time:  51.02s(wall), 2422.95s(cpu)
        *  Thank you very much for using Q-Chem.  Have a nice day.  *
