 Q-Chem 5.0, Q-Chem, Inc., Pleasanton, CA (2017)
 Q-Chem 5.0.1 for Intel X86 EM64T Linux

User input:
--------------------------------------------------------------
$molecule
0  1
O -0.3576874463 -2.4468724484 -2.5124927914
C -0.5530736089 -1.3034463152 -2.0393816402
C -1.4377090869 -1.0744851148 -0.7486222075
C -1.9547082278 0.3476943169 -0.2527855639
C -1.4901323316 1.6227528202 -1.0417936705
O -1.3470047853 2.8847619993 -0.356849581
C -1.2496222861 2.9560669932 1.1136377741
C 0.044640371 3.7585309363 1.4989910865
O 1.3498271899 3.0466043369 1.3387581875
C 1.2953998896 1.6376145625 1.5506805939
C 2.5795075327 0.966558076 0.9629184896
C 2.7282760026 -0.5532291883 1.3998753503
C 1.6398650651 -1.0429707688 2.4277459631
O 1.7210603622 -0.9408810356 3.6722093554
O 0.0157819972 -0.1250683896 -2.6002980396
O 0.5844010923 -1.7509266898 1.7467490511
O 0.3649362512 1.0116076744 2.11919612
C -0.41756896 -2.2104638445 2.7354684263
C 2.4279169027 0.7950298128 -0.6184817451
C 3.848925988 0.4586030123 -1.2176244947
C 4.0192003625 -1.0406073706 -0.7686815671
C 2.6629408143 -1.2883346883 0.0018965551
O 1.6844733062 -0.4750362865 -0.7484343564
H 3.4663367334 1.5708272283 1.2230370708
H 3.7068849946 -0.7049653669 1.8907186488
H 1.8792455266 1.6165063522 -1.1196121953
H 3.8334093367 0.5541969171 -2.3150114097
H 4.6353103884 1.1171879906 -0.8161318676
H 4.0937820444 -1.716003936 -1.6357330818
H 4.8986836875 -1.1949272263 -0.1234341341
H 2.3294925836 -2.3422399295 0.0530062521
O -1.4538859018 1.7217941924 -2.2879639846
C 0.9067003733 -0.4905266581 -3.7243874518
C -2.8256268114 -1.8197295246 -0.9725756379
C -3.4972359495 -2.143744984 0.4177970731
C -4.0104053469 -0.7208597534 0.8505505822
C -3.5343395921 0.1544035858 -0.3769716055
O -3.6897516135 -0.7521038248 -1.5324891006
H -0.8536207249 -1.532231915 0.0763167303
H -1.6691218722 0.4389322137 0.8061883511
H 0.3784993767 -1.0940104308 -4.4897854963
H -2.7545883946 -2.6746656024 -1.6731307503
H -4.3328140408 -2.8488538024 0.283204499
H -2.7818513942 -2.577231497 1.1329662185
H -5.1080497624 -0.6949541137 0.9415606419
H -3.5691333838 -0.3783805147 1.8004961799
H -4.1021291862 1.0916990264 -0.5382837548
H 1.787685121 -1.060402463 -3.3638290204
H 1.238025521 0.4669992318 -4.1663592472
H -1.3212185802 -1.570835259 2.6781876868
H 0.0117649777 -2.1427524131 3.755434228
H -0.6887648302 -3.2554127872 2.4918388953
H 0.1388307884 4.6602006286 0.8593327936
H -0.0511100681 4.0850166164 2.5593636728
H -1.1942891256 1.9787508894 1.6292376686
H -2.1232369857 3.5320878627 1.491326734
$end

$rem
JOBTYPE                   OPT
METHOD                    B3LYP
DFT_D                     d3_op
BASIS                     STO-3G
GEOM_OPT_MAX_CYCLES       100
GEOM_OPT_TOL_GRADIENT     300
GEOM_OPT_TOL_DISPLACEMENT 1200
GEOM_OPT_TOL_ENERGY       100
SYMMETRY                  False
THRESH                    12
SCF_CONVERGENCE           8
MAX_SUB_FILE_NUM          128
MEM_STATIC                400
MEM_TOTAL                 4000
$end
--------------------------------------------------------------

   16   -1510.2624449466      6.97E-09 Convergence criterion met
 Total energy in the final basis set = -1510.26244495
   15   -1510.2630058423      4.11E-09 Convergence criterion met
 Total energy in the final basis set = -1510.26300584
   13   -1510.2659639054      9.54E-09 Convergence criterion met
 Total energy in the final basis set = -1510.26596391
   14   -1510.2484807792      2.80E-09 Convergence criterion met
 Total energy in the final basis set = -1510.24848078
   14   -1510.2363789065      6.28E-09 Convergence criterion met
 Total energy in the final basis set = -1510.23637891
   15   -1510.2507415239      5.95E-09 Convergence criterion met
 Total energy in the final basis set = -1510.25074152
   13   -1510.2620768580      4.38E-09 Convergence criterion met
 Total energy in the final basis set = -1510.26207686
   13   -1510.2675451528      5.42E-09 Convergence criterion met
   11   -1510.2941211918      4.19E-09 Convergence criterion met
 Total energy in the final basis set = -1510.29412119
   10   -1510.2941243797      6.91E-09 Convergence criterion met
 Total energy in the final basis set = -1510.29412438
    9   -1510.2941243225      5.56E-09 Convergence criterion met
 Total energy in the final basis set = -1510.29412432
    9   -1510.2941247322      3.03E-09 Convergence criterion met
 Total energy in the final basis set = -1510.29412473
    9   -1510.2941255855      6.57E-09 Convergence criterion met
 Total energy in the final basis set = -1510.29412559
    9   -1510.2941255898      8.30E-09 Convergence criterion met
 Total energy in the final basis set = -1510.29412559

             Standard Nuclear Orientation (Angstroms)
    I     Atom           X                Y                Z
 ----------------------------------------------------------------
    1      O      -2.4071303728     3.1478448262     1.7910687090
    2      C      -1.6102884299     2.2475136888     1.4603878250
    3      C      -1.6442452400     1.3103371117     0.2073604058
    4      C      -1.5905348175    -0.2292892757     0.5502580022
    5      C      -1.9346823772    -0.4857642652     2.0655700430
    6      O      -1.8448368611    -1.8106914518     2.6143425176
    7      C      -0.9682061178    -2.7518808120     1.8923715518
    8      C       0.5362223815    -2.6216968929     2.3503153827
    9      O       1.2111112021    -1.3850561360     1.8791205405
   10      C       1.6217095511    -1.5392002372     0.5193668022
   11      C       2.4662552078    -0.3027899516     0.0628246145
   12      C       2.7449634745    -0.3263823128    -1.4994709017
   13      C       2.1846005847    -1.5841709302    -2.2636612808
   14      O       2.8685085557    -2.5470161005    -2.6737845614
   15      O      -0.3396072059     2.0151965632     2.1174273782
   16      O       0.7939232739    -1.3895251320    -2.5920543001
   17      O       1.3574371163    -2.5527032043    -0.1707245016
   18      C       0.2979947967    -2.5699401259    -3.3368333849
   19      C       1.7245919625     1.0928189073     0.2226316457
   20      C       2.7925632983     2.2408312130     0.0347593405
   21      C       3.0099457259     2.2251634421    -1.5241545261
   22      C       2.0634698759     1.0358024628    -1.9482343415
   23      O       0.9210695619     1.1695421903    -1.0181766976
   24      H       3.4100439465    -0.3124986795     0.6389450929
   25      H       3.8322373746    -0.3087693214    -1.6911408643
   26      H       1.0564691306     1.2195012701     1.1089965862
   27      H       2.3781220631     3.2028864678     0.3753878782
   28      H       3.7196261667     2.0385296154     0.5942455064
   29      H       2.6747161914     3.1665363852    -1.9881634672
   30      H       4.0586169202     2.0440485948    -1.8090337393
   31      H       1.7130908113     1.0513814501    -2.9982297394
   32      O      -2.4092976179     0.3955050323     2.8201964654
   33      C      -0.2387334113     2.8308371749     3.3433544965
   34      C      -2.9635664501     1.3953154467    -0.6647977582
   35      C      -2.5740301879     0.9356159965    -2.1220904291
   36      C      -2.3009243947    -0.5957108736    -1.8822861299
   37      C      -2.7656921411    -0.7601930247    -0.3770397994
   38      O      -3.8070852770     0.2726798779    -0.1860758621
   39      H      -0.7556147668     1.5446925645    -0.4174540603
   40      H      -0.6156418055    -0.6557930394     0.2723256724
   41      H      -0.9954008548     2.5186663043     4.0923845985
   42      H      -3.5115791295     2.3540838945    -0.5827776040
   43      H      -3.4172696990     1.0916606212    -2.8141751514
   44      H      -1.6897330800     1.4676611949    -2.5070493247
   45      H      -2.9023626973    -1.2309357864    -2.5514983783
   46      H      -1.2319487029    -0.8469383846    -2.0031931203
   47      H      -3.1594587982    -1.7594082148    -0.1063804135
   48      H      -0.3775614627     3.9106333378     3.1303374593
   49      H       0.7753975148     2.6589056873     3.7488739698
   50      H      -0.0129948894    -3.3710590070    -2.6349310899
   51      H       1.0817962452    -2.9739089059    -4.0076049426
   52      H      -0.5765213737    -2.2359800298    -3.9245569193
   53      H       0.5760230565    -2.5718485651     3.4570909587
   54      H       1.0869722854    -3.5195880479     1.9957336582
   55      H      -1.0409436404    -2.6743503873     0.7894771637
   56      H      -1.3185170941    -3.7623621981     2.1910271167
 ----------------------------------------------------------------

   10   -1510.2941252902      7.06E-09 Convergence criterion met
 Total energy in the final basis set = -1510.29412529
 Final energy is   -1510.29412529019
 **  OPTIMIZATION CONVERGED  **

                    Orbital Energies (a.u.)
 --------------------------------------------------------------

 Alpha MOs
 -- Occupied --
-18.957 -18.937 -18.930 -18.918 -18.901 -18.899 -18.882 -18.878
-18.868 -18.861 -10.120 -10.103 -10.100 -10.088 -10.087 -10.086
-10.070 -10.060 -10.057 -10.056 -10.055 -10.050 -10.047 -10.043
-10.031 -10.026 -10.024 -10.013 -10.009 -10.007  -1.035  -1.011
 -1.006  -0.995  -0.982  -0.962  -0.957  -0.940  -0.932  -0.924
 -0.772  -0.755  -0.734  -0.722  -0.712  -0.709  -0.696  -0.659
 -0.653  -0.626  -0.596  -0.591  -0.552  -0.546  -0.540  -0.530
 -0.520  -0.510  -0.494  -0.478  -0.475  -0.460  -0.454  -0.447
 -0.436  -0.432  -0.424  -0.419  -0.412  -0.409  -0.404  -0.403
 -0.402  -0.391  -0.381  -0.373  -0.366  -0.360  -0.349  -0.348
 -0.344  -0.341  -0.339  -0.335  -0.325  -0.324  -0.322  -0.315
 -0.311  -0.310  -0.304  -0.301  -0.295  -0.290  -0.285  -0.272
 -0.268  -0.267  -0.251  -0.247  -0.240  -0.239  -0.221  -0.205
 -0.175  -0.174  -0.171  -0.164  -0.159  -0.151  -0.149  -0.139
 -0.136

          Ground-State Mulliken Net Atomic Charges

     Atom                 Charge (a.u.)
  ----------------------------------------
      1 O                    -0.214450
      2 C                     0.219233
      3 C                    -0.097006
      4 C                    -0.085109
      5 C                     0.215915
      6 O                    -0.170846
      7 C                    -0.050107
      8 C                    -0.052112
      9 O                    -0.166246
     10 C                     0.210354
     11 C                    -0.079120
     12 C                    -0.081924
     13 C                     0.214369
     14 O                    -0.218221
     15 O                    -0.185388
     16 O                    -0.176295
     17 O                    -0.209026
     18 C                    -0.131683
     19 C                     0.011094
     20 C                    -0.144649
     21 C                    -0.144078
     22 C                     0.028299
     23 O                    -0.196421
     24 H                     0.089116
     25 H                     0.085828
     26 H                     0.114422
     27 H                     0.079484
     28 H                     0.073490
     29 H                     0.078774
     30 H                     0.075005
     31 H                     0.087598
     32 O                    -0.192622
     33 C                    -0.128035
     34 C                     0.023197
     35 C                    -0.141887
     36 C                    -0.151521
     37 C                     0.021425
     38 O                    -0.191381
     39 H                     0.112039
     40 H                     0.081412
     41 H                     0.093276
     42 H                     0.087848
     43 H                     0.073696
     44 H                     0.075923
     45 H                     0.070552
     46 H                     0.087339
     47 H                     0.076418
     48 H                     0.087216
     49 H                     0.084628
     50 H                     0.085865
     51 H                     0.095609
     52 H                     0.087639
     53 H                     0.098442
     54 H                     0.095099
     55 H                     0.092897
     56 H                     0.094622
  ----------------------------------------
  Sum of atomic charges =     0.000000

                    Cartesian Multipole Moments
 -----------------------------------------------------------------
    Charge (ESU x 10^10)
                -0.0000
    Dipole Moment (Debye)
         X       3.9356      Y      -1.1016      Z      -1.1545
       Tot       4.2468
    Quadrupole Moments (Debye-Ang)
        XX    -171.6325     XY      14.4128     YY    -157.6307
        XZ      13.5868     YZ      -7.3496     ZZ    -159.3356

 Total job time:  136.56s(wall), 6516.02s(cpu)
        *  Thank you very much for using Q-Chem.  Have a nice day.  *
