 Q-Chem 5.0, Q-Chem, Inc., Pleasanton, CA (2017)
 Q-Chem 5.0.1 for Intel X86 EM64T Linux

User input:
--------------------------------------------------------------
$molecule
0  1
O -3.94934 -3.66094 2.70899
C -3.26408 -4.56952 2.26188
C -3.36658 -6.02376 2.66595
C -2.23747 -6.96148 2.2081
C -1.04297 -6.30747 1.54967
O -0.48558 -7.16429 0.6438
C -1.36084 -8.23237 0.26647
C -1.5008 -8.28596 -1.25132
O -2.35005 -7.21912 -1.70245
C -3.32988 -6.84967 -0.84073
C -3.92858 -5.50355 -1.17266
C -5.20868 -5.15587 -0.39887
C -5.49822 -6.01151 0.81799
O -6.1077 -7.07125 0.81056
O -2.17555 -4.09894 1.59194
O -5.8054 -5.22512 1.89027
O -3.90349 -7.71116 -0.19177
C -6.53707 -5.57591 3.01556
C -3.23459 -4.12793 -1.1982
C -3.83601 -3.27669 -2.32136
C -5.23454 -3.01343 -1.7606
C -5.09959 -3.624 -0.35157
O -3.74882 -3.42891 -0.09164
H -4.21193 -5.69169 -2.23562
H -6.08444 -5.40928 -1.03984
H -2.12865 -4.19355 -1.2792
H -3.27055 -2.31684 -2.32777
H -3.8079 -3.71191 -3.34346
H -5.38575 -1.91251 -1.70984
H -6.06746 -3.48038 -2.32922
H -5.82118 -3.1659 0.3576
O -0.31678 -5.49074 2.10361
C -1.65552 -2.81436 1.68609
C -3.13686 -6.07778 4.19982
C -3.73689 -7.37284 4.74372
C -2.65719 -8.35051 4.34403
C -1.69725 -7.41355 3.59718
O -1.75606 -6.24612 4.36226
H -3.48419 -6.07719 1.6124
H -2.82502 -7.86601 1.95697
H -1.32052 -2.62218 2.72737
H -3.56637 -5.20497 4.73943
H -3.78535 -7.33473 5.85495
H -4.74382 -7.58224 4.32329
H -2.13735 -8.69675 5.26609
H -3.00081 -9.23564 3.76667
H -0.69524 -7.89619 3.5336
H -2.40405 -2.04563 1.40202
H -0.78071 -2.72741 1.00977
H -5.93328 -5.38577 3.92417
H -6.84927 -6.64123 3.01784
H -7.4446 -4.94026 3.06698
H -0.50999 -8.18472 -1.74682
H -1.94334 -9.25884 -1.56027
H -1.87809 -9.03075 0.83431
H -0.61075 -9.04841 0.35707
$end

$opt
CONSTRAINT
tors           1           2           3           4    -167.881
tors           3           4           5           6    -149.903
tors           4           5           6           7     +17.578
tors           5           6           7           8    +126.145
tors           6           7           8           9     -75.074
tors           7           8           9          10     -31.707
tors           8           9          10          11    +163.684
tors           9          10          11          12    +169.027
tors          11          12          13          14     -87.143
ENDCONSTRAINT
$end

$rem
JOBTYPE                   OPT
METHOD                    B3LYP
DFT_D                     d3_op
BASIS                     STO-3G
GEOM_OPT_MAX_CYCLES       100
GEOM_OPT_TOL_GRADIENT     300
GEOM_OPT_TOL_DISPLACEMENT 1200
GEOM_OPT_TOL_ENERGY       100
SYMMETRY                  False
THRESH                    12
SCF_CONVERGENCE           8
MAX_SUB_FILE_NUM          128
MEM_STATIC                400
MEM_TOTAL                 4000
$end
--------------------------------------------------------------

   16   -1509.7886407073      5.46E-09 Convergence criterion met
 Total energy in the final basis set = -1509.78864071
   14   -1509.8696011273      9.83E-09 Convergence criterion met
 Total energy in the final basis set = -1509.86960113
   14   -1509.9453250035      6.76E-09 Convergence criterion met
 Total energy in the final basis set = -1509.94532500
    2   -1509.9453250034      4.97E-09 Convergence criterion met
 Total energy in the final basis set = -1509.94532500
   14   -1510.0048952422      6.28E-09 Convergence criterion met
 Total energy in the final basis set = -1510.00489524
   14   -1510.0514192105      4.24E-09 Convergence criterion met
 Total energy in the final basis set = -1510.05141921
   14   -1510.0882259490      2.48E-09 Convergence criterion met
 Total energy in the final basis set = -1510.08822595
   13   -1510.1184152001      8.77E-09 Convergence criterion met
   10   -1510.2625853818      7.64E-09 Convergence criterion met
 Total energy in the final basis set = -1510.26258538
   10   -1510.2626001585      3.88E-09 Convergence criterion met
 Total energy in the final basis set = -1510.26260016
    9   -1510.2626089287      8.47E-09 Convergence criterion met
 Total energy in the final basis set = -1510.26260893
    9   -1510.2626055036      6.61E-09 Convergence criterion met
 Total energy in the final basis set = -1510.26260550
    9   -1510.2626082155      6.33E-09 Convergence criterion met
 Total energy in the final basis set = -1510.26260822
    9   -1510.2626095973      5.58E-09 Convergence criterion met
 Total energy in the final basis set = -1510.26260960

             Standard Nuclear Orientation (Angstroms)
    I     Atom           X                Y                Z
 ----------------------------------------------------------------
    1      O      -0.3576874463    -2.4468724484    -2.5124927914
    2      C      -0.5530736089    -1.3034463152    -2.0393816402
    3      C      -1.4377090869    -1.0744851148    -0.7486222075
    4      C      -1.9547082278     0.3476943169    -0.2527855639
    5      C      -1.4901323316     1.6227528202    -1.0417936705
    6      O      -1.3470047853     2.8847619993    -0.3568495810
    7      C      -1.2496222861     2.9560669932     1.1136377741
    8      C       0.0446403710     3.7585309363     1.4989910865
    9      O       1.3498271899     3.0466043369     1.3387581875
   10      C       1.2953998896     1.6376145625     1.5506805939
   11      C       2.5795075327     0.9665580760     0.9629184896
   12      C       2.7282760026    -0.5532291883     1.3998753503
   13      C       1.6398650651    -1.0429707688     2.4277459631
   14      O       1.7210603622    -0.9408810356     3.6722093554
   15      O       0.0157819972    -0.1250683896    -2.6002980396
   16      O       0.5844010923    -1.7509266898     1.7467490511
   17      O       0.3649362512     1.0116076744     2.1191961200
   18      C      -0.4175689600    -2.2104638445     2.7354684263
   19      C       2.4279169027     0.7950298128    -0.6184817451
   20      C       3.8489259880     0.4586030123    -1.2176244947
   21      C       4.0192003625    -1.0406073706    -0.7686815671
   22      C       2.6629408143    -1.2883346883     0.0018965551
   23      O       1.6844733062    -0.4750362865    -0.7484343564
   24      H       3.4663367334     1.5708272283     1.2230370708
   25      H       3.7068849946    -0.7049653669     1.8907186488
   26      H       1.8792455266     1.6165063522    -1.1196121953
   27      H       3.8334093367     0.5541969171    -2.3150114097
   28      H       4.6353103884     1.1171879906    -0.8161318676
   29      H       4.0937820444    -1.7160039360    -1.6357330818
   30      H       4.8986836875    -1.1949272263    -0.1234341341
   31      H       2.3294925836    -2.3422399295     0.0530062521
   32      O      -1.4538859018     1.7217941924    -2.2879639846
   33      C       0.9067003733    -0.4905266581    -3.7243874518
   34      C      -2.8256268114    -1.8197295246    -0.9725756379
   35      C      -3.4972359495    -2.1437449840     0.4177970731
   36      C      -4.0104053469    -0.7208597534     0.8505505822
   37      C      -3.5343395921     0.1544035858    -0.3769716055
   38      O      -3.6897516135    -0.7521038248    -1.5324891006
   39      H      -0.8536207249    -1.5322319150     0.0763167303
   40      H      -1.6691218722     0.4389322137     0.8061883511
   41      H       0.3784993767    -1.0940104308    -4.4897854963
   42      H      -2.7545883946    -2.6746656024    -1.6731307503
   43      H      -4.3328140408    -2.8488538024     0.2832044990
   44      H      -2.7818513942    -2.5772314970     1.1329662185
   45      H      -5.1080497624    -0.6949541137     0.9415606419
   46      H      -3.5691333838    -0.3783805147     1.8004961799
   47      H      -4.1021291862     1.0916990264    -0.5382837548
   48      H       1.7876851210    -1.0604024630    -3.3638290204
   49      H       1.2380255210     0.4669992318    -4.1663592472
   50      H      -1.3212185802    -1.5708352590     2.6781876868
   51      H       0.0117649777    -2.1427524131     3.7554342280
   52      H      -0.6887648302    -3.2554127872     2.4918388953
   53      H       0.1388307884     4.6602006286     0.8593327936
   54      H      -0.0511100681     4.0850166164     2.5593636728
   55      H      -1.1942891256     1.9787508894     1.6292376686
   56      H      -2.1232369857     3.5320878627     1.4913267340
 ----------------------------------------------------------------

    9   -1510.2626104703      4.35E-09 Convergence criterion met
 Total energy in the final basis set = -1510.26261047
 Final energy is   -1510.26261047028
 **  OPTIMIZATION CONVERGED  **

                    Orbital Energies (a.u.)
 --------------------------------------------------------------

 Alpha MOs
 -- Occupied --
-18.954 -18.930 -18.922 -18.917 -18.898 -18.894 -18.882 -18.869
-18.865 -18.847 -10.121 -10.101 -10.090 -10.085 -10.084 -10.072
-10.067 -10.064 -10.058 -10.057 -10.050 -10.050 -10.048 -10.042
-10.030 -10.026 -10.024 -10.022 -10.018 -10.015  -1.029  -1.007
 -0.998  -0.992  -0.977  -0.965  -0.956  -0.933  -0.925  -0.915
 -0.769  -0.753  -0.732  -0.721  -0.713  -0.707  -0.698  -0.659
 -0.649  -0.622  -0.594  -0.592  -0.551  -0.543  -0.540  -0.532
 -0.519  -0.509  -0.485  -0.476  -0.468  -0.459  -0.449  -0.441
 -0.436  -0.434  -0.429  -0.418  -0.414  -0.408  -0.404  -0.399
 -0.394  -0.390  -0.381  -0.371  -0.366  -0.360  -0.350  -0.346
 -0.341  -0.338  -0.336  -0.333  -0.325  -0.322  -0.317  -0.311
 -0.309  -0.307  -0.302  -0.293  -0.290  -0.289  -0.287  -0.281
 -0.266  -0.261  -0.247  -0.237  -0.235  -0.228  -0.225  -0.195
 -0.172  -0.168  -0.161  -0.156  -0.155  -0.149  -0.140  -0.133
 -0.131

          Ground-State Mulliken Net Atomic Charges

     Atom                 Charge (a.u.)
  ----------------------------------------
      1 O                    -0.229750
      2 C                     0.219930
      3 C                    -0.080001
      4 C                    -0.085971
      5 C                     0.205868
      6 O                    -0.183133
      7 C                    -0.063563
      8 C                    -0.048681
      9 O                    -0.165894
     10 C                     0.218469
     11 C                    -0.078180
     12 C                    -0.080428
     13 C                     0.216969
     14 O                    -0.221477
     15 O                    -0.154696
     16 O                    -0.172888
     17 O                    -0.213020
     18 C                    -0.135881
     19 C                     0.026308
     20 C                    -0.143620
     21 C                    -0.144484
     22 C                     0.024613
     23 O                    -0.188126
     24 H                     0.089913
     25 H                     0.085014
     26 H                     0.091992
     27 H                     0.079453
     28 H                     0.075186
     29 H                     0.078673
     30 H                     0.074635
     31 H                     0.091113
     32 O                    -0.189060
     33 C                    -0.124132
     34 C                     0.023653
     35 C                    -0.145476
     36 C                    -0.143770
     37 C                     0.025332
     38 O                    -0.188362
     39 H                     0.097535
     40 H                     0.080100
     41 H                     0.089648
     42 H                     0.088658
     43 H                     0.077083
     44 H                     0.072860
     45 H                     0.076938
     46 H                     0.069205
     47 H                     0.081523
     48 H                     0.084685
     49 H                     0.087252
     50 H                     0.081124
     51 H                     0.102750
     52 H                     0.084411
     53 H                     0.099757
     54 H                     0.086953
     55 H                     0.109010
     56 H                     0.083979
  ----------------------------------------
  Sum of atomic charges =    -0.000000

                    Cartesian Multipole Moments
 -----------------------------------------------------------------
    Charge (ESU x 10^10)
                -0.0000
    Dipole Moment (Debye)
         X       1.9417      Y       0.7952      Z       2.7970
       Tot       3.4965
    Quadrupole Moments (Debye-Ang)
        XX    -149.9254     XY       0.3419     YY    -157.1151
        XZ     -14.2699     YZ       3.2727     ZZ    -170.2859

 Total job time:  119.22s(wall), 5686.14s(cpu)
        *  Thank you very much for using Q-Chem.  Have a nice day.  *
