 Q-Chem 5.0, Q-Chem, Inc., Pleasanton, CA (2017)
 Q-Chem 5.0.1 for Intel X86 EM64T Linux

User input:
--------------------------------------------------------------
$molecule
0  1
O -4.8583375954 1.7520777408 1.1014355017
C -4.8240585327 1.0136272425 0.0953071059
C -4.6571393275 -0.5494475746 0.0583705174
C -3.3189015501 -1.0289711284 -0.6466089561
C -2.4196012593 0.1533482662 -1.1471828812
O -1.6857915193 -0.2570943563 -2.3235152694
C -0.2857288068 0.2177197184 -2.2605057851
C 0.5806536738 -0.7570991346 -1.3649925547
O 1.8649367754 -0.2620850286 -0.8079359485
C 1.9740507568 1.1273643771 -0.5054862504
C 2.8895379824 1.3497211196 0.7642464118
C 3.8362741753 0.1555551501 1.1976677853
C 3.3699907262 -1.2894237972 0.787159631
O 2.4279790112 -1.9350096998 1.2970013395
O -5.0139351783 1.463913586 -1.252807192
O 4.2290288514 -1.799598973 -0.2411894533
O 1.4205036799 2.0653959496 -1.1234386498
C 3.7777330641 -3.1490284884 -0.6453828121
C 3.9843590843 2.4190626909 0.3421574743
C 4.8513094324 2.8547672355 1.5894638193
C 5.839355566 1.6352887591 1.7245592406
C 5.239981154 0.6569947644 0.6414731413
O 4.9009449869 1.578461832 -0.4680109833
H 2.2393625185 1.6865399592 1.5928788553
H 3.8685351461 0.1419932673 2.3032082302
H 3.5746958703 3.248575314 -0.267062765
H 5.3873357902 3.7939097529 1.3806177078
H 4.2291019759 2.9965468586 2.4879676242
H 6.8679026338 1.9221814208 1.4523593645
H 5.8474707651 1.197612206 2.7355692283
H 5.9101906677 -0.1494796268 0.2880299547
O -2.2681522234 1.2567509928 -0.5782214183
C -5.0822166128 2.9417318323 -1.2848462207
C -4.4674780779 -1.135092359 1.516414182
C -4.7048034616 -2.6938205804 1.4673774569
C -3.3849783161 -3.1786824115 0.7598865543
C -2.6245230589 -1.8079703067 0.5589967619
O -3.006938576 -1.0134248725 1.7441401417
H -5.5389364616 -0.9799620078 -0.450297927
H -3.5177966189 -1.7036375975 -1.4978446122
H -4.1166847666 3.3916407948 -0.9744569409
H -5.0237554541 -0.5835005391 2.2988448641
H -4.7895937379 -3.1039503654 2.4863202539
H -5.6131147462 -2.9594091043 0.9033133624
H -2.7986517962 -3.8478631952 1.409623864
H -3.5757909615 -3.6912344329 -0.1964909814
H -1.5231212702 -1.8947063031 0.4882324103
H -5.8830007644 3.3300645452 -0.6230738812
H -5.2989492793 3.2171492673 -2.3333487366
H 4.4662493086 -3.4749128952 -1.4467465736
H 2.7390699854 -3.130836905 -1.0337225155
H 3.823466019 -3.8686432786 0.1979129652
H -0.0428453398 -1.0673656191 -0.4964566206
H 0.8444332196 -1.6730128164 -1.933227125
H -0.1973828675 1.249248563 -1.8547694291
H 0.0921340038 0.2141231273 -3.3019137009
$end

$rem
JOBTYPE                   OPT
METHOD                    B3LYP
DFT_D                     d3_op
BASIS                     STO-3G
GEOM_OPT_MAX_CYCLES       100
GEOM_OPT_TOL_GRADIENT     300
GEOM_OPT_TOL_DISPLACEMENT 1200
GEOM_OPT_TOL_ENERGY       100
SYMMETRY                  False
THRESH                    12
SCF_CONVERGENCE           8
MAX_SUB_FILE_NUM          128
MEM_STATIC                400
MEM_TOTAL                 4000
$end
--------------------------------------------------------------

   16   -1510.2592376895      5.46E-09 Convergence criterion met
 Total energy in the final basis set = -1510.25923769
   15   -1510.2648527807      3.18E-09 Convergence criterion met
 Total energy in the final basis set = -1510.26485278
   14   -1510.2695019959      6.40E-09 Convergence criterion met
 Total energy in the final basis set = -1510.26950200
   15   -1510.2728746985      3.61E-09 Convergence criterion met
 Total energy in the final basis set = -1510.27287470
   14   -1510.2750563350      2.67E-09 Convergence criterion met
 Total energy in the final basis set = -1510.27505634
   14   -1510.2771294637      4.78E-09 Convergence criterion met
 Total energy in the final basis set = -1510.27712946
   13   -1510.2782825299      4.91E-09 Convergence criterion met
 Total energy in the final basis set = -1510.27828253
   13   -1510.2796250448      3.89E-09 Convergence criterion met
   13   -1510.2872179505      4.65E-09 Convergence criterion met
 Total energy in the final basis set = -1510.28721795
   12   -1510.2873399568      9.43E-09 Convergence criterion met
 Total energy in the final basis set = -1510.28733996
   12   -1510.2874019004      7.63E-09 Convergence criterion met
 Total energy in the final basis set = -1510.28740190
   11   -1510.2874048482      7.68E-09 Convergence criterion met
 Total energy in the final basis set = -1510.28740485
   11   -1510.2874294184      6.66E-09 Convergence criterion met
 Total energy in the final basis set = -1510.28742942
   11   -1510.2874305861      7.64E-09 Convergence criterion met
 Total energy in the final basis set = -1510.28743059

             Standard Nuclear Orientation (Angstroms)
    I     Atom           X                Y                Z
 ----------------------------------------------------------------
    1      O      -4.7185036625     1.2003526933     1.7547153137
    2      C      -4.6920890110     0.9929420942     0.5233413691
    3      C      -4.9366088253    -0.3751034804    -0.2185460537
    4      C      -3.6313494243    -1.0481959222    -0.8096269449
    5      C      -2.3245340330    -0.2725507269    -0.4358434736
    6      O      -1.2086482192    -0.9486466469    -1.0203879720
    7      C       0.0550467744    -0.2529523395    -0.6710430823
    8      C       0.4515395284    -0.4930407296     0.8379004511
    9      O       1.9081198825    -0.3573541210     1.0882314526
   10      C       2.3593714032     0.9712071526     0.8064216874
   11      C       3.8883955996     1.0799323971     1.1375895923
   12      C       4.7783372995    -0.1813566705     0.7731156254
   13      C       4.0240606954    -1.4126555253     0.1613518807
   14      O       3.9471694955    -2.5572878452     0.6580748830
   15      O      -4.5758995555     2.0176152763    -0.4757026742
   16      O       3.5104189368    -1.0676874569    -1.1347289469
   17      O       1.6230275626     1.8952805876     0.3991612258
   18      C       2.9292654012    -2.2725845564    -1.7703513592
   19      C       4.5626725265     2.2047499637     0.2463829274
   20      C       5.9402138712     2.6090678939     0.9005791834
   21      C       6.8243036326     1.3575096311     0.5380252468
   22      C       5.7899305699     0.4748849126    -0.2673126444
   23      O       4.9588526046     1.4712846033    -0.9780735927
   24      H       3.9779138570     1.3122798402     2.2155721506
   25      H       5.3076378095    -0.5498725089     1.6692863303
   26      H       3.8781733326     3.0392241743    -0.0031098776
   27      H       6.3325923982     3.5285920137     0.4378961169
   28      H       5.8526805350     2.7695900358     1.9870656712
   29      H       7.6753112993     1.6361186686    -0.1035806007
   30      H       7.2077663660     0.8347849076     1.4285773266
   31      H       6.2376518305    -0.2394783243    -0.9849031884
   32      O      -2.2280365198     0.7540390225     0.2740175003
   33      C      -4.2693186138     3.3114081326     0.1725120178
   34      C      -5.4286253412    -1.5015455351     0.7844875015
   35      C      -6.0962767091    -2.6566354332    -0.0602566087
   36      C      -4.8284153467    -3.3276774634    -0.7078640803
   37      C      -3.6672494831    -2.4606062099    -0.0783321655
   38      O      -4.1701191553    -2.1170930646     1.2694452221
   39      H      -5.6736259140    -0.1993541489    -1.0221835655
   40      H      -3.6790726134    -1.1592291901    -1.9078988317
   41      H      -3.2836463570     3.2789605336     0.6806017881
   42      H      -6.0223425783    -1.1209808528     1.6379704314
   43      H      -6.6306024341    -3.3581799793     0.5999656292
   44      H      -6.8029121317    -2.2677276881    -0.8107945503
   45      H      -4.7277613972    -4.3821320338    -0.4054532428
   46      H      -4.8337646744    -3.2748181179    -1.8083490117
   47      H      -2.6818926593    -2.9622636915    -0.0162666109
   48      H      -5.0421381235     3.5912785733     0.9175701038
   49      H      -4.2439282982     4.0640313021    -0.6369731246
   50      H       2.4904839115    -1.9339847187    -2.7270495663
   51      H       2.1430310487    -2.7344842159    -1.1392266165
   52      H       3.7054245656    -3.0386787027    -1.9739327821
   53      H      -0.1266166851     0.2053714161     1.4798091257
   54      H       0.2080152971    -1.5362048763     1.1253430392
   55      H      -0.0219032080     0.8383603546    -0.8555677637
   56      H       0.8287323379    -0.6837966488    -1.3350006833
 ----------------------------------------------------------------

   10   -1510.2874312592      6.31E-09 Convergence criterion met
 Total energy in the final basis set = -1510.28743126
 Final energy is   -1510.28743125917
 **  OPTIMIZATION CONVERGED  **

                    Orbital Energies (a.u.)
 --------------------------------------------------------------

 Alpha MOs
 -- Occupied --
-18.944 -18.943 -18.929 -18.917 -18.888 -18.888 -18.887 -18.883
-18.868 -18.858 -10.108 -10.107 -10.097 -10.088 -10.075 -10.072
-10.063 -10.062 -10.061 -10.059 -10.056 -10.051 -10.041 -10.041
-10.037 -10.032 -10.021 -10.021 -10.020 -10.019  -1.023  -1.019
 -1.005  -0.995  -0.971  -0.970  -0.947  -0.943  -0.931  -0.922
 -0.765  -0.763  -0.729  -0.723  -0.712  -0.706  -0.697  -0.661
 -0.652  -0.622  -0.598  -0.587  -0.545  -0.545  -0.538  -0.537
 -0.514  -0.511  -0.488  -0.476  -0.466  -0.458  -0.454  -0.443
 -0.434  -0.431  -0.425  -0.412  -0.411  -0.405  -0.402  -0.398
 -0.397  -0.388  -0.372  -0.369  -0.362  -0.355  -0.350  -0.346
 -0.343  -0.340  -0.335  -0.332  -0.331  -0.326  -0.324  -0.314
 -0.312  -0.308  -0.306  -0.303  -0.298  -0.293  -0.278  -0.275
 -0.272  -0.265  -0.250  -0.247  -0.242  -0.235  -0.234  -0.199
 -0.176  -0.172  -0.162  -0.161  -0.160  -0.148  -0.145  -0.144
 -0.139

          Ground-State Mulliken Net Atomic Charges

     Atom                 Charge (a.u.)
  ----------------------------------------
      1 O                    -0.217516
      2 C                     0.215655
      3 C                    -0.081652
      4 C                    -0.077870
      5 C                     0.214846
      6 O                    -0.171857
      7 C                    -0.056267
      8 C                    -0.052789
      9 O                    -0.168443
     10 C                     0.214837
     11 C                    -0.078249
     12 C                    -0.079912
     13 C                     0.213373
     14 O                    -0.216205
     15 O                    -0.176469
     16 O                    -0.171805
     17 O                    -0.210646
     18 C                    -0.130160
     19 C                     0.024131
     20 C                    -0.144037
     21 C                    -0.144067
     22 C                     0.026352
     23 O                    -0.187281
     24 H                     0.086440
     25 H                     0.085056
     26 H                     0.090714
     27 H                     0.078582
     28 H                     0.073583
     29 H                     0.078003
     30 H                     0.073859
     31 H                     0.083099
     32 O                    -0.205282
     33 C                    -0.128489
     34 C                     0.024721
     35 C                    -0.143789
     36 C                    -0.143923
     37 C                     0.024826
     38 O                    -0.190117
     39 H                     0.083742
     40 H                     0.087544
     41 H                     0.092489
     42 H                     0.089531
     43 H                     0.078071
     44 H                     0.073400
     45 H                     0.078270
     46 H                     0.073617
     47 H                     0.084032
     48 H                     0.086359
     49 H                     0.085936
     50 H                     0.088756
     51 H                     0.088856
     52 H                     0.087018
     53 H                     0.099467
     54 H                     0.092567
     55 H                     0.105349
     56 H                     0.093740
  ----------------------------------------
  Sum of atomic charges =    -0.000000

                    Cartesian Multipole Moments
 -----------------------------------------------------------------
    Charge (ESU x 10^10)
                 0.0000
    Dipole Moment (Debye)
         X       0.6895      Y      -0.5888      Z      -1.6196
       Tot       1.8561
    Quadrupole Moments (Debye-Ang)
        XX    -143.4044     XY       8.1903     YY    -158.4637
        XZ      13.2811     YZ       8.1060     ZZ    -162.9377

 Total job time:  78.37s(wall), 3730.17s(cpu)
        *  Thank you very much for using Q-Chem.  Have a nice day.  *
