 Q-Chem 5.0, Q-Chem, Inc., Pleasanton, CA (2017)
 Q-Chem 5.0.1 for Intel X86 EM64T Linux

User input:
--------------------------------------------------------------
$molecule
0  1
O -3.94934 -3.66094 2.70899
C -3.26408 -4.56952 2.26188
C -3.36658 -6.02376 2.66595
C -2.14648 -6.64676 3.36385
C -1.02806 -5.70009 3.7394
O 0.1698 -6.35444 3.69046
C 1.03021 -6.03696 4.78961
C 0.64432 -6.86031 6.01408
O 1.16799 -6.24577 7.20193
C 1.27541 -4.89452 7.16056
C 1.01933 -4.2427 8.49854
C 1.11101 -5.18648 9.7065
C 1.78018 -6.52222 9.45214
O 1.29346 -7.45037 8.8227
O -2.32316 -4.28156 1.32487
O 3.00796 -6.72249 10.00768
O 2.18632 -4.38708 6.51503
C 3.74717 -7.87989 9.87839
C 2.01479 -3.13561 8.9336
C 1.32976 -2.18941 9.91797
C 1.21367 -3.08328 11.13281
C 1.98221 -4.31508 10.63977
O 2.94398 -3.79356 9.75653
H 0.01183 -3.77902 8.40639
H 0.123 -5.40899 10.16589
H 2.43676 -2.54341 8.09326
H 2.0578 -1.377 10.14367
H 0.37679 -1.73652 9.56927
H 1.74424 -2.59386 11.97962
H 0.17613 -3.34637 11.43265
H 2.37341 -4.88338 11.51206
O -1.23108 -4.66941 4.37312
C -2.07138 -3.01531 0.84038
C -4.46843 -6.26037 3.71879
C -4.94254 -7.70913 3.658
C -3.74584 -8.41371 4.24988
C -2.86381 -7.21144 4.61344
O -3.78605 -6.20506 4.94435
H -3.6315 -6.5715 1.73355
H -1.71106 -7.48391 2.77118
H -1.75191 -2.34613 1.66778
H -5.34158 -5.58006 3.61257
H -5.79923 -7.80924 4.36267
H -5.25144 -8.06066 2.65002
H -4.07583 -8.94298 5.17202
H -3.22807 -9.12671 3.57243
H -2.19017 -7.53548 5.41662
H -2.98117 -2.60365 0.35338
H -1.25678 -3.06862 0.08935
H 4.70263 -7.76452 10.42992
H 3.97261 -8.07137 8.80743
H 3.18906 -8.74044 10.30522
H -0.43841 -6.77883 6.14829
H 0.91278 -7.93447 5.93268
H 1.01941 -4.93396 4.7911
H 2.07603 -6.30933 4.53308
$end

$opt
CONSTRAINT
tors           1           2           3           4    -115.773
tors           3           4           5           6    -149.101
tors           4           5           6           7    -137.763
tors           5           6           7           8     +81.497
tors           6           7           8           9    -160.439
tors           7           8           9          10     +30.820
tors           8           9          10          11    +145.843
tors           9          10          11          12     +17.651
tors          11          12          13          14     -72.952
ENDCONSTRAINT
$end

$rem
JOBTYPE                   OPT
METHOD                    B3LYP
DFT_D                     d3_op
BASIS                     STO-3G
GEOM_OPT_MAX_CYCLES       100
GEOM_OPT_TOL_GRADIENT     300
GEOM_OPT_TOL_DISPLACEMENT 1200
GEOM_OPT_TOL_ENERGY       100
SYMMETRY                  False
THRESH                    12
SCF_CONVERGENCE           8
MAX_SUB_FILE_NUM          128
MEM_STATIC                400
MEM_TOTAL                 4000
$end
--------------------------------------------------------------

   15   -1510.0583116711      9.09E-09 Convergence criterion met
 Total energy in the final basis set = -1510.05831167
   14   -1510.1360963223      5.67E-09 Convergence criterion met
 Total energy in the final basis set = -1510.13609632
   14   -1510.1895083240      9.47E-09 Convergence criterion met
 Total energy in the final basis set = -1510.18950832
   14   -1510.2178555182      8.71E-09 Convergence criterion met
 Total energy in the final basis set = -1510.21785552
   14   -1510.2342325171      6.28E-09 Convergence criterion met
 Total energy in the final basis set = -1510.23423252
   14   -1510.2436663701      3.60E-09 Convergence criterion met
 Total energy in the final basis set = -1510.24366637
   13   -1510.2492490629      3.71E-09 Convergence criterion met
 Total energy in the final basis set = -1510.24924906
   13   -1510.2526147566      5.41E-09 Convergence criterion met
   10   -1510.2593597589      6.81E-09 Convergence criterion met
 Total energy in the final basis set = -1510.25935976
    9   -1510.2593766798      9.64E-09 Convergence criterion met
 Total energy in the final basis set = -1510.25937668
    9   -1510.2593942277      7.26E-09 Convergence criterion met
 Total energy in the final basis set = -1510.25939423
    9   -1510.2593997068      5.67E-09 Convergence criterion met
 Total energy in the final basis set = -1510.25939971
    9   -1510.2594024893      3.89E-09 Convergence criterion met
 Total energy in the final basis set = -1510.25940249
    9   -1510.2594034939      2.83E-09 Convergence criterion met
 Total energy in the final basis set = -1510.25940349

             Standard Nuclear Orientation (Angstroms)
    I     Atom           X                Y                Z
 ----------------------------------------------------------------
    1      O      -4.8583375954     1.7520777408     1.1014355017
    2      C      -4.8240585327     1.0136272425     0.0953071059
    3      C      -4.6571393275    -0.5494475746     0.0583705174
    4      C      -3.3189015501    -1.0289711284    -0.6466089561
    5      C      -2.4196012593     0.1533482662    -1.1471828812
    6      O      -1.6857915193    -0.2570943563    -2.3235152694
    7      C      -0.2857288068     0.2177197184    -2.2605057851
    8      C       0.5806536738    -0.7570991346    -1.3649925547
    9      O       1.8649367754    -0.2620850286    -0.8079359485
   10      C       1.9740507568     1.1273643771    -0.5054862504
   11      C       2.8895379824     1.3497211196     0.7642464118
   12      C       3.8362741753     0.1555551501     1.1976677853
   13      C       3.3699907262    -1.2894237972     0.7871596310
   14      O       2.4279790112    -1.9350096998     1.2970013395
   15      O      -5.0139351783     1.4639135860    -1.2528071920
   16      O       4.2290288514    -1.7995989730    -0.2411894533
   17      O       1.4205036799     2.0653959496    -1.1234386498
   18      C       3.7777330641    -3.1490284884    -0.6453828121
   19      C       3.9843590843     2.4190626909     0.3421574743
   20      C       4.8513094324     2.8547672355     1.5894638193
   21      C       5.8393555660     1.6352887591     1.7245592406
   22      C       5.2399811540     0.6569947644     0.6414731413
   23      O       4.9009449869     1.5784618320    -0.4680109833
   24      H       2.2393625185     1.6865399592     1.5928788553
   25      H       3.8685351461     0.1419932673     2.3032082302
   26      H       3.5746958703     3.2485753140    -0.2670627650
   27      H       5.3873357902     3.7939097529     1.3806177078
   28      H       4.2291019759     2.9965468586     2.4879676242
   29      H       6.8679026338     1.9221814208     1.4523593645
   30      H       5.8474707651     1.1976122060     2.7355692283
   31      H       5.9101906677    -0.1494796268     0.2880299547
   32      O      -2.2681522234     1.2567509928    -0.5782214183
   33      C      -5.0822166128     2.9417318323    -1.2848462207
   34      C      -4.4674780779    -1.1350923590     1.5164141820
   35      C      -4.7048034616    -2.6938205804     1.4673774569
   36      C      -3.3849783161    -3.1786824115     0.7598865543
   37      C      -2.6245230589    -1.8079703067     0.5589967619
   38      O      -3.0069385760    -1.0134248725     1.7441401417
   39      H      -5.5389364616    -0.9799620078    -0.4502979270
   40      H      -3.5177966189    -1.7036375975    -1.4978446122
   41      H      -4.1166847666     3.3916407948    -0.9744569409
   42      H      -5.0237554541    -0.5835005391     2.2988448641
   43      H      -4.7895937379    -3.1039503654     2.4863202539
   44      H      -5.6131147462    -2.9594091043     0.9033133624
   45      H      -2.7986517962    -3.8478631952     1.4096238640
   46      H      -3.5757909615    -3.6912344329    -0.1964909814
   47      H      -1.5231212702    -1.8947063031     0.4882324103
   48      H      -5.8830007644     3.3300645452    -0.6230738812
   49      H      -5.2989492793     3.2171492673    -2.3333487366
   50      H       4.4662493086    -3.4749128952    -1.4467465736
   51      H       2.7390699854    -3.1308369050    -1.0337225155
   52      H       3.8234660190    -3.8686432786     0.1979129652
   53      H      -0.0428453398    -1.0673656191    -0.4964566206
   54      H       0.8444332196    -1.6730128164    -1.9332271250
   55      H      -0.1973828675     1.2492485630    -1.8547694291
   56      H       0.0921340038     0.2141231273    -3.3019137009
 ----------------------------------------------------------------

    9   -1510.2594041939      2.13E-09 Convergence criterion met
 Total energy in the final basis set = -1510.25940419
 Final energy is   -1510.25940419388
 **  OPTIMIZATION CONVERGED  **

                    Orbital Energies (a.u.)
 --------------------------------------------------------------

 Alpha MOs
 -- Occupied --
-18.944 -18.928 -18.924 -18.924 -18.891 -18.889 -18.889 -18.884
-18.868 -18.860 -10.114 -10.104 -10.096 -10.093 -10.082 -10.066
-10.065 -10.062 -10.058 -10.058 -10.056 -10.056 -10.041 -10.039
-10.035 -10.034 -10.023 -10.020 -10.019 -10.018  -1.020  -1.012
 -1.002  -1.001  -0.972  -0.968  -0.950  -0.940  -0.928  -0.928
 -0.763  -0.762  -0.728  -0.722  -0.710  -0.705  -0.700  -0.658
 -0.656  -0.622  -0.598  -0.588  -0.548  -0.543  -0.539  -0.536
 -0.514  -0.511  -0.483  -0.478  -0.464  -0.459  -0.452  -0.447
 -0.434  -0.431  -0.429  -0.411  -0.409  -0.406  -0.405  -0.400
 -0.393  -0.385  -0.374  -0.367  -0.365  -0.356  -0.353  -0.348
 -0.342  -0.339  -0.337  -0.333  -0.329  -0.328  -0.323  -0.316
 -0.310  -0.308  -0.306  -0.301  -0.298  -0.289  -0.281  -0.278
 -0.273  -0.256  -0.248  -0.247  -0.236  -0.235  -0.232  -0.186
 -0.177  -0.169  -0.168  -0.160  -0.155  -0.147  -0.147  -0.145
 -0.139

          Ground-State Mulliken Net Atomic Charges

     Atom                 Charge (a.u.)
  ----------------------------------------
      1 O                    -0.210502
      2 C                     0.214609
      3 C                    -0.079973
      4 C                    -0.079358
      5 C                     0.213720
      6 O                    -0.180975
      7 C                    -0.062999
      8 C                    -0.048002
      9 O                    -0.172457
     10 C                     0.223632
     11 C                    -0.075148
     12 C                    -0.082184
     13 C                     0.218401
     14 O                    -0.226011
     15 O                    -0.175795
     16 O                    -0.170231
     17 O                    -0.203862
     18 C                    -0.126470
     19 C                     0.023456
     20 C                    -0.145576
     21 C                    -0.142234
     22 C                     0.023105
     23 O                    -0.192276
     24 H                     0.089850
     25 H                     0.082387
     26 H                     0.088173
     27 H                     0.078563
     28 H                     0.073990
     29 H                     0.077450
     30 H                     0.072954
     31 H                     0.090842
     32 O                    -0.197742
     33 C                    -0.128911
     34 C                     0.024766
     35 C                    -0.143989
     36 C                    -0.143183
     37 C                     0.025494
     38 O                    -0.186440
     39 H                     0.084226
     40 H                     0.086860
     41 H                     0.093026
     42 H                     0.090909
     43 H                     0.078802
     44 H                     0.073792
     45 H                     0.079557
     46 H                     0.074082
     47 H                     0.078995
     48 H                     0.088110
     49 H                     0.088114
     50 H                     0.089034
     51 H                     0.084901
     52 H                     0.086756
     53 H                     0.082180
     54 H                     0.088761
     55 H                     0.115980
     56 H                     0.088843
  ----------------------------------------
  Sum of atomic charges =    -0.000000

                    Cartesian Multipole Moments
 -----------------------------------------------------------------
    Charge (ESU x 10^10)
                -0.0000
    Dipole Moment (Debye)
         X       0.1914      Y      -2.3479      Z      -0.4220
       Tot       2.3932
    Quadrupole Moments (Debye-Ang)
        XX    -149.8165     XY       5.0397     YY    -152.7818
        XZ      10.5356     YZ       3.5251     ZZ    -162.5459

 Total job time:  77.33s(wall), 3682.34s(cpu)
        *  Thank you very much for using Q-Chem.  Have a nice day.  *
