 Q-Chem 5.0, Q-Chem, Inc., Pleasanton, CA (2017)
 Q-Chem 5.0.1 for Intel X86 EM64T Linux

User input:
--------------------------------------------------------------
$molecule
0  1
O -6.6306857418 1.0932763683 0.4866547
C -5.6840963116 0.8654053794 -0.2944091732
C -5.0991296177 -0.5275817863 -0.7224499641
C -3.5761077595 -0.6901096754 -0.2969506399
C -2.9358227067 0.6121835409 0.3072682133
O -2.0097582961 1.1758529205 -0.6460665159
C -0.770427913 1.6339016569 0.0259373461
C 0.4388225893 0.8807495852 -0.6327003198
O 1.5862595402 1.0033735164 0.2999870095
C 2.7898951219 0.5556164717 -0.3460569261
C 3.972765481 0.7501571815 0.6689250095
C 5.1190584859 -0.3318746539 0.5784867706
C 4.7713861593 -1.7931236848 0.1217516304
O 5.5753341075 -2.7523091826 0.1282872603
O -4.8821831747 1.8804163257 -0.9123265707
O 3.3699232164 -1.9483980233 -0.1136634476
O 2.8496827376 0.2249376761 -1.5483838326
C 3.0634834674 -3.354688898 -0.4597919413
C 4.7819868189 2.0200999923 0.1428509675
C 5.964436621 2.3744651457 1.1313294717
C 7.0523121072 1.315782963 0.7116823018
C 6.2166667992 0.4334538947 -0.2936711852
O 5.4561440122 1.4538399083 -1.0502392263
H 3.5748114133 0.8682097684 1.6913248691
H 5.5345623136 -0.4669383593 1.5953371107
H 4.1415010766 2.8766474365 -0.1445620262
H 6.312173613 3.4061273769 0.9653023933
H 5.6588631799 2.2713036273 2.1851158176
H 7.8961288576 1.7946008281 0.1887704583
H 7.4433900579 0.7375113198 1.5637652035
H 6.8036227058 -0.2106201194 -0.9767307996
O -3.0761473493 1.0409026037 1.472996571
C -5.2950801045 3.2198207637 -0.4349080738
C -5.7736648166 -1.6823992783 0.1220616532
C -5.3696629762 -3.0763479919 -0.4997261003
C -3.8824005804 -3.2149594646 -0.0012643393
C -3.697676128 -1.8543874893 0.7805518684
O -5.0221273556 -1.6313719636 1.3991247928
H -5.2261161581 -0.6617387371 -1.8122167362
H -2.9601774522 -0.9962805057 -1.1601435823
H -5.1119230168 3.3311920955 0.6536285546
H -6.8546811481 -1.5308231387 0.3077792657
H -6.0077568851 -3.8792071126 -0.0980320803
H -5.45012252 -3.0770564768 -1.5985670876
H -3.7657051486 -4.0685471631 0.6855008014
H -3.161593998 -3.3238560859 -0.8271807907
H -2.9055486257 -1.8534085839 1.5544681647
H -6.3684528184 3.4125934861 -0.6358157702
H -4.674842697 3.9463121369 -0.9911422027
H 1.966481326 -3.4025182794 -0.5880496433
H 3.3770092389 -4.051149397 0.3447667314
H 3.560268604 -3.6588302807 -1.4034034543
H 0.173265437 -0.1897739846 -0.7803782254
H 0.6837505902 1.3086465414 -1.6280902458
H -0.8106160792 1.4243920749 1.1162836368
H -0.6552511744 2.7309959751 -0.1095366178
$end

$rem
JOBTYPE                   OPT
METHOD                    B3LYP
DFT_D                     d3_op
BASIS                     STO-3G
GEOM_OPT_MAX_CYCLES       100
GEOM_OPT_TOL_GRADIENT     300
GEOM_OPT_TOL_DISPLACEMENT 1200
GEOM_OPT_TOL_ENERGY       100
SYMMETRY                  False
THRESH                    12
SCF_CONVERGENCE           8
MAX_SUB_FILE_NUM          128
MEM_STATIC                400
MEM_TOTAL                 4000
$end
--------------------------------------------------------------

   16   -1510.2621204652      5.32E-09 Convergence criterion met
 Total energy in the final basis set = -1510.26212047
   14   -1510.2673666055      6.84E-09 Convergence criterion met
 Total energy in the final basis set = -1510.26736661
   14   -1510.2716815723      8.55E-09 Convergence criterion met
 Total energy in the final basis set = -1510.27168157
   15   -1510.2750957136      2.77E-09 Convergence criterion met
 Total energy in the final basis set = -1510.27509571
   14   -1510.2774227578      7.09E-09 Convergence criterion met
 Total energy in the final basis set = -1510.27742276
   14   -1510.2791113590      3.41E-09 Convergence criterion met
 Total energy in the final basis set = -1510.27911136
   14   -1510.2806014980      3.58E-09 Convergence criterion met
 Total energy in the final basis set = -1510.28060150
   14   -1510.2817318349      3.58E-09 Convergence criterion met
   13   -1510.2914337734      3.68E-09 Convergence criterion met
 Total energy in the final basis set = -1510.29143377
   13   -1510.2914823489      2.27E-09 Convergence criterion met
 Total energy in the final basis set = -1510.29148235
   12   -1510.2915439435      3.35E-09 Convergence criterion met
 Total energy in the final basis set = -1510.29154394
   12   -1510.2915620602      2.79E-09 Convergence criterion met
 Total energy in the final basis set = -1510.29156206
   11   -1510.2915713533      6.71E-09 Convergence criterion met
 Total energy in the final basis set = -1510.29157135
   10   -1510.2915706253      9.19E-09 Convergence criterion met
 Total energy in the final basis set = -1510.29157063

             Standard Nuclear Orientation (Angstroms)
    I     Atom           X                Y                Z
 ----------------------------------------------------------------
    1      O      -4.7728074247    -0.0136739820     2.4384530412
    2      C      -4.4941650264     0.2650771750     1.2542734146
    3      C      -4.8199354494    -0.5724610845    -0.0329055823
    4      C      -3.5555605962    -0.8105500484    -0.9636479855
    5      C      -2.2494520497    -0.1615123899    -0.3946710799
    6      O      -1.8048354975     0.8368302403    -1.3170945532
    7      C      -0.5743319531     1.5027125123    -0.8215869493
    8      C       0.6211279799     1.1798425829    -1.7834287877
    9      O       1.8633556796     1.6951327618    -1.1605618367
   10      C       2.8512533092     0.6530233443    -1.0847352953
   11      C       4.0881730171     1.2278927171    -0.3187156757
   12      C       4.3446985432     0.5269211591     1.0834510671
   13      C       3.3749452963    -0.6737379525     1.3815394699
   14      O       3.6979467805    -1.8285807201     1.7317867086
   15      O      -3.8028292199     1.4526734428     0.8418476900
   16      O       2.0266816185    -0.2346774993     1.1909997430
   17      O       2.7150191188    -0.4809737760    -1.5935979484
   18      C       1.0911898914    -1.3745493925     1.3572536003
   19      C       5.4570398554     0.9047772988    -1.0615254322
   20      C       6.5654457625     1.8680662880    -0.4815941642
   21      C       6.8188205401     1.2212440654     0.9310549332
   22      C       5.8235818473    -0.0039683432     0.8906561432
   23      O       5.8390154220    -0.4226506341    -0.5313945519
   24      H       3.9356599997     2.3144593011    -0.1968910649
   25      H       4.2649697530     1.2590129873     1.9082429719
   26      H       5.3843764751     0.8741815483    -2.1659283342
   27      H       7.4702389387     1.8332470385    -1.1090091735
   28      H       6.2184305561     2.9116865469    -0.4175320211
   29      H       7.8579028292     0.8704078201     1.0341849558
   30      H       6.5955187220     1.9107200840     1.7610464602
   31      H       6.0776168063    -0.8593314695     1.5465828629
   32      O      -1.6604805901    -0.4643905257     0.6697511807
   33      C      -3.3403285971     2.2133778013     2.0244624952
   34      C      -5.2115372805    -2.0605713048     0.3417911288
   35      C      -5.8880095757    -2.7335164304    -0.9156037966
   36      C      -4.6370715409    -2.9710048159    -1.8417237479
   37      C      -3.4741342355    -2.3992005036    -0.9388052975
   38      O      -3.8987789585    -2.7410404319     0.4370016637
   39      H      -5.6253864753    -0.0610917571    -0.5917809613
   40      H      -3.7211616558    -0.4165922835    -1.9813057660
   41      H      -2.5644620226     1.6482598408     2.5811036097
   42      H      -5.7635913454    -2.1499107599     1.2976735400
   43      H      -6.3671585216    -3.6840466510    -0.6322047684
   44      H      -6.6445054502    -2.0807078802    -1.3795501571
   45      H      -4.4771678110    -4.0434062938    -2.0368069915
   46      H      -4.7140880929    -2.4443357797    -2.8063498021
   47      H      -2.4674876876    -2.8108201773    -1.1469256985
   48      H      -4.1763079577     2.4447605711     2.7147719779
   49      H      -2.9054414621     3.1517157946     1.6341454637
   50      H       0.0737926265    -0.9875666240     1.1253013152
   51      H       1.1188403619    -1.7655007631     2.3941462809
   52      H       1.3497132763    -2.2001683348     0.6643797279
   53      H       0.7285872219     0.0832969717    -1.9375466824
   54      H       0.4733458522     1.6722124239    -2.7678746443
   55      H      -0.3468145356     1.1380798983     0.2025813450
   56      H      -0.7678002086     2.5949240630    -0.7950140228
 ----------------------------------------------------------------

   11   -1510.2915714020      4.05E-09 Convergence criterion met
 Total energy in the final basis set = -1510.29157140
 Final energy is   -1510.29157140200
 **  OPTIMIZATION CONVERGED  **

                    Orbital Energies (a.u.)
 --------------------------------------------------------------

 Alpha MOs
 -- Occupied --
-18.942 -18.940 -18.929 -18.925 -18.891 -18.885 -18.884 -18.883
-18.871 -18.870 -10.111 -10.106 -10.098 -10.093 -10.071 -10.069
-10.067 -10.064 -10.061 -10.058 -10.055 -10.044 -10.043 -10.039
-10.036 -10.034 -10.023 -10.022 -10.019 -10.017  -1.023  -1.014
 -1.010  -1.001  -0.973  -0.967  -0.946  -0.943  -0.933  -0.928
 -0.768  -0.761  -0.729  -0.723  -0.714  -0.705  -0.696  -0.667
 -0.648  -0.619  -0.598  -0.579  -0.550  -0.542  -0.541  -0.535
 -0.515  -0.506  -0.484  -0.474  -0.467  -0.459  -0.457  -0.447
 -0.439  -0.432  -0.428  -0.419  -0.417  -0.408  -0.401  -0.399
 -0.395  -0.383  -0.380  -0.364  -0.363  -0.359  -0.355  -0.353
 -0.348  -0.337  -0.335  -0.332  -0.329  -0.326  -0.323  -0.313
 -0.309  -0.307  -0.304  -0.300  -0.291  -0.289  -0.282  -0.277
 -0.269  -0.259  -0.256  -0.246  -0.243  -0.237  -0.231  -0.188
 -0.183  -0.170  -0.168  -0.166  -0.158  -0.156  -0.147  -0.146
 -0.141

          Ground-State Mulliken Net Atomic Charges

     Atom                 Charge (a.u.)
  ----------------------------------------
      1 O                    -0.204537
      2 C                     0.214083
      3 C                    -0.078173
      4 C                    -0.078355
      5 C                     0.221336
      6 O                    -0.168242
      7 C                    -0.054681
      8 C                    -0.055367
      9 O                    -0.174335
     10 C                     0.214865
     11 C                    -0.079378
     12 C                    -0.078354
     13 C                     0.211508
     14 O                    -0.209019
     15 O                    -0.172657
     16 O                    -0.177293
     17 O                    -0.216510
     18 C                    -0.145261
     19 C                     0.025536
     20 C                    -0.143651
     21 C                    -0.144447
     22 C                     0.024190
     23 O                    -0.186755
     24 H                     0.085450
     25 H                     0.083924
     26 H                     0.083295
     27 H                     0.077779
     28 H                     0.072907
     29 H                     0.078109
     30 H                     0.072733
     31 H                     0.091245
     32 O                    -0.221371
     33 C                    -0.129341
     34 C                     0.024463
     35 C                    -0.143937
     36 C                    -0.143743
     37 C                     0.025756
     38 O                    -0.185975
     39 H                     0.086262
     40 H                     0.088131
     41 H                     0.093066
     42 H                     0.091504
     43 H                     0.079373
     44 H                     0.073440
     45 H                     0.079527
     46 H                     0.074137
     47 H                     0.084643
     48 H                     0.092349
     49 H                     0.090353
     50 H                     0.110200
     51 H                     0.083126
     52 H                     0.085645
     53 H                     0.100211
     54 H                     0.082717
     55 H                     0.103106
     56 H                     0.086413
  ----------------------------------------
  Sum of atomic charges =     0.000000

                    Cartesian Multipole Moments
 -----------------------------------------------------------------
    Charge (ESU x 10^10)
                -0.0000
    Dipole Moment (Debye)
         X      -1.9541      Y       3.6664      Z      -1.4970
       Tot       4.4161
    Quadrupole Moments (Debye-Ang)
        XX    -149.8450     XY      13.1172     YY    -159.6041
        XZ      11.6128     YZ       6.6435     ZZ    -160.7325

 Total job time:  90.12s(wall), 4291.21s(cpu)
        *  Thank you very much for using Q-Chem.  Have a nice day.  *
