 Q-Chem 5.0, Q-Chem, Inc., Pleasanton, CA (2017)
 Q-Chem 5.0.1 for Intel X86 EM64T Linux

User input:
--------------------------------------------------------------
$molecule
0  1
O -3.94934 -3.66094 2.70899
C -3.26408 -4.56952 2.26188
C -3.36658 -6.02376 2.66595
C -2.12497 -6.66369 3.3084
C -0.97988 -5.73177 3.63762
O 0.05279 -5.94045 2.76844
C 1.33424 -5.94238 3.40651
C 2.04979 -7.26359 3.14472
O 3.11635 -7.43835 4.09065
C 3.9689 -8.45929 3.82614
C 5.0904 -8.56491 4.83199
C 5.56754 -9.99555 5.12165
C 5.12319 -11.05347 4.13167
O 5.30346 -12.25668 4.2515
O -2.35116 -4.28821 1.29567
O 4.3541 -10.82277 3.04446
O 4.2516 -8.60404 2.63958
C 3.91941 -11.74891 2.11102
C 6.421 -7.92758 4.37344
C 7.26568 -7.56824 5.59539
C 7.66152 -8.94864 6.08258
C 7.08281 -9.81414 4.95666
O 7.15629 -8.99107 3.8168
H 4.75939 -8.04957 5.76351
H 5.24304 -10.33969 6.12821
H 6.27961 -7.03504 3.72545
H 8.17613 -7.05194 5.21441
H 6.77195 -6.92192 6.3526
H 8.77225 -9.00802 6.10385
H 7.24305 -9.24178 7.06994
H 7.6196 -10.78654 4.89237
O -1.02045 -4.81488 4.44805
C -2.12262 -3.02771 0.78555
C -4.39595 -6.26313 3.79246
C -4.85751 -7.72129 3.78261
C -3.62838 -8.41179 4.33512
C -2.73086 -7.20284 4.61308
O -3.63796 -6.18975 4.97603
H -3.68764 -6.57174 1.75169
H -1.73251 -7.48469 2.66444
H -1.78752 -2.34298 1.5937
H -5.27967 -5.59101 3.73249
H -5.68027 -7.81954 4.52655
H -5.20838 -8.09073 2.79503
H -3.90309 -8.90529 5.29405
H -3.14948 -9.14862 3.65454
H -1.95356 -7.46033 5.36654
H -3.04835 -2.63134 0.31605
H -1.3278 -3.08643 0.01405
H 3.31675 -11.22945 1.33845
H 3.28595 -12.52016 2.59894
H 4.79067 -12.23104 1.61768
H 1.33445 -8.10312 3.29322
H 2.38413 -7.25461 2.08316
H 1.24524 -5.83864 4.51547
H 1.95634 -5.09584 3.04558
$end

$opt
CONSTRAINT
tors           1           2           3           4    -118.365
tors           3           4           5           6    -107.760
tors           4           5           6           7    -137.763
tors           5           6           7           8    +122.266
tors           6           7           8           9    -162.353
tors           7           8           9          10    -169.303
tors           8           9          10          11    +178.253
tors           9          10          11          12    +146.403
tors          11          12          13          14    -173.405
ENDCONSTRAINT
$end

$rem
JOBTYPE                   OPT
METHOD                    B3LYP
DFT_D                     d3_op
BASIS                     STO-3G
GEOM_OPT_MAX_CYCLES       100
GEOM_OPT_TOL_GRADIENT     300
GEOM_OPT_TOL_DISPLACEMENT 1200
GEOM_OPT_TOL_ENERGY       100
SYMMETRY                  False
THRESH                    12
SCF_CONVERGENCE           8
MAX_SUB_FILE_NUM          128
MEM_STATIC                400
MEM_TOTAL                 4000
$end
--------------------------------------------------------------

   15   -1510.0800614440      9.48E-09 Convergence criterion met
 Total energy in the final basis set = -1510.08006144
   14   -1510.1600278178      6.92E-09 Convergence criterion met
 Total energy in the final basis set = -1510.16002782
   14   -1510.2033115213      5.71E-09 Convergence criterion met
 Total energy in the final basis set = -1510.20331152
   14   -1510.2308257421      7.36E-09 Convergence criterion met
 Total energy in the final basis set = -1510.23082574
   14   -1510.2434004773      3.10E-09 Convergence criterion met
 Total energy in the final basis set = -1510.24340048
   14   -1510.2501246813      2.60E-09 Convergence criterion met
 Total energy in the final basis set = -1510.25012468
   13   -1510.2540231267      3.23E-09 Convergence criterion met
 Total energy in the final basis set = -1510.25402313
   13   -1510.2562186513      2.59E-09 Convergence criterion met
   11   -1510.2620817234      4.48E-09 Convergence criterion met
 Total energy in the final basis set = -1510.26208172
   11   -1510.2620931552      3.12E-09 Convergence criterion met
 Total energy in the final basis set = -1510.26209316
   10   -1510.2621017492      6.53E-09 Convergence criterion met
 Total energy in the final basis set = -1510.26210175
    9   -1510.2621043949      9.70E-09 Convergence criterion met
 Total energy in the final basis set = -1510.26210439
   10   -1510.2621067959      3.23E-09 Convergence criterion met
 Total energy in the final basis set = -1510.26210680
    9   -1510.2621042230      6.90E-09 Convergence criterion met
 Total energy in the final basis set = -1510.26210422

             Standard Nuclear Orientation (Angstroms)
    I     Atom           X                Y                Z
 ----------------------------------------------------------------
    1      O      -6.6306857418     1.0932763683     0.4866547000
    2      C      -5.6840963116     0.8654053794    -0.2944091732
    3      C      -5.0991296177    -0.5275817863    -0.7224499641
    4      C      -3.5761077595    -0.6901096754    -0.2969506399
    5      C      -2.9358227067     0.6121835409     0.3072682133
    6      O      -2.0097582961     1.1758529205    -0.6460665159
    7      C      -0.7704279130     1.6339016569     0.0259373461
    8      C       0.4388225893     0.8807495852    -0.6327003198
    9      O       1.5862595402     1.0033735164     0.2999870095
   10      C       2.7898951219     0.5556164717    -0.3460569261
   11      C       3.9727654810     0.7501571815     0.6689250095
   12      C       5.1190584859    -0.3318746539     0.5784867706
   13      C       4.7713861593    -1.7931236848     0.1217516304
   14      O       5.5753341075    -2.7523091826     0.1282872603
   15      O      -4.8821831747     1.8804163257    -0.9123265707
   16      O       3.3699232164    -1.9483980233    -0.1136634476
   17      O       2.8496827376     0.2249376761    -1.5483838326
   18      C       3.0634834674    -3.3546888980    -0.4597919413
   19      C       4.7819868189     2.0200999923     0.1428509675
   20      C       5.9644366210     2.3744651457     1.1313294717
   21      C       7.0523121072     1.3157829630     0.7116823018
   22      C       6.2166667992     0.4334538947    -0.2936711852
   23      O       5.4561440122     1.4538399083    -1.0502392263
   24      H       3.5748114133     0.8682097684     1.6913248691
   25      H       5.5345623136    -0.4669383593     1.5953371107
   26      H       4.1415010766     2.8766474365    -0.1445620262
   27      H       6.3121736130     3.4061273769     0.9653023933
   28      H       5.6588631799     2.2713036273     2.1851158176
   29      H       7.8961288576     1.7946008281     0.1887704583
   30      H       7.4433900579     0.7375113198     1.5637652035
   31      H       6.8036227058    -0.2106201194    -0.9767307996
   32      O      -3.0761473493     1.0409026037     1.4729965710
   33      C      -5.2950801045     3.2198207637    -0.4349080738
   34      C      -5.7736648166    -1.6823992783     0.1220616532
   35      C      -5.3696629762    -3.0763479919    -0.4997261003
   36      C      -3.8824005804    -3.2149594646    -0.0012643393
   37      C      -3.6976761280    -1.8543874893     0.7805518684
   38      O      -5.0221273556    -1.6313719636     1.3991247928
   39      H      -5.2261161581    -0.6617387371    -1.8122167362
   40      H      -2.9601774522    -0.9962805057    -1.1601435823
   41      H      -5.1119230168     3.3311920955     0.6536285546
   42      H      -6.8546811481    -1.5308231387     0.3077792657
   43      H      -6.0077568851    -3.8792071126    -0.0980320803
   44      H      -5.4501225200    -3.0770564768    -1.5985670876
   45      H      -3.7657051486    -4.0685471631     0.6855008014
   46      H      -3.1615939980    -3.3238560859    -0.8271807907
   47      H      -2.9055486257    -1.8534085839     1.5544681647
   48      H      -6.3684528184     3.4125934861    -0.6358157702
   49      H      -4.6748426970     3.9463121369    -0.9911422027
   50      H       1.9664813260    -3.4025182794    -0.5880496433
   51      H       3.3770092389    -4.0511493970     0.3447667314
   52      H       3.5602686040    -3.6588302807    -1.4034034543
   53      H       0.1732654370    -0.1897739846    -0.7803782254
   54      H       0.6837505902     1.3086465414    -1.6280902458
   55      H      -0.8106160792     1.4243920749     1.1162836368
   56      H      -0.6552511744     2.7309959751    -0.1095366178
 ----------------------------------------------------------------

    9   -1510.2621042802      5.44E-09 Convergence criterion met
 Total energy in the final basis set = -1510.26210428
 Final energy is   -1510.26210428019
 **  OPTIMIZATION CONVERGED  **

                    Orbital Energies (a.u.)
 --------------------------------------------------------------

 Alpha MOs
 -- Occupied --
-18.939 -18.936 -18.928 -18.918 -18.890 -18.889 -18.880 -18.880
-18.872 -18.870 -10.101 -10.101 -10.100 -10.096 -10.072 -10.070
-10.067 -10.064 -10.062 -10.062 -10.061 -10.059 -10.039 -10.039
-10.038 -10.038 -10.023 -10.023 -10.021 -10.021  -1.015  -1.014
 -1.007  -1.004  -0.972  -0.971  -0.938  -0.938  -0.936  -0.929
 -0.765  -0.764  -0.728  -0.724  -0.713  -0.706  -0.697  -0.664
 -0.662  -0.617  -0.599  -0.579  -0.547  -0.546  -0.539  -0.539
 -0.516  -0.511  -0.486  -0.473  -0.464  -0.455  -0.455  -0.446
 -0.445  -0.433  -0.430  -0.414  -0.414  -0.412  -0.410  -0.400
 -0.389  -0.384  -0.375  -0.369  -0.362  -0.359  -0.352  -0.349
 -0.344  -0.342  -0.336  -0.333  -0.331  -0.330  -0.322  -0.315
 -0.311  -0.308  -0.307  -0.296  -0.293  -0.291  -0.282  -0.276
 -0.273  -0.255  -0.254  -0.247  -0.244  -0.235  -0.235  -0.182
 -0.179  -0.171  -0.169  -0.160  -0.154  -0.151  -0.150  -0.145
 -0.142

          Ground-State Mulliken Net Atomic Charges

     Atom                 Charge (a.u.)
  ----------------------------------------
      1 O                    -0.205065
      2 C                     0.212039
      3 C                    -0.077750
      4 C                    -0.079658
      5 C                     0.213809
      6 O                    -0.182557
      7 C                    -0.048886
      8 C                    -0.048419
      9 O                    -0.177574
     10 C                     0.216437
     11 C                    -0.077708
     12 C                    -0.080131
     13 C                     0.209179
     14 O                    -0.216911
     15 O                    -0.169761
     16 O                    -0.167050
     17 O                    -0.208751
     18 C                    -0.126286
     19 C                     0.025049
     20 C                    -0.145599
     21 C                    -0.141256
     22 C                     0.026460
     23 O                    -0.186251
     24 H                     0.086610
     25 H                     0.084596
     26 H                     0.082081
     27 H                     0.078720
     28 H                     0.074020
     29 H                     0.078547
     30 H                     0.074673
     31 H                     0.087808
     32 O                    -0.206975
     33 C                    -0.128465
     34 C                     0.024465
     35 C                    -0.144519
     36 C                    -0.143404
     37 C                     0.025306
     38 O                    -0.185676
     39 H                     0.085758
     40 H                     0.084962
     41 H                     0.092945
     42 H                     0.090135
     43 H                     0.078778
     44 H                     0.073479
     45 H                     0.078324
     46 H                     0.072860
     47 H                     0.083990
     48 H                     0.090028
     49 H                     0.091625
     50 H                     0.089727
     51 H                     0.089874
     52 H                     0.091660
     53 H                     0.082953
     54 H                     0.092426
     55 H                     0.095110
     56 H                     0.084217
  ----------------------------------------
  Sum of atomic charges =     0.000000

                    Cartesian Multipole Moments
 -----------------------------------------------------------------
    Charge (ESU x 10^10)
                 0.0000
    Dipole Moment (Debye)
         X       0.5907      Y      -0.2418      Z      -0.3794
       Tot       0.7425
    Quadrupole Moments (Debye-Ang)
        XX    -170.2874     XY       9.2644     YY    -148.6598
        XZ      23.2842     YZ       3.0392     ZZ    -166.4220

 Total job time:  79.50s(wall), 3781.16s(cpu)
        *  Thank you very much for using Q-Chem.  Have a nice day.  *
