 Q-Chem 5.0, Q-Chem, Inc., Pleasanton, CA (2017)
 Q-Chem 5.0.1 for Intel X86 EM64T Linux

User input:
--------------------------------------------------------------
$molecule
0  1
O -3.94934 -3.66094 2.70899
C -3.26408 -4.56952 2.26188
C -3.36658 -6.02376 2.66595
C -2.35915 -6.53607 3.7083
C -1.47672 -5.49559 4.3616
O -0.44456 -6.10657 5.01487
C -0.16952 -5.53067 6.29625
C 0.28071 -4.08232 6.13588
O 0.57609 -3.51632 7.42245
C 0.96546 -2.21731 7.41254
C 0.50903 -1.45693 8.63489
C 0.79083 -2.15437 9.97371
C 1.77979 -3.30169 9.9258
O 1.80274 -4.18279 9.07863
O -2.26121 -4.26907 1.3948
O 2.79375 -3.28227 10.83416
O 1.66026 -1.73206 6.52952
C 3.80675 -4.21646 10.89797
C 1.17776 -0.08833 8.87045
C 0.2385 0.79983 9.6826
C 0.28465 0.10427 11.02845
C 1.36351 -0.95354 10.75789
O 2.20229 -0.35149 9.79999
H -0.58738 -1.31576 8.4975
H -0.14324 -2.57713 10.40447
H 1.48201 0.43008 7.93564
H 0.73875 1.79064 9.77658
H -0.77881 0.94515 9.2597
H 0.62325 0.84084 11.79051
H -0.66773 -0.36979 11.35097
H 1.84247 -1.24691 11.71671
O -1.4946 -4.31192 4.07938
C -1.98246 -2.99728 0.93989
C -4.6786 -6.3012 3.44205
C -5.03611 -7.78545 3.36116
C -3.98769 -8.37757 4.27724
C -3.30606 -7.10043 4.77645
O -4.33689 -6.14617 4.79742
H -3.40341 -6.62372 1.72909
H -1.68896 -7.30461 3.26089
H -1.7234 -2.33371 1.79253
H -5.53813 -5.69313 3.08312
H -6.03347 -7.90945 3.84119
H -5.0688 -8.21164 2.33547
H -4.50443 -8.89562 5.11564
H -3.26571 -9.06836 3.79019
H -2.79436 -7.28897 5.74607
H -2.85885 -2.58505 0.39554
H -1.1182 -3.04054 0.24592
H 4.48992 -3.95552 11.73202
H 4.38516 -4.21924 9.94941
H 3.38399 -5.2269 11.0839
H 1.18124 -4.05137 5.48233
H -0.49503 -3.41199 5.74178
H 0.65022 -6.10945 6.77194
H -1.06616 -5.59032 6.95323
$end

$opt
CONSTRAINT
tors           1           2           3           4     -98.121
tors           3           4           5           6    -166.050
tors           4           5           6           7    -137.918
tors           5           6           7           8     -63.314
tors           6           7           8           9    -179.067
tors           7           8           9          10    -178.832
tors           8           9          10          11    +146.551
tors           9          10          11          12     +48.542
tors          11          12          13          14     -44.143
ENDCONSTRAINT
$end

$rem
JOBTYPE                   OPT
METHOD                    B3LYP
DFT_D                     d3_op
BASIS                     STO-3G
GEOM_OPT_MAX_CYCLES       100
GEOM_OPT_TOL_GRADIENT     300
GEOM_OPT_TOL_DISPLACEMENT 1200
GEOM_OPT_TOL_ENERGY       100
SYMMETRY                  False
THRESH                    12
SCF_CONVERGENCE           8
MAX_SUB_FILE_NUM          128
MEM_STATIC                400
MEM_TOTAL                 4000
$end
--------------------------------------------------------------

   15   -1510.1162041388      8.27E-09 Convergence criterion met
 Total energy in the final basis set = -1510.11620414
   14   -1510.1881064330      5.48E-09 Convergence criterion met
 Total energy in the final basis set = -1510.18810643
   14   -1510.2284005940      5.64E-09 Convergence criterion met
 Total energy in the final basis set = -1510.22840059
   14   -1510.2489903335      5.56E-09 Convergence criterion met
 Total energy in the final basis set = -1510.24899033
   13   -1510.2566784959      7.50E-09 Convergence criterion met
 Total energy in the final basis set = -1510.25667850
   13   -1510.2597080541      5.67E-09 Convergence criterion met
 Total energy in the final basis set = -1510.25970805
   13   -1510.2609159262      2.68E-09 Convergence criterion met
 Total energy in the final basis set = -1510.26091593
   12   -1510.2612674460      5.14E-09 Convergence criterion met
   11   -1510.2618882035      2.81E-09 Convergence criterion met
 Total energy in the final basis set = -1510.26188820
   10   -1510.2618986540      9.65E-09 Convergence criterion met
 Total energy in the final basis set = -1510.26189865
    9   -1510.2619047543      6.33E-09 Convergence criterion met
 Total energy in the final basis set = -1510.26190475
    9   -1510.2619082543      5.60E-09 Convergence criterion met
 Total energy in the final basis set = -1510.26190825
    9   -1510.2619099361      3.50E-09 Convergence criterion met
 Total energy in the final basis set = -1510.26190994
    9   -1510.2619109974      4.62E-09 Convergence criterion met
 Total energy in the final basis set = -1510.26191100

             Standard Nuclear Orientation (Angstroms)
    I     Atom           X                Y                Z
 ----------------------------------------------------------------
    1      O      -4.3235292990     2.2635136691     1.0541880178
    2      C      -4.6812586064     1.6308538461     0.0387550880
    3      C      -5.2403716011     0.1600587351    -0.0273456147
    4      C      -4.1584618936    -0.9299486335    -0.4153155081
    5      C      -2.7448445273    -0.3476549803    -0.7492166979
    6      O      -1.9698064404    -1.3783560494    -1.3914625082
    7      C      -0.5704169991    -1.4146674854    -0.8964425310
    8      C       0.2575582271    -0.1131170336    -1.1965254283
    9      O       1.6118281887    -0.3704093343    -0.6446566650
   10      C       2.4516475149     0.7753121728    -0.8415598692
   11      C       3.4610273244     0.9110825023     0.3557436637
   12      C       4.2965088188    -0.3507276618     0.8389178933
   13      C       4.3897922631    -1.5504366019    -0.1870461018
   14      O       3.4863257140    -2.0553369302    -0.8853095060
   15      O      -4.6999094878     2.1669668348    -1.2915200011
   16      O       5.7265220637    -2.0735203251    -0.1624416789
   17      O       2.3085627229     1.6063581544    -1.7646692835
   18      C       5.8317759498    -3.2296968030    -1.0807953779
   19      C       4.6090813623     1.9759731392     0.0964441046
   20      C       4.9871836798     2.6115147480     1.4877866371
   21      C       5.6878273184     1.3845635735     2.1824115818
   22      C       5.7218843606     0.3313769117     1.0026552035
   23      O       5.8025130126     1.1588402583    -0.2252132107
   24      H       2.8323636554     1.2470367815     1.2033591587
   25      H       3.9001538677    -0.7463771801     1.7926934818
   26      H       4.3822142845     2.6859677976    -0.7231169654
   27      H       5.6892639265     3.4492170747     1.3486783456
   28      H       4.1072727911     2.9750094338     2.0420425954
   29      H       6.7097858548     1.6308730943     2.5109082968
   30      H       5.1201792014     1.0098677802     3.0494133128
   31      H       6.5560793493    -0.3939079734     1.0361593811
   32      O      -2.3261957723     0.7937400559    -0.4497272236
   33      C      -4.0971103234     3.5185577678    -1.2937380553
   34      C      -5.6436579879    -0.3324974180     1.4259705227
   35      C      -6.5145763029    -1.6436427031     1.2981907064
   36      C      -5.4126476425    -2.7089480921     0.9409194186
   37      C      -4.1170424830    -1.8069706895     0.9149366639
   38      O      -4.3582585494    -0.8174915064     1.9857339519
   39      H      -6.0914153054     0.1354835528    -0.7308443658
   40      H      -4.4877334196    -1.5436944593    -1.2730879455
   41      H      -3.0356286221     3.4840875291    -0.9730736914
   42      H      -6.0643509043     0.4615879958     2.0724239038
   43      H      -7.0078389348    -1.8762616143     2.2551455692
   44      H      -7.2849544522    -1.5520608701     0.5159058389
   45      H      -5.3266531300    -3.4797116687     1.7235453389
   46      H      -5.5936985480    -3.2049321557    -0.0259215342
   47      H      -3.1638195744    -2.3456010554     1.0814593568
   48      H      -4.6456551686     4.2135731279    -0.6255424186
   49      H      -4.1577583543     3.8811413083    -2.3364071981
   50      H       6.8791794522    -3.5770174660    -1.0127198820
   51      H       5.6033069414    -2.9424939597    -2.1274094915
   52      H       5.1475456528    -4.0513079491    -0.7851701024
   53      H       0.2917948507     0.0777646693    -2.2912464385
   54      H      -0.2378340356     0.7513489554    -0.7029685348
   55      H      -0.1027576937    -2.2815707060    -1.4062305010
   56      H      -0.5583097893    -1.6032370432     0.1998942035
 ----------------------------------------------------------------

    9   -1510.2619116896      4.97E-09 Convergence criterion met
 Total energy in the final basis set = -1510.26191169
 Final energy is   -1510.26191168957
 **  OPTIMIZATION CONVERGED  **

                    Orbital Energies (a.u.)
 --------------------------------------------------------------

 Alpha MOs
 -- Occupied --
-18.932 -18.932 -18.923 -18.922 -18.899 -18.890 -18.882 -18.875
-18.874 -18.863 -10.113 -10.098 -10.097 -10.091 -10.076 -10.065
-10.063 -10.062 -10.059 -10.055 -10.054 -10.053 -10.042 -10.038
-10.034 -10.034 -10.023 -10.021 -10.017 -10.016  -1.018  -1.011
 -1.004  -0.999  -0.973  -0.966  -0.948  -0.935  -0.930  -0.925
 -0.764  -0.759  -0.726  -0.720  -0.713  -0.704  -0.695  -0.659
 -0.655  -0.614  -0.596  -0.583  -0.547  -0.541  -0.539  -0.534
 -0.515  -0.509  -0.479  -0.473  -0.460  -0.455  -0.453  -0.446
 -0.438  -0.430  -0.427  -0.412  -0.410  -0.407  -0.404  -0.396
 -0.387  -0.383  -0.372  -0.370  -0.359  -0.356  -0.352  -0.349
 -0.345  -0.339  -0.333  -0.332  -0.329  -0.328  -0.319  -0.313
 -0.309  -0.306  -0.304  -0.303  -0.293  -0.285  -0.278  -0.273
 -0.271  -0.255  -0.253  -0.246  -0.242  -0.236  -0.230  -0.181
 -0.176  -0.173  -0.167  -0.160  -0.150  -0.147  -0.146  -0.142
 -0.139

          Ground-State Mulliken Net Atomic Charges

     Atom                 Charge (a.u.)
  ----------------------------------------
      1 O                    -0.213596
      2 C                     0.214276
      3 C                    -0.081399
      4 C                    -0.078433
      5 C                     0.218336
      6 O                    -0.178496
      7 C                    -0.046165
      8 C                    -0.056683
      9 O                    -0.170215
     10 C                     0.212538
     11 C                    -0.080325
     12 C                    -0.075500
     13 C                     0.208850
     14 O                    -0.207510
     15 O                    -0.175344
     16 O                    -0.171319
     17 O                    -0.208096
     18 C                    -0.127691
     19 C                     0.021885
     20 C                    -0.142532
     21 C                    -0.145978
     22 C                     0.022173
     23 O                    -0.192385
     24 H                     0.082635
     25 H                     0.084664
     26 H                     0.090475
     27 H                     0.077668
     28 H                     0.072905
     29 H                     0.077436
     30 H                     0.072038
     31 H                     0.093324
     32 O                    -0.196588
     33 C                    -0.128568
     34 C                     0.025510
     35 C                    -0.144536
     36 C                    -0.142803
     37 C                     0.025331
     38 O                    -0.187513
     39 H                     0.084583
     40 H                     0.088123
     41 H                     0.092253
     42 H                     0.088381
     43 H                     0.078496
     44 H                     0.073997
     45 H                     0.078584
     46 H                     0.074747
     47 H                     0.081676
     48 H                     0.086644
     49 H                     0.087392
     50 H                     0.090003
     51 H                     0.090673
     52 H                     0.087669
     53 H                     0.088586
     54 H                     0.099055
     55 H                     0.097274
     56 H                     0.083493
  ----------------------------------------
  Sum of atomic charges =     0.000000

                    Cartesian Multipole Moments
 -----------------------------------------------------------------
    Charge (ESU x 10^10)
                 0.0000
    Dipole Moment (Debye)
         X      -0.9737      Y      -2.2092      Z       0.8635
       Tot       2.5640
    Quadrupole Moments (Debye-Ang)
        XX    -146.1716     XY       0.2194     YY    -152.6662
        XZ      11.8960     YZ       0.3156     ZZ    -163.6501

 Total job time:  55.93s(wall), 2653.99s(cpu)
        *  Thank you very much for using Q-Chem.  Have a nice day.  *
