 Q-Chem 5.0, Q-Chem, Inc., Pleasanton, CA (2017)
 Q-Chem 5.0.1 for Intel X86 EM64T Linux

User input:
--------------------------------------------------------------
$molecule
0  1
O -4.323529299 2.2635136691 1.0541880178
C -4.6812586064 1.6308538461 0.038755088
C -5.2403716011 0.1600587351 -0.0273456147
C -4.1584618936 -0.9299486335 -0.4153155081
C -2.7448445273 -0.3476549803 -0.7492166979
O -1.9698064404 -1.3783560494 -1.3914625082
C -0.5704169991 -1.4146674854 -0.896442531
C 0.2575582271 -0.1131170336 -1.1965254283
O 1.6118281887 -0.3704093343 -0.644656665
C 2.4516475149 0.7753121728 -0.8415598692
C 3.4610273244 0.9110825023 0.3557436637
C 4.2965088188 -0.3507276618 0.8389178933
C 4.3897922631 -1.5504366019 -0.1870461018
O 3.486325714 -2.0553369302 -0.885309506
O -4.6999094878 2.1669668348 -1.2915200011
O 5.7265220637 -2.0735203251 -0.1624416789
O 2.3085627229 1.6063581544 -1.7646692835
C 5.8317759498 -3.229696803 -1.0807953779
C 4.6090813623 1.9759731392 0.0964441046
C 4.9871836798 2.611514748 1.4877866371
C 5.6878273184 1.3845635735 2.1824115818
C 5.7218843606 0.3313769117 1.0026552035
O 5.8025130126 1.1588402583 -0.2252132107
H 2.8323636554 1.2470367815 1.2033591587
H 3.9001538677 -0.7463771801 1.7926934818
H 4.3822142845 2.6859677976 -0.7231169654
H 5.6892639265 3.4492170747 1.3486783456
H 4.1072727911 2.9750094338 2.0420425954
H 6.7097858548 1.6308730943 2.5109082968
H 5.1201792014 1.0098677802 3.0494133128
H 6.5560793493 -0.3939079734 1.0361593811
O -2.3261957723 0.7937400559 -0.4497272236
C -4.0971103234 3.5185577678 -1.2937380553
C -5.6436579879 -0.332497418 1.4259705227
C -6.5145763029 -1.6436427031 1.2981907064
C -5.4126476425 -2.7089480921 0.9409194186
C -4.117042483 -1.8069706895 0.9149366639
O -4.3582585494 -0.8174915064 1.9857339519
H -6.0914153054 0.1354835528 -0.7308443658
H -4.4877334196 -1.5436944593 -1.2730879455
H -3.0356286221 3.4840875291 -0.9730736914
H -6.0643509043 0.4615879958 2.0724239038
H -7.0078389348 -1.8762616143 2.2551455692
H -7.2849544522 -1.5520608701 0.5159058389
H -5.32665313 -3.4797116687 1.7235453389
H -5.593698548 -3.2049321557 -0.0259215342
H -3.1638195744 -2.3456010554 1.0814593568
H -4.6456551686 4.2135731279 -0.6255424186
H -4.1577583543 3.8811413083 -2.3364071981
H 6.8791794522 -3.577017466 -1.012719882
H 5.6033069414 -2.9424939597 -2.1274094915
H 5.1475456528 -4.0513079491 -0.7851701024
H 0.2917948507 0.0777646693 -2.2912464385
H -0.2378340356 0.7513489554 -0.7029685348
H -0.1027576937 -2.281570706 -1.406230501
H -0.5583097893 -1.6032370432 0.1998942035
$end

$rem
JOBTYPE                   OPT
METHOD                    B3LYP
DFT_D                     d3_op
BASIS                     STO-3G
GEOM_OPT_MAX_CYCLES       100
GEOM_OPT_TOL_GRADIENT     300
GEOM_OPT_TOL_DISPLACEMENT 1200
GEOM_OPT_TOL_ENERGY       100
SYMMETRY                  False
THRESH                    12
SCF_CONVERGENCE           8
MAX_SUB_FILE_NUM          128
MEM_STATIC                400
MEM_TOTAL                 4000
$end
--------------------------------------------------------------

   16   -1510.2619272333      5.43E-09 Convergence criterion met
 Total energy in the final basis set = -1510.26192723
   14   -1510.2674531393      2.89E-09 Convergence criterion met
 Total energy in the final basis set = -1510.26745314
   14   -1510.2725951538      2.32E-09 Convergence criterion met
 Total energy in the final basis set = -1510.27259515
   14   -1510.2764349748      2.88E-09 Convergence criterion met
 Total energy in the final basis set = -1510.27643497
   13   -1510.2788870741      7.00E-09 Convergence criterion met
 Total energy in the final basis set = -1510.27888707
   13   -1510.2809364190      5.69E-09 Convergence criterion met
 Total energy in the final basis set = -1510.28093642
   13   -1510.2827703222      8.32E-09 Convergence criterion met
 Total energy in the final basis set = -1510.28277032
   13   -1510.2843221102      6.56E-09 Convergence criterion met
   13   -1510.2917228750      8.01E-09 Convergence criterion met
 Total energy in the final basis set = -1510.29172287
   13   -1510.2916233691      7.96E-09 Convergence criterion met
 Total energy in the final basis set = -1510.29162337
   13   -1510.2917496456      5.59E-09 Convergence criterion met
 Total energy in the final basis set = -1510.29174965
   10   -1510.2917561997      4.87E-09 Convergence criterion met
 Total energy in the final basis set = -1510.29175620
   11   -1510.2917698782      8.21E-09 Convergence criterion met
 Total energy in the final basis set = -1510.29176988
   10   -1510.2917729774      5.15E-09 Convergence criterion met
 Total energy in the final basis set = -1510.29177298

             Standard Nuclear Orientation (Angstroms)
    I     Atom           X                Y                Z
 ----------------------------------------------------------------
    1      O      -3.9926635897     2.2315812633     0.0678580581
    2      C      -3.6140003197     1.1194761617    -0.3580301369
    3      C      -4.5234580114    -0.1444737287    -0.5920354798
    4      C      -4.1211446972    -1.4332047406     0.2441119922
    5      C      -2.8047847183    -1.2393621871     1.0615246572
    6      O      -1.9011333701    -2.2976491473     0.7007228724
    7      C      -0.5495311393    -2.0096936799     1.2383950398
    8      C       0.2229024178    -1.1359473162     0.1886191156
    9      O       1.4136736878    -0.5663489539     0.8653853130
   10      C       1.9361344943     0.5403780529     0.1231537330
   11      C       3.2508294545     1.0253173407     0.8400331555
   12      C       4.5377905625     0.1717622254     0.4965160061
   13      C       4.2524620697    -0.9373167753    -0.5695836493
   14      O       3.1756420191    -1.1406842285    -1.1764182146
   15      O      -2.2700991292     0.8354215542    -0.7662356081
   16      O       5.4435828335    -1.6938751846    -0.7807427729
   17      O       1.3594974822     1.1081361697    -0.8331481856
   18      C       5.2125869706    -2.7256638863    -1.8199210092
   19      C       3.6890816377     2.4570069250     0.3189715911
   20      C       4.7001101422     3.0760294568     1.3609860590
   21      C       5.9894669286     2.2192868747     1.0749462305
   22      C       5.4887429215     1.2958202308    -0.1048478332
   23      O       4.5451612745     2.1548870072    -0.8530972668
   24      H       3.0635270546     1.0224501074     1.9286982326
   25      H       4.9792514658    -0.2991140248     1.3933962571
   26      H       2.8434866423     3.1054444069     0.0181619043
   27      H       4.8695080871     4.1430691518     1.1457731673
   28      H       4.3422614611     2.9767812731     2.3982326259
   29      H       6.8288423458     2.8490279675     0.7397711309
   30      H       6.3152022160     1.6334900408     1.9493440165
   31      H       6.2823101640     0.9064409320    -0.7719354552
   32      O      -2.5401422223    -0.3374113898     1.8857626726
   33      C      -1.4360379852     2.0551755411    -0.6121916104
   34      C      -5.9778163553     0.1328215566    -0.0323401579
   35      C      -6.9595839693    -0.9680573941    -0.5962389754
   36      C      -6.5646196823    -2.2110512686     0.2855194959
   37      C      -5.4073804814    -1.5983684936     1.1693950547
   38      O      -5.8524583102    -0.2082861886     1.4045729992
   39      H      -4.5298349463    -0.3717267958    -1.6740412462
   40      H      -3.9846905793    -2.3080547330    -0.4148580875
   41      H      -1.5231182048     2.4660062041     0.4134131733
   42      H      -6.3068735883     1.1835105541    -0.1492580272
   43      H      -8.0080601172    -0.6729337949    -0.4323272413
   44      H      -6.8061206580    -1.1458099155    -1.6728011026
   45      H      -7.4020385164    -2.5363159372     0.9232930958
   46      H      -6.2223475101    -3.0701441229    -0.3134109975
   47      H      -5.2211067713    -2.1155025729     2.1307434209
   48      H      -1.7449277996     2.8391242129    -1.3323614396
   49      H      -0.3862017279     1.7389127382    -0.8097306275
   50      H       6.1791488290    -3.2454025280    -1.9527212627
   51      H       4.8975953376    -2.2712876168    -2.7813375042
   52      H       4.4387819090    -3.4548974801    -1.5038910673
   53      H       0.5420977759    -1.7497687918    -0.6812548428
   54      H      -0.4622283241    -0.3414946722    -0.1794099051
   55      H      -0.0502614806    -2.9841067791     1.4064315310
   56      H      -0.6297669373    -1.4499836080     2.1950655668
 ----------------------------------------------------------------

    9   -1510.2917735887      2.48E-09 Convergence criterion met
 Total energy in the final basis set = -1510.29177359
 Final energy is   -1510.29177358874
 **  OPTIMIZATION CONVERGED  **

                    Orbital Energies (a.u.)
 --------------------------------------------------------------

 Alpha MOs
 -- Occupied --
-18.948 -18.929 -18.927 -18.922 -18.890 -18.890 -18.884 -18.873
-18.871 -18.866 -10.111 -10.101 -10.097 -10.090 -10.073 -10.067
-10.064 -10.061 -10.059 -10.058 -10.053 -10.044 -10.037 -10.035
-10.034 -10.033 -10.023 -10.021 -10.018 -10.016  -1.024  -1.011
 -1.004  -0.999  -0.973  -0.966  -0.947  -0.936  -0.931  -0.925
 -0.766  -0.759  -0.727  -0.721  -0.712  -0.704  -0.693  -0.670
 -0.646  -0.614  -0.597  -0.577  -0.548  -0.541  -0.540  -0.533
 -0.516  -0.506  -0.483  -0.472  -0.461  -0.458  -0.453  -0.446
 -0.438  -0.434  -0.427  -0.419  -0.415  -0.407  -0.398  -0.395
 -0.392  -0.381  -0.374  -0.366  -0.361  -0.354  -0.352  -0.348
 -0.345  -0.339  -0.333  -0.330  -0.327  -0.323  -0.320  -0.315
 -0.308  -0.306  -0.304  -0.300  -0.291  -0.282  -0.278  -0.277
 -0.270  -0.262  -0.251  -0.248  -0.239  -0.237  -0.230  -0.189
 -0.175  -0.170  -0.166  -0.164  -0.154  -0.150  -0.147  -0.143
 -0.140

          Ground-State Mulliken Net Atomic Charges

     Atom                 Charge (a.u.)
  ----------------------------------------
      1 O                    -0.209844
      2 C                     0.211335
      3 C                    -0.078601
      4 C                    -0.080147
      5 C                     0.210269
      6 O                    -0.173149
      7 C                    -0.051886
      8 C                    -0.054942
      9 O                    -0.176788
     10 C                     0.224884
     11 C                    -0.081161
     12 C                    -0.077916
     13 C                     0.215778
     14 O                    -0.206339
     15 O                    -0.178724
     16 O                    -0.167769
     17 O                    -0.219231
     18 C                    -0.128071
     19 C                     0.025144
     20 C                    -0.143856
     21 C                    -0.143805
     22 C                     0.025146
     23 O                    -0.189013
     24 H                     0.085825
     25 H                     0.087909
     26 H                     0.089723
     27 H                     0.078947
     28 H                     0.074156
     29 H                     0.078891
     30 H                     0.073998
     31 H                     0.085756
     32 O                    -0.211715
     33 C                    -0.146485
     34 C                     0.024748
     35 C                    -0.144599
     36 C                    -0.143419
     37 C                     0.025910
     38 O                    -0.186416
     39 H                     0.083949
     40 H                     0.086175
     41 H                     0.085354
     42 H                     0.091031
     43 H                     0.077844
     44 H                     0.072803
     45 H                     0.077602
     46 H                     0.073191
     47 H                     0.082628
     48 H                     0.079939
     49 H                     0.111156
     50 H                     0.093033
     51 H                     0.093085
     52 H                     0.090409
     53 H                     0.088400
     54 H                     0.102526
     55 H                     0.087269
     56 H                     0.099064
  ----------------------------------------
  Sum of atomic charges =     0.000000

                    Cartesian Multipole Moments
 -----------------------------------------------------------------
    Charge (ESU x 10^10)
                 0.0000
    Dipole Moment (Debye)
         X       2.8728      Y      -3.0117      Z      -0.2288
       Tot       4.1684
    Quadrupole Moments (Debye-Ang)
        XX    -143.5742     XY       6.8286     YY    -155.0595
        XZ      13.4990     YZ       3.2858     ZZ    -161.2531

 Total job time:  125.11s(wall), 5955.97s(cpu)
        *  Thank you very much for using Q-Chem.  Have a nice day.  *
