 Q-Chem 5.0, Q-Chem, Inc., Pleasanton, CA (2017)
 Q-Chem 5.0.1 for Intel X86 EM64T Linux

User input:
--------------------------------------------------------------
$molecule
0  1
O -5.3564071638 0.4977792485 0.1726794561
C -4.7358726691 -0.1611424436 -0.6832467643
C -3.2325985228 -0.4726852563 -0.7545998556
C -2.3651007607 0.6227265822 0.0035384135
C -3.1022194891 1.7476530491 0.8040319276
O -2.2603829074 3.2203979125 0.7641001415
C -0.4852177705 3.0664250091 0.5583690333
C -0.1923272504 1.56380512 0.1976244932
O 1.1672871087 1.1333207529 0.5890789478
C 1.8567989652 0.923536558 -0.6623299816
C 3.3031300818 1.0914838911 -0.2862442353
C 3.8052772164 0.0624519532 0.789705719
C 2.8516473458 -1.1529274791 1.1093909137
O 2.3159001929 -1.4517184383 2.1996118634
O -5.3394374315 -0.7752030606 -1.8121482294
O 2.7827432155 -1.9526002915 -0.0736281074
O 1.2813408152 0.6167381948 -1.7369623935
C 2.2585154633 -3.3121708909 0.1779544746
C 4.2774067996 0.8036946183 -1.5069370393
C 5.587303585 1.6123790882 -1.2188102103
C 6.1378291944 0.8062429167 0.0186370429
C 5.1270911053 -0.4094139437 0.0954635529
O 4.6931762686 -0.6039013188 -1.3081431452
H 3.3731159571 2.1273912742 0.0539159726
H 3.9523697264 0.6103426251 1.7460636673
H 3.801600378 0.9444729657 -2.4985230144
H 6.2685942654 1.5548992359 -2.0820490602
H 5.3756498848 2.6714270148 -0.9978626577
H 7.154798415 0.4348090621 -0.1677645072
H 6.1362293677 1.3954645633 0.9499412483
H 5.5295247201 -1.3470743032 0.5170893849
O -3.845035626 1.6661282209 1.7906002671
C -6.7938685852 -0.6038972238 -1.6901358677
C -2.9363758672 -1.8363980833 -0.1323811
C -1.4553986265 -2.3052526798 -0.4059403636
C -0.7074633265 -1.489318825 0.702083862
C -1.8341626814 -0.469309776 1.1384871503
O -2.9686103848 -1.4035849145 1.2855653728
H -2.9567080321 -0.4232877591 -1.8457588571
H -1.802091473 1.118670548 -0.7763650062
H -7.0619154185 0.4722340233 -1.673035906
H -3.7261428458 -2.5695321788 -0.3724224615
H -1.3702156415 -3.3959692459 -0.2765455746
H -1.0991181644 -2.0477627363 -1.4172825449
H -0.529398375 -2.1365427088 1.580353289
H 0.2623085379 -1.0680865692 0.4042186181
H -1.6506972348 0.0081648463 2.1169047388
H -7.1577806977 -1.0708310849 -0.7517977941
H -7.2097986839 -1.108981226 -2.5770653136
H 2.1946144035 -3.7882667898 -0.8186822492
H 1.2582159143 -3.3142149509 0.6507314254
H 2.9541526385 -3.8973984395 0.8137739716
H -0.7133777337 1.0134765802 0.9818103461
H -0.3139032319 1.1746576863 -0.7869742562
H -0.021829866 3.4652244852 1.448575664
H -0.3908315218 3.7367318505 -0.3452518434
$end

$rem
JOBTYPE                   OPT
METHOD                    B3LYP
DFT_D                     d3_op
BASIS                     STO-3G
GEOM_OPT_MAX_CYCLES       100
GEOM_OPT_TOL_GRADIENT     300
GEOM_OPT_TOL_DISPLACEMENT 1200
GEOM_OPT_TOL_ENERGY       100
SYMMETRY                  False
THRESH                    12
SCF_CONVERGENCE           8
MAX_SUB_FILE_NUM          128
MEM_STATIC                400
MEM_TOTAL                 4000
$end
--------------------------------------------------------------

   17   -1510.0646485413      6.20E-09 Convergence criterion met
 Total energy in the final basis set = -1510.06464854
   15   -1510.1169879510      9.10E-09 Convergence criterion met
 Total energy in the final basis set = -1510.11698795
   14   -1510.1611343098      5.25E-09 Convergence criterion met
 Total energy in the final basis set = -1510.16113431
   14   -1510.1947498482      3.83E-09 Convergence criterion met
 Total energy in the final basis set = -1510.19474985
   14   -1510.2185928562      3.00E-09 Convergence criterion met
 Total energy in the final basis set = -1510.21859286
   13   -1510.2335372884      9.67E-09 Convergence criterion met
 Total energy in the final basis set = -1510.23353729
   14   -1510.2427878433      7.02E-09 Convergence criterion met
 Total energy in the final basis set = -1510.24278784
   13   -1510.2489196288      9.79E-09 Convergence criterion met
   12   -1510.2847265275      7.65E-09 Convergence criterion met
 Total energy in the final basis set = -1510.28472653
   12   -1510.2847058062      4.23E-09 Convergence criterion met
 Total energy in the final basis set = -1510.28470581
   12   -1510.2847149382      3.61E-09 Convergence criterion met
 Total energy in the final basis set = -1510.28471494
   11   -1510.2847119231      7.84E-09 Convergence criterion met
 Total energy in the final basis set = -1510.28471192
   11   -1510.2847403494      7.55E-09 Convergence criterion met
 Total energy in the final basis set = -1510.28474035
   10   -1510.2847389029      4.38E-09 Convergence criterion met
 Total energy in the final basis set = -1510.28473890

             Standard Nuclear Orientation (Angstroms)
    I     Atom           X                Y                Z
 ----------------------------------------------------------------
    1      O      -4.3522697980     0.8377860662     0.1592268757
    2      C      -3.6777042464     0.5675791013    -0.8598228299
    3      C      -2.4681049939    -0.4194061879    -0.9527216099
    4      C      -2.0658900956    -1.0327783410     0.4486286616
    5      C      -2.8566024938    -0.4792386681     1.7033820456
    6      O      -2.4881898279     0.8049413892     2.2715928226
    7      C      -1.3678535442     1.4953692016     1.6110560539
    8      C       0.0274322774     1.0507391686     2.2164328252
    9      O       1.1386058189     1.4231488937     1.3068472496
   10      C       1.4381131369     0.3559570128     0.4022190532
   11      C       2.5846681987     0.8231248841    -0.5598623392
   12      C       3.9351888651     1.1955949962     0.1843888346
   13      C       3.8619633045     1.0109768913     1.7365056918
   14      O       4.2503452030     1.8037806721     2.6200627083
   15      O      -3.9230677677     1.1199040650    -2.1554007794
   16      O       3.2733444529    -0.2701282343     2.0011378909
   17      O       0.8289329708    -0.7390235475     0.3595744800
   18      C       3.1261083211    -0.4792642628     3.4586730332
   19      C       3.0587699594    -0.3698804133    -1.4892506549
   20      C       3.8861876408     0.2295298132    -2.6904320094
   21      C       5.2270112619     0.6230140762    -1.9658109212
   22      C       4.9288812812     0.1471071988    -0.4881341699
   23      O       4.0847379282    -1.0539952348    -0.6681146109
   24      H       2.2114371835     1.6822321512    -1.1473001315
   25      H       4.2405675486     2.2363279574    -0.0203747487
   26      H       2.2480278910    -1.0747546216    -1.7581501994
   27      H       4.0549084188    -0.5399181307    -3.4603339661
   28      H       3.3836400874     1.0923557094    -3.1564802696
   29      H       6.0871929440     0.0735785258    -2.3802319984
   30      H       5.4382044867     1.7029378581    -2.0187500762
   31      H       5.8231818688    -0.0933851316     0.1191121216
   32      O      -3.7233780776    -1.1287293922     2.3251708661
   33      C      -5.1015575370     2.0169619490    -2.1096882180
   34      C      -2.8723552528    -1.7347631672    -1.7518380567
   35      C      -1.5568294867    -2.5543287874    -2.0612031955
   36      C      -1.2498202665    -3.1856226065    -0.6529371518
   37      C      -2.4146584232    -2.5637896650     0.2123547686
   38      O      -3.5634987293    -2.5408885429    -0.7242207717
   39      H      -1.6203432309     0.0962509828    -1.4405434960
   40      H      -0.9703362836    -0.9204019440     0.5965174952
   41      H      -4.9407133042     2.8681973555    -1.4169817851
   42      H      -3.5333211858    -1.5501360618    -2.6212860423
   43      H      -1.7557313537    -3.3273209014    -2.8203995244
   44      H      -0.7418829847    -1.9065405277    -2.4223195343
   45      H      -1.3273159176    -4.2841863305    -0.6778491218
   46      H      -0.2560242266    -2.9006668550    -0.2711772158
   47      H      -2.6840392587    -3.1132765989     1.1349211836
   48      H      -6.0145788153     1.4730361842    -1.7924627248
   49      H      -5.2351138869     2.3972234666    -3.1391069121
   50      H       2.6150817011    -1.4524604097     3.5766416569
   51      H       2.5168430492     0.3213230962     3.9251413040
   52      H       4.1116202625    -0.5139881329     3.9661533113
   53      H       0.2156556304     1.5803591571     3.1710974539
   54      H       0.0290612215    -0.0446933417     2.3974039608
   55      H      -1.5202730298     2.5764705849     1.8068247157
   56      H      -1.3515635411     1.3496388733     0.5127442119
 ----------------------------------------------------------------

    9   -1510.2847390211      7.25E-09 Convergence criterion met
 Total energy in the final basis set = -1510.28473902
 Final energy is   -1510.28473902114
 **  OPTIMIZATION CONVERGED  **

                    Orbital Energies (a.u.)
 --------------------------------------------------------------

 Alpha MOs
 -- Occupied --
-18.952 -18.944 -18.940 -18.918 -18.898 -18.897 -18.886 -18.884
-18.880 -18.857 -10.122 -10.108 -10.102 -10.086 -10.080 -10.075
-10.072 -10.070 -10.068 -10.068 -10.056 -10.051 -10.048 -10.047
-10.036 -10.029 -10.028 -10.015 -10.014 -10.009  -1.033  -1.018
 -1.017  -0.990  -0.979  -0.963  -0.956  -0.945  -0.941  -0.923
 -0.775  -0.757  -0.735  -0.718  -0.716  -0.706  -0.698  -0.669
 -0.664  -0.623  -0.598  -0.590  -0.556  -0.546  -0.543  -0.532
 -0.523  -0.507  -0.494  -0.480  -0.477  -0.468  -0.456  -0.446
 -0.442  -0.432  -0.426  -0.423  -0.418  -0.413  -0.413  -0.400
 -0.394  -0.392  -0.382  -0.375  -0.372  -0.368  -0.355  -0.352
 -0.350  -0.341  -0.339  -0.336  -0.331  -0.321  -0.319  -0.315
 -0.312  -0.306  -0.304  -0.303  -0.299  -0.289  -0.286  -0.276
 -0.273  -0.263  -0.260  -0.257  -0.243  -0.233  -0.226  -0.198
 -0.186  -0.183  -0.176  -0.161  -0.157  -0.156  -0.153  -0.138
 -0.133

          Ground-State Mulliken Net Atomic Charges

     Atom                 Charge (a.u.)
  ----------------------------------------
      1 O                    -0.201275
      2 C                     0.207799
      3 C                    -0.081869
      4 C                    -0.106404
      5 C                     0.211775
      6 O                    -0.171989
      7 C                    -0.050236
      8 C                    -0.055189
      9 O                    -0.172930
     10 C                     0.223994
     11 C                    -0.077934
     12 C                    -0.078770
     13 C                     0.212068
     14 O                    -0.208338
     15 O                    -0.171128
     16 O                    -0.168165
     17 O                    -0.215904
     18 C                    -0.128337
     19 C                     0.025143
     20 C                    -0.144071
     21 C                    -0.143647
     22 C                     0.026326
     23 O                    -0.184803
     24 H                     0.085997
     25 H                     0.087477
     26 H                     0.089008
     27 H                     0.079963
     28 H                     0.073737
     29 H                     0.079899
     30 H                     0.075064
     31 H                     0.084637
     32 O                    -0.204419
     33 C                    -0.128618
     34 C                     0.025572
     35 C                    -0.143537
     36 C                    -0.146410
     37 C                     0.025127
     38 O                    -0.190633
     39 H                     0.077927
     40 H                     0.101672
     41 H                     0.089678
     42 H                     0.083168
     43 H                     0.076087
     44 H                     0.070220
     45 H                     0.075101
     46 H                     0.083216
     47 H                     0.088849
     48 H                     0.092879
     49 H                     0.091013
     50 H                     0.094194
     51 H                     0.088771
     52 H                     0.091172
     53 H                     0.092285
     54 H                     0.094544
     55 H                     0.089991
     56 H                     0.080251
  ----------------------------------------
  Sum of atomic charges =    -0.000000

                    Cartesian Multipole Moments
 -----------------------------------------------------------------
    Charge (ESU x 10^10)
                 0.0000
    Dipole Moment (Debye)
         X       3.8114      Y       2.3170      Z      -3.3774
       Tot       5.5948
    Quadrupole Moments (Debye-Ang)
        XX    -172.0191     XY      -8.5873     YY    -162.0664
        XZ       9.5560     YZ      -5.5920     ZZ    -157.3349

 Total job time:  121.56s(wall), 5795.78s(cpu)
        *  Thank you very much for using Q-Chem.  Have a nice day.  *
