 Q-Chem 5.0, Q-Chem, Inc., Pleasanton, CA (2017)
 Q-Chem 5.0.1 for Intel X86 EM64T Linux

User input:
--------------------------------------------------------------
$molecule
0  1
O -3.94934 -3.66094 2.70899
C -3.26408 -4.56952 2.26188
C -3.36658 -6.02376 2.66595
C -2.20245 -6.94675 2.27003
C -0.98522 -6.27788 1.67082
O -0.38042 -7.12306 0.78465
C 0.86861 -7.63686 1.2592
C 1.72351 -6.50513 1.81998
O 3.11561 -6.8025 1.6289
C 3.92811 -6.48185 2.66629
C 3.58811 -7.23037 3.93309
C 4.73471 -7.33789 4.94898
C 5.90622 -6.40307 4.72454
O 7.04538 -6.58436 5.12953
O -2.66319 -4.31618 1.06633
O 5.5678 -5.09524 4.51723
O 5.04942 -6.12371 2.3494
C 6.45865 -4.04151 4.48204
C 2.60599 -6.47851 4.95142
C 1.8725 -7.52813 5.78425
C 3.00774 -8.02582 6.65446
C 4.08931 -7.002 6.28385
O 3.39163 -5.85502 5.93501
H 3.13924 -8.21614 3.671
H 5.16587 -8.36347 4.94266
H 1.87117 -5.74991 4.58998
H 1.15677 -6.97136 6.43281
H 1.31271 -8.3086 5.22591
H 2.69903 -7.94409 7.71996
H 3.35643 -9.05799 6.43242
H 4.84228 -6.88605 7.0945
O -0.5226 -5.2216 2.08549
C -2.59057 -3.07691 0.46283
C -3.31436 -6.14999 4.20283
C -3.91974 -7.48283 4.64309
C -2.8247 -8.43664 4.2237
C -1.79406 -7.44745 3.67417
O -1.95066 -6.31321 4.48733
H -4.35577 -6.38567 2.30767
H -2.50909 -7.81026 1.63656
H -2.04899 -2.36409 1.12074
H -3.82447 -5.31472 4.73121
H -3.97948 -7.48091 5.75505
H -4.92486 -7.6941 4.21875
H -2.41863 -8.92797 5.13628
H -3.12035 -9.20739 3.47961
H -0.78572 -7.91241 3.69179
H -3.61071 -2.69247 0.24926
H -2.03732 -3.17102 -0.49396
H 5.90191 -3.102 4.28789
H 7.19839 -4.19495 3.6676
H 6.98411 -3.94971 5.45647
H 1.58527 -5.63864 1.13624
H 1.3922 -6.22152 2.78923
H 1.3725 -8.07783 0.37273
H 0.74211 -8.44421 2.01107
$end

$opt
CONSTRAINT
tors           1           2           3           4    -164.837
tors           3           4           5           6    -149.101
tors           4           5           6           7    -108.785
tors           5           6           7           8     -47.317
tors           6           7           8           9    -149.247
tors           7           8           9          10    -139.560
tors           8           9          10          11     +61.661
tors           9          10          11          12    +157.679
tors          11          12          13          14    -156.507
ENDCONSTRAINT
$end

$rem
JOBTYPE                   OPT
METHOD                    B3LYP
DFT_D                     d3_op
BASIS                     STO-3G
GEOM_OPT_MAX_CYCLES       100
GEOM_OPT_TOL_GRADIENT     300
GEOM_OPT_TOL_DISPLACEMENT 1200
GEOM_OPT_TOL_ENERGY       100
SYMMETRY                  False
THRESH                    12
SCF_CONVERGENCE           8
MAX_SUB_FILE_NUM          128
MEM_STATIC                400
MEM_TOTAL                 4000
$end
--------------------------------------------------------------

   15   -1510.0751917596      9.77E-09 Convergence criterion met
 Total energy in the final basis set = -1510.07519176
   14   -1510.1529230718      4.21E-09 Convergence criterion met
 Total energy in the final basis set = -1510.15292307
   14   -1510.1947368155      6.28E-09 Convergence criterion met
 Total energy in the final basis set = -1510.19473682
   14   -1510.2158304840      5.44E-09 Convergence criterion met
 Total energy in the final basis set = -1510.21583048
   13   -1510.2245351497      7.88E-09 Convergence criterion met
 Total energy in the final basis set = -1510.22453515
   13   -1510.2277270412      6.47E-09 Convergence criterion met
 Total energy in the final basis set = -1510.22772704
   12   -1510.2289743334      9.83E-09 Convergence criterion met
 Total energy in the final basis set = -1510.22897433
   13   -1510.2296234591      1.77E-09 Convergence criterion met
   11   -1510.2303635274      8.08E-09 Convergence criterion met
 Total energy in the final basis set = -1510.23036353
   11   -1510.2303797548      5.44E-09 Convergence criterion met
 Total energy in the final basis set = -1510.23037975
   10   -1510.2303937383      4.66E-09 Convergence criterion met
 Total energy in the final basis set = -1510.23039374
    9   -1510.2304080950      8.54E-09 Convergence criterion met
 Total energy in the final basis set = -1510.23040810
    9   -1510.2304150677      8.32E-09 Convergence criterion met
 Total energy in the final basis set = -1510.23041507
    9   -1510.2304219070      4.22E-09 Convergence criterion met
 Total energy in the final basis set = -1510.23042191

             Standard Nuclear Orientation (Angstroms)
    I     Atom           X                Y                Z
 ----------------------------------------------------------------
    1      O      -5.5040610278     1.1298627790     2.0759389634
    2      C      -4.8831029917     1.0191661378     0.9966632230
    3      C      -4.4816981537    -0.3231683076     0.2883704544
    4      C      -3.3978923854    -0.2302234718    -0.8551014317
    5      C      -2.4319679490     1.0092133497    -0.7475529003
    6      O      -2.0002011453     1.4504621620    -2.0732921680
    7      C      -0.5746974441     1.1209152764    -2.2858759437
    8      C       0.4110323714     1.5014842351    -1.1109463641
    9      O       1.7246551325     1.8122433901    -1.7168303078
   10      C       2.8485698864     1.2964036770    -0.9627346985
   11      C       2.9041773604    -0.2851286758    -0.8049978335
   12      C       4.3568563837    -0.8224064320    -0.4961761129
   13      C       5.2569776946     0.1183717087     0.3915321969
   14      O       6.5076715681     0.1169554048     0.4178048854
   15      O      -4.6381791541     2.1114550148     0.1037888201
   16      O       4.4423228035     0.7754704027     1.3687001272
   17      O       3.8293826889     2.0529741123    -0.7947434322
   18      C       5.2898679970     1.5868593597     2.2688679759
   19      C       2.0537785983    -1.0884881689     0.3026942532
   20      C       1.7068985444    -2.4805371407    -0.3560697279
   21      C       3.1418487524    -3.1285464009    -0.4102755826
   22      C       3.9946429200    -2.0769243885     0.4110618920
   23      O       3.0195527524    -1.4750709279     1.3500100371
   24      H       2.5913067434    -0.6586086008    -1.7987588659
   25      H       4.9133149297    -1.0933076821    -1.4103380830
   26      H       1.2032370001    -0.5548670893     0.7666222647
   27      H       1.0316530474    -3.0531183535     0.3004700873
   28      H       1.2399244183    -2.3826947433    -1.3493930452
   29      H       3.1637525234    -4.1147382721     0.0793460055
   30      H       3.5154605660    -3.2389210356    -1.4412825049
   31      H       4.8557484174    -2.5008478648     0.9633846889
   32      O      -2.0054569505     1.5063202837     0.3146719971
   33      C      -5.0650650087     3.3858936831     0.7239643726
   34      C      -3.8585984223    -1.4355913311     1.2384229620
   35      C      -4.2305176605    -2.8369614556     0.6181315231
   36      C      -3.3380995756    -2.8268404092    -0.6787591993
   37      C      -2.5045771570    -1.4985178464    -0.4740672732
   38      O      -2.3979070828    -1.3542482067     0.9963642157
   39      H      -5.4229378655    -0.7113412843    -0.1467528547
   40      H      -3.8280565490    -0.2843481244    -1.8697753648
   41      H      -4.4555954984     3.6230070231     1.6197660058
   42      H      -4.0887628120    -1.3051744439     2.3137883710
   43      H      -3.9353578452    -3.6488641627     1.3022733815
   44      H      -5.3059486823    -2.9304968417     0.3986976885
   45      H      -2.6688220673    -3.7006202183    -0.7222880585
   46      H      -3.9360575855    -2.7950140067    -1.6037659708
   47      H      -1.4974214864    -1.5071638793    -0.9342042005
   48      H      -6.1335191255     3.3565233064     1.0200939322
   49      H      -4.9106117611     4.1651697697    -0.0447186429
   50      H       4.6152058667     1.9735738494     3.0546180334
   51      H       5.7540461464     2.4373879096     1.7285097643
   52      H       6.0946791153     0.9795795744     2.7308622588
   53      H       0.0292959659     2.4096353339    -0.5942393987
   54      H       0.4558316306     0.6857741517    -0.3697628277
   55      H      -0.2731010723     1.6967283203    -3.1861805948
   56      H      -0.4603236027     0.0378039572    -2.5229374943
 ----------------------------------------------------------------

    9   -1510.2304219871      3.75E-09 Convergence criterion met
 Total energy in the final basis set = -1510.23042199
 Final energy is   -1510.23042198709
 **  OPTIMIZATION CONVERGED  **

                    Orbital Energies (a.u.)
 --------------------------------------------------------------

 Alpha MOs
 -- Occupied --
-18.939 -18.922 -18.918 -18.910 -18.900 -18.897 -18.894 -18.894
-18.878 -18.861 -10.111 -10.106 -10.104 -10.090 -10.076 -10.072
-10.071 -10.067 -10.067 -10.066 -10.064 -10.053 -10.044 -10.043
-10.040 -10.037 -10.030 -10.027 -10.027 -10.026  -1.017  -1.009
 -1.007  -0.998  -0.979  -0.975  -0.944  -0.939  -0.936  -0.923
 -0.770  -0.765  -0.731  -0.726  -0.715  -0.707  -0.704  -0.664
 -0.652  -0.615  -0.602  -0.592  -0.553  -0.550  -0.546  -0.542
 -0.520  -0.519  -0.484  -0.480  -0.466  -0.465  -0.455  -0.444
 -0.439  -0.435  -0.426  -0.416  -0.413  -0.410  -0.406  -0.398
 -0.398  -0.385  -0.378  -0.373  -0.368  -0.362  -0.354  -0.353
 -0.345  -0.341  -0.337  -0.335  -0.334  -0.330  -0.325  -0.320
 -0.319  -0.314  -0.313  -0.301  -0.299  -0.296  -0.287  -0.281
 -0.276  -0.258  -0.247  -0.244  -0.241  -0.240  -0.236  -0.179
 -0.176  -0.169  -0.164  -0.160  -0.156  -0.153  -0.151  -0.145
 -0.140

          Ground-State Mulliken Net Atomic Charges

     Atom                 Charge (a.u.)
  ----------------------------------------
      1 O                    -0.213017
      2 C                     0.212463
      3 C                    -0.079843
      4 C                    -0.079048
      5 C                     0.224509
      6 O                    -0.190406
      7 C                    -0.049490
      8 C                    -0.055811
      9 O                    -0.184520
     10 C                     0.216531
     11 C                    -0.085945
     12 C                    -0.077223
     13 C                     0.214880
     14 O                    -0.219266
     15 O                    -0.169716
     16 O                    -0.165212
     17 O                    -0.181889
     18 C                    -0.126477
     19 C                     0.025232
     20 C                    -0.142375
     21 C                    -0.145234
     22 C                     0.024245
     23 O                    -0.183240
     24 H                     0.079264
     25 H                     0.085361
     26 H                     0.085127
     27 H                     0.080263
     28 H                     0.068426
     29 H                     0.079529
     30 H                     0.074441
     31 H                     0.085269
     32 O                    -0.187680
     33 C                    -0.127335
     34 C                     0.025353
     35 C                    -0.141744
     36 C                    -0.144868
     37 C                     0.023047
     38 O                    -0.189251
     39 H                     0.085389
     40 H                     0.088344
     41 H                     0.092122
     42 H                     0.091768
     43 H                     0.079623
     44 H                     0.075498
     45 H                     0.078497
     46 H                     0.075266
     47 H                     0.075254
     48 H                     0.090470
     49 H                     0.092736
     50 H                     0.089168
     51 H                     0.089557
     52 H                     0.088163
     53 H                     0.097430
     54 H                     0.083319
     55 H                     0.095017
     56 H                     0.068029
  ----------------------------------------
  Sum of atomic charges =     0.000000

                    Cartesian Multipole Moments
 -----------------------------------------------------------------
    Charge (ESU x 10^10)
                 0.0000
    Dipole Moment (Debye)
         X      -3.1944      Y      -3.1380      Z      -2.0063
       Tot       4.9068
    Quadrupole Moments (Debye-Ang)
        XX    -171.3157     XY      -4.1601     YY    -153.7729
        XZ       6.8718     YZ       7.5464     ZZ    -162.8978

 Total job time:  55.58s(wall), 2647.32s(cpu)
        *  Thank you very much for using Q-Chem.  Have a nice day.  *
