 Q-Chem 5.0, Q-Chem, Inc., Pleasanton, CA (2017)
 Q-Chem 5.0.1 for Intel X86 EM64T Linux

User input:
--------------------------------------------------------------
$molecule
0  1
O -5.5040610278 1.129862779 2.0759389634
C -4.8831029917 1.0191661378 0.996663223
C -4.4816981537 -0.3231683076 0.2883704544
C -3.3978923854 -0.2302234718 -0.8551014317
C -2.431967949 1.0092133497 -0.7475529003
O -2.0002011453 1.450462162 -2.073292168
C -0.5746974441 1.1209152764 -2.2858759437
C 0.4110323714 1.5014842351 -1.1109463641
O 1.7246551325 1.8122433901 -1.7168303078
C 2.8485698864 1.296403677 -0.9627346985
C 2.9041773604 -0.2851286758 -0.8049978335
C 4.3568563837 -0.822406432 -0.4961761129
C 5.2569776946 0.1183717087 0.3915321969
O 6.5076715681 0.1169554048 0.4178048854
O -4.6381791541 2.1114550148 0.1037888201
O 4.4423228035 0.7754704027 1.3687001272
O 3.8293826889 2.0529741123 -0.7947434322
C 5.289867997 1.5868593597 2.2688679759
C 2.0537785983 -1.0884881689 0.3026942532
C 1.7068985444 -2.4805371407 -0.3560697279
C 3.1418487524 -3.1285464009 -0.4102755826
C 3.99464292 -2.0769243885 0.411061892
O 3.0195527524 -1.4750709279 1.3500100371
H 2.5913067434 -0.6586086008 -1.7987588659
H 4.9133149297 -1.0933076821 -1.410338083
H 1.2032370001 -0.5548670893 0.7666222647
H 1.0316530474 -3.0531183535 0.3004700873
H 1.2399244183 -2.3826947433 -1.3493930452
H 3.1637525234 -4.1147382721 0.0793460055
H 3.515460566 -3.2389210356 -1.4412825049
H 4.8557484174 -2.5008478648 0.9633846889
O -2.0054569505 1.5063202837 0.3146719971
C -5.0650650087 3.3858936831 0.7239643726
C -3.8585984223 -1.4355913311 1.238422962
C -4.2305176605 -2.8369614556 0.6181315231
C -3.3380995756 -2.8268404092 -0.6787591993
C -2.504577157 -1.4985178464 -0.4740672732
O -2.3979070828 -1.3542482067 0.9963642157
H -5.4229378655 -0.7113412843 -0.1467528547
H -3.828056549 -0.2843481244 -1.8697753648
H -4.4555954984 3.6230070231 1.6197660058
H -4.088762812 -1.3051744439 2.313788371
H -3.9353578452 -3.6488641627 1.3022733815
H -5.3059486823 -2.9304968417 0.3986976885
H -2.6688220673 -3.7006202183 -0.7222880585
H -3.9360575855 -2.7950140067 -1.6037659708
H -1.4974214864 -1.5071638793 -0.9342042005
H -6.1335191255 3.3565233064 1.0200939322
H -4.9106117611 4.1651697697 -0.0447186429
H 4.6152058667 1.9735738494 3.0546180334
H 5.7540461464 2.4373879096 1.7285097643
H 6.0946791153 0.9795795744 2.7308622588
H 0.0292959659 2.4096353339 -0.5942393987
H 0.4558316306 0.6857741517 -0.3697628277
H -0.2731010723 1.6967283203 -3.1861805948
H -0.4603236027 0.0378039572 -2.5229374943
$end

$rem
JOBTYPE                   OPT
METHOD                    B3LYP
DFT_D                     d3_op
BASIS                     STO-3G
GEOM_OPT_MAX_CYCLES       100
GEOM_OPT_TOL_GRADIENT     300
GEOM_OPT_TOL_DISPLACEMENT 1200
GEOM_OPT_TOL_ENERGY       100
SYMMETRY                  False
THRESH                    12
SCF_CONVERGENCE           8
MAX_SUB_FILE_NUM          128
MEM_STATIC                400
MEM_TOTAL                 4000
$end
--------------------------------------------------------------

   16   -1510.2305048259      5.44E-09 Convergence criterion met
 Total energy in the final basis set = -1510.23050483
   13   -1510.2346850850      9.60E-09 Convergence criterion met
 Total energy in the final basis set = -1510.23468509
   14   -1510.2389573257      2.67E-09 Convergence criterion met
 Total energy in the final basis set = -1510.23895733
   14   -1510.2431707899      3.87E-09 Convergence criterion met
 Total energy in the final basis set = -1510.24317079
   14   -1510.2473574761      5.19E-09 Convergence criterion met
 Total energy in the final basis set = -1510.24735748
   14   -1510.2516250845      3.95E-09 Convergence criterion met
 Total energy in the final basis set = -1510.25162508
   14   -1510.2560844935      4.10E-09 Convergence criterion met
 Total energy in the final basis set = -1510.25608449
   14   -1510.2608173442      5.95E-09 Convergence criterion met
   12   -1510.2854619138      8.38E-09 Convergence criterion met
 Total energy in the final basis set = -1510.28546191
   12   -1510.2854906617      3.56E-09 Convergence criterion met
 Total energy in the final basis set = -1510.28549066
   11   -1510.2854972669      8.07E-09 Convergence criterion met
 Total energy in the final basis set = -1510.28549727
   10   -1510.2854934867      5.80E-09 Convergence criterion met
 Total energy in the final basis set = -1510.28549349
    9   -1510.2854965666      6.52E-09 Convergence criterion met
 Total energy in the final basis set = -1510.28549657
    9   -1510.2854976628      6.04E-09 Convergence criterion met
 Total energy in the final basis set = -1510.28549766

             Standard Nuclear Orientation (Angstroms)
    I     Atom           X                Y                Z
 ----------------------------------------------------------------
    1      O      -2.8622317307    -0.8729142265     2.0907571171
    2      C      -3.0598465246    -0.3869543019     0.9573344437
    3      C      -3.7331725676    -1.0988890396    -0.2686938942
    4      C      -2.9913864044    -0.9447054694    -1.6635992350
    5      C      -1.5966386190    -0.2458428746    -1.5648905859
    6      O      -1.6198714930     0.9585666781    -2.3311819915
    7      C      -0.2965609658     1.6325774010    -2.3003726146
    8      C      -0.0685922423     2.3966814611    -0.9349024515
    9      O       1.3096617434     2.9126537778    -0.8191430363
   10      C       2.3108158336     1.9402348380    -0.4452948921
   11      C       1.8660244546     0.5357081610     0.0957847779
   12      C       3.0660761537    -0.4957827658     0.1913753968
   13      C       4.4661378229     0.0819883244    -0.2453787581
   14      O       4.9707801018     0.0051247009    -1.3874779680
   15      O      -2.7574630147     0.9688299934     0.6014776831
   16      O       5.1485596326     0.5949734672     0.9062747462
   17      O       3.5003210008     2.3224218803    -0.5339194513
   18      C       6.4314273135     1.2022990078     0.4919179256
   19      C       1.4033241104     0.5906987233     1.6235939496
   20      C       0.5784217584    -0.7306317776     1.8975839090
   21      C       1.7381354515    -1.7898653876     1.9725361188
   22      C       3.0079134515    -0.8804561723     1.7288393501
   23      O       2.6521194354     0.3974411816     2.3875623108
   24      H       1.0442395209     0.1106038290    -0.5151545579
   25      H       2.8612518895    -1.3702339913    -0.4521396607
   26      H       0.9127351001     1.5352828636     1.9292547350
   27      H       0.0251155132    -0.6632382061     2.8478224833
   28      H      -0.1279798965    -0.9424842362     1.0767715071
   29      H       1.7893701254    -2.2643575548     2.9653963100
   30      H       1.6407730626    -2.5774702773     1.2084484131
   31      H       3.9578422667    -1.2734461247     2.1384165715
   32      O      -0.5847727418    -0.6919597500    -0.9713379476
   33      C      -2.3121457058     1.7151562308     1.8029375701
   34      C      -3.7372512334    -2.6755605668    -0.0895731262
   35      C      -4.8606363059    -3.2758368820    -1.0192476052
   36      C      -4.2066036447    -3.0833575819    -2.4382267199
   37      C      -2.8002781256    -2.4767961384    -2.0511800900
   38      O      -2.4819462388    -3.1040903377    -0.7497107372
   39      H      -4.7640169924    -0.7056720201    -0.3483935377
   40      H      -3.6094634607    -0.3938171596    -2.3936560471
   41      H      -1.4041604303     1.2670393950     2.2526128907
   42      H      -3.7509268131    -3.0017561468     0.9689097224
   43      H      -5.0184624384    -4.3418486225    -0.7902462919
   44      H      -5.8205850237    -2.7453880520    -0.9138934305
   45      H      -4.0800341343    -4.0450827995    -2.9600400405
   46      H      -4.7852485813    -2.4040757556    -3.0845229038
   47      H      -1.9886153387    -2.6646430955    -2.7805717237
   48      H      -3.1072574087     1.7448362710     2.5753387232
   49      H      -2.0921028029     2.7431201438     1.4622397175
   50      H       6.9238794528     1.5425849079     1.4213751372
   51      H       6.2636771976     2.0696385971    -0.1789032575
   52      H       7.0835728536     0.4721267982    -0.0301115704
   53      H      -0.7213906341     3.2923708473    -0.9083723093
   54      H      -0.3565626286     1.7356074289    -0.0947744398
   55      H      -0.3090508102     2.3521577367    -3.1423710073
   56      H       0.5209715935     0.8993105516    -2.4645263898
 ----------------------------------------------------------------

    8   -1510.2854973421      9.15E-09 Convergence criterion met
 Total energy in the final basis set = -1510.28549734
 Final energy is   -1510.28549734211
 **  OPTIMIZATION CONVERGED  **

                    Orbital Energies (a.u.)
 --------------------------------------------------------------

 Alpha MOs
 -- Occupied --
-18.960 -18.949 -18.935 -18.910 -18.899 -18.898 -18.893 -18.880
-18.879 -18.845 -10.124 -10.114 -10.099 -10.086 -10.083 -10.079
-10.077 -10.072 -10.068 -10.054 -10.053 -10.051 -10.048 -10.043
-10.030 -10.029 -10.022 -10.019 -10.008 -10.005  -1.035  -1.025
 -1.008  -0.987  -0.981  -0.961  -0.959  -0.951  -0.938  -0.912
 -0.776  -0.751  -0.736  -0.723  -0.710  -0.709  -0.696  -0.676
 -0.642  -0.629  -0.603  -0.588  -0.557  -0.548  -0.536  -0.529
 -0.525  -0.508  -0.493  -0.478  -0.478  -0.468  -0.455  -0.452
 -0.441  -0.429  -0.427  -0.422  -0.419  -0.405  -0.401  -0.398
 -0.394  -0.391  -0.386  -0.377  -0.366  -0.363  -0.358  -0.352
 -0.344  -0.341  -0.337  -0.329  -0.323  -0.322  -0.321  -0.318
 -0.315  -0.312  -0.304  -0.299  -0.298  -0.293  -0.282  -0.274
 -0.268  -0.266  -0.262  -0.245  -0.245  -0.232  -0.224  -0.205
 -0.193  -0.178  -0.170  -0.167  -0.155  -0.153  -0.148  -0.135
 -0.127

          Ground-State Mulliken Net Atomic Charges

     Atom                 Charge (a.u.)
  ----------------------------------------
      1 O                    -0.204898
      2 C                     0.210360
      3 C                    -0.078666
      4 C                    -0.077900
      5 C                     0.219565
      6 O                    -0.162069
      7 C                    -0.052733
      8 C                    -0.051834
      9 O                    -0.170244
     10 C                     0.207147
     11 C                    -0.102955
     12 C                    -0.080736
     13 C                     0.213210
     14 O                    -0.226658
     15 O                    -0.174848
     16 O                    -0.169330
     17 O                    -0.193363
     18 C                    -0.127053
     19 C                     0.020492
     20 C                    -0.151884
     21 C                    -0.143727
     22 C                     0.026546
     23 O                    -0.187608
     24 H                     0.104412
     25 H                     0.081722
     26 H                     0.071818
     27 H                     0.074084
     28 H                     0.085965
     29 H                     0.075391
     30 H                     0.075517
     31 H                     0.086047
     32 O                    -0.216174
     33 C                    -0.132042
     34 C                     0.024110
     35 C                    -0.143326
     36 C                    -0.144212
     37 C                     0.026576
     38 O                    -0.185662
     39 H                     0.087293
     40 H                     0.089966
     41 H                     0.093960
     42 H                     0.093153
     43 H                     0.080581
     44 H                     0.074372
     45 H                     0.080591
     46 H                     0.074846
     47 H                     0.084773
     48 H                     0.091277
     49 H                     0.091630
     50 H                     0.085822
     51 H                     0.092309
     52 H                     0.084093
     53 H                     0.091453
     54 H                     0.089372
     55 H                     0.096762
     56 H                     0.092707
  ----------------------------------------
  Sum of atomic charges =    -0.000000

                    Cartesian Multipole Moments
 -----------------------------------------------------------------
    Charge (ESU x 10^10)
                -0.0000
    Dipole Moment (Debye)
         X      -5.8432      Y      -0.4997      Z      -1.2247
       Tot       5.9910
    Quadrupole Moments (Debye-Ang)
        XX    -157.3007     XY      -4.5456     YY    -161.9691
        XZ       7.7757     YZ       4.1476     ZZ    -161.3992

 Total job time:  110.25s(wall), 5259.03s(cpu)
        *  Thank you very much for using Q-Chem.  Have a nice day.  *
