 Q-Chem 5.0, Q-Chem, Inc., Pleasanton, CA (2017)
 Q-Chem 5.0.1 for Intel X86 EM64T Linux

User input:
--------------------------------------------------------------
$molecule
0  1
O -3.94934 -3.66094 2.70899
C -3.26408 -4.56952 2.26188
C -3.36658 -6.02376 2.66595
C -3.25463 -6.34603 4.1651
C -3.23088 -5.16427 5.10902
O -2.48476 -5.46662 6.21234
C -2.59045 -4.4858 7.24969
C -3.01452 -3.14351 6.66269
O -3.04621 -2.14582 7.6954
C -3.43521 -0.90857 7.29914
C -3.95202 -0.06154 8.4376
C -4.16806 -0.81452 9.75844
C -3.5158 -2.17901 9.85551
O -3.65847 -2.96885 10.77766
O -2.31499 -4.27397 1.335
O -2.1439 -1.99987 9.71957
O -3.31847 -0.4896 6.15491
C -1.11876 -2.87848 10.03672
C -3.04733 1.09461 8.90112
C -3.90797 2.17722 9.55223
C -4.32385 1.47894 10.83623
C -3.50349 0.18679 10.7278
O -2.35313 0.58302 10.01377
H -4.9208 0.35117 8.07395
H -5.25043 -0.97759 9.95696
H -2.42591 1.5215 8.08439
H -3.22469 3.01797 9.81064
H -4.74439 2.56678 8.93295
H -3.98309 2.09651 11.69654
H -5.41 1.26107 10.92799
H -3.32844 -0.25978 11.73103
O -4.31848 -4.60828 5.09826
C -2.08575 -3.00984 0.83337
C -4.75548 -6.62055 2.35721
C -4.64898 -8.13859 2.21297
C -4.41702 -8.54397 3.65465
C -4.54173 -7.18282 4.34849
O -5.47626 -6.4882 3.55752
H -2.60479 -6.57968 2.0722
H -2.3447 -6.95742 4.36599
H -1.7977 -2.31807 1.65358
H -5.22687 -6.18005 1.45123
H -5.65113 -8.50903 1.8986
H -3.88453 -8.49517 1.48957
H -5.24595 -9.21698 3.9678
H -3.4373 -9.02636 3.86147
H -4.80544 -7.31273 5.42129
H -2.99738 -2.63011 0.32405
H -1.25824 -3.05549 0.09605
H -0.46527 -3.00939 9.15123
H -1.49159 -3.87576 10.35324
H -0.5068 -2.44175 10.85198
H -2.31372 -2.82703 5.85471
H -4.07431 -3.05722 6.38872
H -1.57744 -4.36261 7.67698
H -3.27823 -4.83082 8.05078
$end

$opt
CONSTRAINT
tors           1           2           3           4     -54.189
tors           3           4           5           6    -149.101
tors           4           5           6           7    -170.433
tors           5           6           7           8     -23.212
tors           6           7           8           9    -176.781
tors           7           8           9          10    -178.832
tors           8           9          10          11    +158.133
tors           9          10          11          12      -9.978
tors          11          12          13          14    -173.974
ENDCONSTRAINT
$end

$rem
JOBTYPE                   OPT
METHOD                    B3LYP
DFT_D                     d3_op
BASIS                     STO-3G
GEOM_OPT_MAX_CYCLES       100
GEOM_OPT_TOL_GRADIENT     300
GEOM_OPT_TOL_DISPLACEMENT 1200
GEOM_OPT_TOL_ENERGY       100
SYMMETRY                  False
THRESH                    12
SCF_CONVERGENCE           8
MAX_SUB_FILE_NUM          128
MEM_STATIC                400
MEM_TOTAL                 4000
$end
--------------------------------------------------------------

   16   -1510.0423026503      5.30E-09 Convergence criterion met
 Total energy in the final basis set = -1510.04230265
   14   -1510.1255655519      3.91E-09 Convergence criterion met
 Total energy in the final basis set = -1510.12556555
   15   -1510.1751285956      2.92E-09 Convergence criterion met
 Total energy in the final basis set = -1510.17512860
   14   -1510.2059875490      8.88E-09 Convergence criterion met
 Total energy in the final basis set = -1510.20598755
   14   -1510.2234268721      5.25E-09 Convergence criterion met
 Total energy in the final basis set = -1510.22342687
   13   -1510.2344467830      7.17E-09 Convergence criterion met
 Total energy in the final basis set = -1510.23444678
   13   -1510.2411290974      4.19E-09 Convergence criterion met
 Total energy in the final basis set = -1510.24112910
   13   -1510.2452484946      5.11E-09 Convergence criterion met
   11   -1510.2508383402      9.15E-09 Convergence criterion met
 Total energy in the final basis set = -1510.25083834
   11   -1510.2508541417      5.62E-09 Convergence criterion met
 Total energy in the final basis set = -1510.25085414
   11   -1510.2508646897      3.93E-09 Convergence criterion met
 Total energy in the final basis set = -1510.25086469
    9   -1510.2508744542      9.97E-09 Convergence criterion met
 Total energy in the final basis set = -1510.25087445
    9   -1510.2508787503      8.29E-09 Convergence criterion met
 Total energy in the final basis set = -1510.25087875
    9   -1510.2508805832      9.62E-09 Convergence criterion met
 Total energy in the final basis set = -1510.25088058

             Standard Nuclear Orientation (Angstroms)
    I     Atom           X                Y                Z
 ----------------------------------------------------------------
    1      O      -4.0928983522     2.3413447430     0.9276637651
    2      C      -4.6842236169     1.8803393928    -0.0701741627
    3      C      -5.0984727121     0.3983285475    -0.3769318955
    4      C      -3.9509705013    -0.6965522484    -0.3135130555
    5      C      -2.4678940417    -0.2021516413    -0.1599724349
    6      O      -1.6835796325    -1.1911602189    -0.8419356656
    7      C      -0.2075374567    -1.1120926064    -0.6824696498
    8      C       0.4647255594     0.2533181530    -0.2916802474
    9      O       1.9213625328    -0.0624322430    -0.3126585010
   10      C       2.6739756030     1.0973022442     0.0554949873
   11      C       4.1151811645     0.7597406834     0.5880011816
   12      C       4.5578257952    -0.7209777456     0.9082813451
   13      C       4.0973182395    -1.8664026043    -0.0675309595
   14      O       4.2848854908    -3.0905954885     0.1236750022
   15      O      -5.1151118048     2.6823636041    -1.1825057315
   16      O       3.7369897807    -1.3112416394    -1.3354058607
   17      O       2.2071234390     2.2586228258     0.0246740435
   18      C       3.4398035262    -2.3864863967    -2.3073399363
   19      C       5.3652988656     1.3040873940    -0.2496582939
   20      C       6.3905142226     1.8549048651     0.8136012155
   21      C       6.7951644725     0.5094927837     1.5276344746
   22      C       6.1170186758    -0.5668258772     0.5847907311
   23      O       6.0588414980     0.0930154124    -0.7426387766
   24      H       4.1309211494     1.2982385032     1.5550404315
   25      H       4.3514564996    -1.0135044337     1.9525282969
   26      H       5.1143103203     1.9854707159    -1.0853338313
   27      H       7.2552933582     2.3157171490     0.3089428295
   28      H       5.9422026216     2.5916832436     1.4989309815
   29      H       7.8872866390     0.3697084655     1.5505145960
   30      H       6.4111624184     0.4467359809     2.5588530114
   31      H       6.6558151256    -1.5320649507     0.5155077547
   32      O      -2.0280241748     0.7837845634     0.4635738051
   33      C      -4.7525267235     4.0994606023    -0.9515834246
   34      C      -6.0545137415    -0.1274106003     0.7848183377
   35      C      -6.7648308963    -1.4560281850     0.3073491093
   36      C      -5.5983981533    -2.5000802707     0.4645513042
   37      C      -4.4212417768    -1.5629034671     0.9421556126
   38      O      -5.0974461574    -0.5835069216     1.8179206621
   39      H      -5.6001370319     0.3860085313    -1.3601415984
   40      H      -3.9771728913    -1.3184601552    -1.2257925409
   41      H      -3.6580765683     4.2242232705    -0.8212841160
   42      H      -6.7319039329     0.6431073146     1.2013657028
   43      H      -7.6166698968    -1.6971884240     0.9628245254
   44      H      -7.1292363427    -1.3783751919    -0.7295608886
   45      H      -5.8292541988    -3.2479873206     1.2399228777
   46      H      -5.3615262342    -3.0241269260    -0.4749987797
   47      H      -3.6016915461    -2.0727913050     1.4848415336
   48      H      -5.2602180991     4.5114183706    -0.0554451117
   49      H      -5.0846876050     4.6510578451    -1.8502401363
   50      H       2.3552957850    -2.3859914555    -2.5369711417
   51      H       3.7332244034    -3.3655512196    -1.8771322070
   52      H       4.0103552698    -2.1833080953    -3.2338526678
   53      H       0.2173735222     1.0522979187    -1.0231037901
   54      H       0.1453297385     0.5935387185     0.7136953900
   55      H       0.2093413324    -1.4415767734    -1.6579132537
   56      H       0.0898447632    -1.8675161701     0.0796796618
 ----------------------------------------------------------------

    9   -1510.2508807558      6.70E-09 Convergence criterion met
 Total energy in the final basis set = -1510.25088076
 Final energy is   -1510.25088075577
 **  OPTIMIZATION CONVERGED  **

                    Orbital Energies (a.u.)
 --------------------------------------------------------------

 Alpha MOs
 -- Occupied --
-18.935 -18.930 -18.929 -18.927 -18.892 -18.888 -18.883 -18.872
-18.870 -18.866 -10.105 -10.099 -10.095 -10.092 -10.077 -10.069
-10.063 -10.061 -10.060 -10.060 -10.059 -10.054 -10.039 -10.039
-10.037 -10.036 -10.023 -10.021 -10.021 -10.019  -1.014  -1.010
 -1.004  -1.003  -0.973  -0.971  -0.943  -0.934  -0.928  -0.928
 -0.764  -0.762  -0.728  -0.723  -0.715  -0.704  -0.696  -0.659
 -0.656  -0.618  -0.598  -0.585  -0.546  -0.544  -0.539  -0.537
 -0.517  -0.510  -0.481  -0.471  -0.461  -0.454  -0.449  -0.448
 -0.436  -0.433  -0.426  -0.413  -0.411  -0.407  -0.405  -0.398
 -0.383  -0.377  -0.375  -0.369  -0.363  -0.361  -0.351  -0.346
 -0.339  -0.337  -0.336  -0.333  -0.330  -0.329  -0.320  -0.313
 -0.313  -0.308  -0.307  -0.303  -0.295  -0.290  -0.282  -0.274
 -0.271  -0.255  -0.248  -0.247  -0.237  -0.237  -0.234  -0.179
 -0.176  -0.174  -0.166  -0.158  -0.153  -0.147  -0.146  -0.143
 -0.137

          Ground-State Mulliken Net Atomic Charges

     Atom                 Charge (a.u.)
  ----------------------------------------
      1 O                    -0.198161
      2 C                     0.206025
      3 C                    -0.080215
      4 C                    -0.078981
      5 C                     0.209063
      6 O                    -0.175068
      7 C                    -0.049587
      8 C                    -0.050931
      9 O                    -0.170313
     10 C                     0.209274
     11 C                    -0.080245
     12 C                    -0.076068
     13 C                     0.213839
     14 O                    -0.222711
     15 O                    -0.173466
     16 O                    -0.159140
     17 O                    -0.213949
     18 C                    -0.133862
     19 C                     0.027293
     20 C                    -0.140741
     21 C                    -0.145906
     22 C                     0.023878
     23 O                    -0.188951
     24 H                     0.084178
     25 H                     0.085398
     26 H                     0.087040
     27 H                     0.077915
     28 H                     0.075501
     29 H                     0.078830
     30 H                     0.074008
     31 H                     0.084565
     32 O                    -0.201292
     33 C                    -0.129742
     34 C                     0.026651
     35 C                    -0.144644
     36 C                    -0.142823
     37 C                     0.026898
     38 O                    -0.184572
     39 H                     0.086302
     40 H                     0.086898
     41 H                     0.090898
     42 H                     0.083554
     43 H                     0.078454
     44 H                     0.074332
     45 H                     0.078546
     46 H                     0.074718
     47 H                     0.083382
     48 H                     0.087421
     49 H                     0.088372
     50 H                     0.079686
     51 H                     0.100970
     52 H                     0.087652
     53 H                     0.091976
     54 H                     0.103206
     55 H                     0.089151
     56 H                     0.085495
  ----------------------------------------
  Sum of atomic charges =     0.000000

                    Cartesian Multipole Moments
 -----------------------------------------------------------------
    Charge (ESU x 10^10)
                 0.0000
    Dipole Moment (Debye)
         X      -1.0138      Y      -0.9470      Z      -1.1521
       Tot       1.8033
    Quadrupole Moments (Debye-Ang)
        XX    -144.1401     XY       7.3519     YY    -161.0352
        XZ      13.5598     YZ      -0.7089     ZZ    -159.6937

 Total job time:  73.72s(wall), 3502.76s(cpu)
        *  Thank you very much for using Q-Chem.  Have a nice day.  *
