 Q-Chem 5.0, Q-Chem, Inc., Pleasanton, CA (2017)
 Q-Chem 5.0.1 for Intel X86 EM64T Linux

User input:
--------------------------------------------------------------
$molecule
0  1
O -4.0928983522 2.341344743 0.9276637651
C -4.6842236169 1.8803393928 -0.0701741627
C -5.0984727121 0.3983285475 -0.3769318955
C -3.9509705013 -0.6965522484 -0.3135130555
C -2.4678940417 -0.2021516413 -0.1599724349
O -1.6835796325 -1.1911602189 -0.8419356656
C -0.2075374567 -1.1120926064 -0.6824696498
C 0.4647255594 0.253318153 -0.2916802474
O 1.9213625328 -0.062432243 -0.312658501
C 2.673975603 1.0973022442 0.0554949873
C 4.1151811645 0.7597406834 0.5880011816
C 4.5578257952 -0.7209777456 0.9082813451
C 4.0973182395 -1.8664026043 -0.0675309595
O 4.2848854908 -3.0905954885 0.1236750022
O -5.1151118048 2.6823636041 -1.1825057315
O 3.7369897807 -1.3112416394 -1.3354058607
O 2.207123439 2.2586228258 0.0246740435
C 3.4398035262 -2.3864863967 -2.3073399363
C 5.3652988656 1.304087394 -0.2496582939
C 6.3905142226 1.8549048651 0.8136012155
C 6.7951644725 0.5094927837 1.5276344746
C 6.1170186758 -0.5668258772 0.5847907311
O 6.058841498 0.0930154124 -0.7426387766
H 4.1309211494 1.2982385032 1.5550404315
H 4.3514564996 -1.0135044337 1.9525282969
H 5.1143103203 1.9854707159 -1.0853338313
H 7.2552933582 2.315717149 0.3089428295
H 5.9422026216 2.5916832436 1.4989309815
H 7.887286639 0.3697084655 1.550514596
H 6.4111624184 0.4467359809 2.5588530114
H 6.6558151256 -1.5320649507 0.5155077547
O -2.0280241748 0.7837845634 0.4635738051
C -4.7525267235 4.0994606023 -0.9515834246
C -6.0545137415 -0.1274106003 0.7848183377
C -6.7648308963 -1.456028185 0.3073491093
C -5.5983981533 -2.5000802707 0.4645513042
C -4.4212417768 -1.5629034671 0.9421556126
O -5.0974461574 -0.5835069216 1.8179206621
H -5.6001370319 0.3860085313 -1.3601415984
H -3.9771728913 -1.3184601552 -1.2257925409
H -3.6580765683 4.2242232705 -0.821284116
H -6.7319039329 0.6431073146 1.2013657028
H -7.6166698968 -1.697188424 0.9628245254
H -7.1292363427 -1.3783751919 -0.7295608886
H -5.8292541988 -3.2479873206 1.2399228777
H -5.3615262342 -3.024126926 -0.4749987797
H -3.6016915461 -2.072791305 1.4848415336
H -5.2602180991 4.5114183706 -0.0554451117
H -5.084687605 4.6510578451 -1.8502401363
H 2.355295785 -2.3859914555 -2.5369711417
H 3.7332244034 -3.3655512196 -1.877132207
H 4.0103552698 -2.1833080953 -3.2338526678
H 0.2173735222 1.0522979187 -1.0231037901
H 0.1453297385 0.5935387185 0.71369539
H 0.2093413324 -1.4415767734 -1.6579132537
H 0.0898447632 -1.8675161701 0.0796796618
$end

$rem
JOBTYPE                   OPT
METHOD                    B3LYP
DFT_D                     d3_op
BASIS                     STO-3G
GEOM_OPT_MAX_CYCLES       100
GEOM_OPT_TOL_GRADIENT     300
GEOM_OPT_TOL_DISPLACEMENT 1200
GEOM_OPT_TOL_ENERGY       100
SYMMETRY                  False
THRESH                    12
SCF_CONVERGENCE           8
MAX_SUB_FILE_NUM          128
MEM_STATIC                400
MEM_TOTAL                 4000
$end
--------------------------------------------------------------

   16   -1510.2508524272      5.60E-09 Convergence criterion met
 Total energy in the final basis set = -1510.25085243
   13   -1510.2550084430      7.88E-09 Convergence criterion met
 Total energy in the final basis set = -1510.25500844
   14   -1510.2585176292      6.33E-09 Convergence criterion met
 Total energy in the final basis set = -1510.25851763
   13   -1510.2620470501      6.64E-09 Convergence criterion met
 Total energy in the final basis set = -1510.26204705
   13   -1510.2654730490      8.06E-09 Convergence criterion met
 Total energy in the final basis set = -1510.26547305
   13   -1510.2687106278      7.95E-09 Convergence criterion met
 Total energy in the final basis set = -1510.26871063
   13   -1510.2715788556      3.81E-09 Convergence criterion met
 Total energy in the final basis set = -1510.27157886
   13   -1510.2742210778      4.05E-09 Convergence criterion met
   11   -1510.3015405458      3.67E-09 Convergence criterion met
 Total energy in the final basis set = -1510.30154055
   11   -1510.3015423411      3.72E-09 Convergence criterion met
 Total energy in the final basis set = -1510.30154234
    9   -1510.3015475514      6.64E-09 Convergence criterion met
 Total energy in the final basis set = -1510.30154755
   10   -1510.3015549486      6.40E-09 Convergence criterion met
 Total energy in the final basis set = -1510.30155495
   10   -1510.3015601528      4.76E-09 Convergence criterion met
 Total energy in the final basis set = -1510.30156015
   10   -1510.3015646282      5.60E-09 Convergence criterion met
 Total energy in the final basis set = -1510.30156463

             Standard Nuclear Orientation (Angstroms)
    I     Atom           X                Y                Z
 ----------------------------------------------------------------
    1      O      -3.9403098676     1.8741205892    -0.9420491589
    2      C      -3.1070329143     0.9463945684    -0.8917397688
    3      C      -3.3879677142    -0.5940470823    -1.0391109637
    4      C      -2.9601290483    -1.4778372866     0.2088314561
    5      C      -2.3384337741    -0.6423114320     1.3740049251
    6      O      -1.0988639920    -1.2566592225     1.7706643761
    7      C      -0.4546988576    -0.4562546236     2.8409427284
    8      C       0.2119508934     0.8567208959     2.2922816513
    9      O       1.6112993311     0.5526346155     1.9066364258
   10      C       2.0930337589     1.4860999039     0.9310644165
   11      C       3.6129433119     1.1799209909     0.6704507658
   12      C       3.8984434788    -0.2910499627     0.1496411948
   13      C       2.5910754378    -1.1272307348    -0.0517874710
   14      O       2.3663329694    -2.2984435043     0.3217737277
   15      O      -1.6965289802     1.1423831023    -0.7316294586
   16      O       1.6620703716    -0.3031352083    -0.7590917364
   17      O       1.4282189704     2.4337628307     0.4552558676
   18      C       0.3457844330    -0.9718722963    -0.8763924705
   19      C       4.1747704004     2.0482468162    -0.5296636382
   20      C       5.7513815914     2.0334746664    -0.4546254756
   21      C       6.0619843065     0.5705427876    -0.9460479526
   22      C       4.6067075331     0.0293500156    -1.2395729998
   23      O       3.8789549933     1.2227357184    -1.7238899501
   24      H       4.1640330074     1.3765326645     1.6089378703
   25      H       4.5644200798    -0.8477262365     0.8315077140
   26      H       3.7007457746     3.0447343801    -0.6227981626
   27      H       6.1765213702     2.7871599212    -1.1364131174
   28      H       6.1220761590     2.2282087722     0.5642492517
   29      H       6.6642651418     0.5724393204    -1.8683503042
   30      H       6.5829277950    -0.0328598798    -0.1855717513
   31      H       4.5490694851    -0.7894072846    -1.9829696181
   32      O      -2.8106265133     0.3830707165     1.9102976201
   33      C      -1.3580064624     2.5841983288    -0.6571262791
   34      C      -4.9459996357    -0.8734392513    -1.0934877771
   35      C      -5.1757946680    -2.3254579596    -1.6665675281
   36      C      -4.7503245608    -3.2075621869    -0.4342303185
   37      C      -4.3701241123    -2.0952426139     0.6215575971
   38      O      -5.3202907155    -0.9995408715     0.3352366465
   39      H      -2.8757875393    -0.9484090403    -1.9524837027
   40      H      -2.2427247504    -2.2654225971    -0.0784090048
   41      H      -2.0265019007     3.1091548466     0.0534044460
   42      H      -5.5278040390    -0.0627581742    -1.5734806781
   43      H      -6.2366363372    -2.4756586946    -1.9223374376
   44      H      -4.5646190994    -2.5215432233    -2.5621819023
   45      H      -5.5905106807    -3.8152603663    -0.0624349978
   46      H      -3.9030210726    -3.8754814561    -0.6575789092
   47      H      -4.4422017401    -2.4065740197     1.6817747276
   48      H      -1.4534351573     3.0615959859    -1.6531959385
   49      H      -0.3025087819     2.6310626566    -0.3048617066
   50      H       0.0646740918    -1.4637323379     0.0783624574
   51      H       0.3518870797    -1.7201738015    -1.6941473643
   52      H      -0.3922037617    -0.1652610813    -1.0814295493
   53      H      -0.3654028553     1.2405614350     1.4271951520
   54      H       0.2060797097     1.6353912747     3.0868024111
   55      H       0.3200722826    -1.1142250638     3.2839336845
   56      H      -1.2012459966    -0.1833691986     3.6171886810
 ----------------------------------------------------------------

    9   -1510.3015654474      7.59E-09 Convergence criterion met
 Total energy in the final basis set = -1510.30156545
 Final energy is   -1510.30156544737
 **  OPTIMIZATION CONVERGED  **

                    Orbital Energies (a.u.)
 --------------------------------------------------------------

 Alpha MOs
 -- Occupied --
-18.944 -18.937 -18.936 -18.925 -18.890 -18.887 -18.883 -18.881
-18.881 -18.868 -10.109 -10.106 -10.102 -10.092 -10.081 -10.076
-10.064 -10.060 -10.059 -10.058 -10.047 -10.042 -10.041 -10.039
-10.035 -10.032 -10.023 -10.021 -10.021 -10.019  -1.022  -1.016
 -1.011  -1.000  -0.972  -0.969  -0.946  -0.940  -0.938  -0.928
 -0.767  -0.763  -0.731  -0.724  -0.715  -0.706  -0.700  -0.657
 -0.646  -0.621  -0.599  -0.584  -0.549  -0.546  -0.539  -0.537
 -0.513  -0.511  -0.487  -0.476  -0.466  -0.464  -0.454  -0.441
 -0.436  -0.431  -0.429  -0.423  -0.411  -0.406  -0.405  -0.400
 -0.395  -0.384  -0.372  -0.368  -0.363  -0.356  -0.355  -0.354
 -0.346  -0.337  -0.336  -0.333  -0.331  -0.327  -0.323  -0.313
 -0.309  -0.307  -0.305  -0.300  -0.297  -0.290  -0.288  -0.275
 -0.273  -0.262  -0.253  -0.250  -0.237  -0.236  -0.233  -0.189
 -0.180  -0.178  -0.167  -0.162  -0.161  -0.154  -0.146  -0.145
 -0.143

          Ground-State Mulliken Net Atomic Charges

     Atom                 Charge (a.u.)
  ----------------------------------------
      1 O                    -0.203514
      2 C                     0.215864
      3 C                    -0.079309
      4 C                    -0.079903
      5 C                     0.210228
      6 O                    -0.168852
      7 C                    -0.048931
      8 C                    -0.052733
      9 O                    -0.176634
     10 C                     0.225814
     11 C                    -0.077372
     12 C                    -0.079409
     13 C                     0.210917
     14 O                    -0.214855
     15 O                    -0.179436
     16 O                    -0.171923
     17 O                    -0.218804
     18 C                    -0.155764
     19 C                     0.024840
     20 C                    -0.143991
     21 C                    -0.144002
     22 C                     0.026031
     23 O                    -0.185614
     24 H                     0.083594
     25 H                     0.084160
     26 H                     0.089598
     27 H                     0.078124
     28 H                     0.072736
     29 H                     0.077930
     30 H                     0.073669
     31 H                     0.082914
     32 O                    -0.210480
     33 C                    -0.144284
     34 C                     0.024825
     35 C                    -0.144097
     36 C                    -0.143700
     37 C                     0.026339
     38 O                    -0.185703
     39 H                     0.085294
     40 H                     0.088271
     41 H                     0.090037
     42 H                     0.091791
     43 H                     0.079130
     44 H                     0.073684
     45 H                     0.078920
     46 H                     0.074542
     47 H                     0.083311
     48 H                     0.083061
     49 H                     0.115780
     50 H                     0.095655
     51 H                     0.072555
     52 H                     0.105420
     53 H                     0.103759
     54 H                     0.086024
     55 H                     0.099506
     56 H                     0.094984
  ----------------------------------------
  Sum of atomic charges =     0.000000

                    Cartesian Multipole Moments
 -----------------------------------------------------------------
    Charge (ESU x 10^10)
                 0.0000
    Dipole Moment (Debye)
         X       2.1442      Y      -1.3028      Z       0.5241
       Tot       2.5631
    Quadrupole Moments (Debye-Ang)
        XX    -158.0903     XY      14.5136     YY    -161.8617
        XZ       8.2604     YZ       4.8470     ZZ    -154.3123

 Total job time:  186.88s(wall), 8906.45s(cpu)
        *  Thank you very much for using Q-Chem.  Have a nice day.  *
