 Q-Chem 5.0, Q-Chem, Inc., Pleasanton, CA (2017)
 Q-Chem 5.0.1 for Intel X86 EM64T Linux

User input:
--------------------------------------------------------------
$molecule
0  1
O 5.9615700333 -2.4988703292 0.0609542018
C 5.1410876443 -1.605687001 -0.2426357718
C 5.355357866 -0.060389453 -0.0809342922
C 4.1248996899 0.8809898938 -0.4099841682
C 2.7158385141 0.1682788567 -0.4466115179
O 2.1698451306 0.3221086224 -1.7732891394
C 0.7261722071 0.6534928851 -1.8471713669
C -0.2046962941 0.3757022865 -0.6112061745
O -1.5696612306 0.6697174876 -1.1283168632
C -2.5340306364 0.5349851722 -0.077637101
C -3.9342479386 0.9458638166 -0.6578406449
C -5.0258927884 -0.2039232973 -0.5736151574
C -4.4357177955 -1.5654388144 -0.0592024902
O -3.3133134112 -2.0371320341 -0.3476204777
O 3.9172215275 -1.8577894095 -0.937643954
O -5.3974853668 -2.2338645488 0.7588388851
O -2.2524371564 0.2298197278 1.1007612212
C -4.8497884939 -3.5280106338 1.2277151582
C -4.6178957672 2.0556983745 0.2533907308
C -5.8304479299 2.6818910636 -0.5442729509
C -6.9011958818 1.5352491695 -0.4214203305
C -6.0942268839 0.4533413312 0.3975482318
O -5.2694150114 1.2641577285 1.3214108819
H -3.7900115857 1.2917057335 -1.6960284007
H -5.4646772036 -0.3922751641 -1.5717201364
H -3.9126518543 2.788228643 0.6916914915
H -6.1728369726 3.6096635566 -0.059049181
H -5.5651778277 2.9071094017 -1.5895929377
H -7.7842144184 1.8669990424 0.1474023514
H -7.2336381179 1.1548151082 -1.400538118
H -6.7037945355 -0.2802342918 0.958842222
O 2.1147159633 -0.3159959511 0.5345444068
C 3.6917356506 -3.3112775496 -1.098089241
C 5.7153447235 0.388785165 1.4026460673
C 6.5507563832 1.7233622624 1.3023607573
C 5.4354115741 2.7338041002 0.8414237667
C 4.1487099382 1.8155725331 0.8771534279
O 4.4242185115 0.8466692896 1.9637023455
H 6.1984407961 0.1936789459 -0.7511903076
H 4.2707592051 1.4319721285 -1.3547321299
H 3.5804720655 -3.8142708576 -0.1158647236
H 6.1575378042 -0.4098045081 2.0296276974
H 6.955588964 1.9955152993 2.2903281489
H 7.3843310085 1.6472202215 0.5859113548
H 5.3317614204 3.5746522962 1.5451767605
H 5.6211293798 3.139223433 -0.1662293346
H 3.1979033201 2.3487849412 1.0713732197
H 4.5242774744 -3.7919523954 -1.651471775
H 2.7529851262 -3.4107412129 -1.6734522382
H -5.6255192279 -3.967587723 1.8813236041
H -3.9124103846 -3.3873354324 1.8034913162
H -4.6445902223 -4.2144460393 0.3807421289
H -0.1329883391 -0.6791525348 -0.2730238974
H 0.0392743668 1.0322496307 0.2500868339
H 0.3222607326 0.0825867472 -2.7111600362
H 0.6466610334 1.735935226 -2.0986671029
$end

$rem
JOBTYPE                   OPT
METHOD                    B3LYP
DFT_D                     d3_op
BASIS                     STO-3G
GEOM_OPT_MAX_CYCLES       100
GEOM_OPT_TOL_GRADIENT     300
GEOM_OPT_TOL_DISPLACEMENT 1200
GEOM_OPT_TOL_ENERGY       100
SYMMETRY                  False
THRESH                    12
SCF_CONVERGENCE           8
MAX_SUB_FILE_NUM          128
MEM_STATIC                400
MEM_TOTAL                 4000
$end
--------------------------------------------------------------

   16   -1510.2623250344      5.44E-09 Convergence criterion met
 Total energy in the final basis set = -1510.26232503
   14   -1510.2659839485      9.52E-09 Convergence criterion met
 Total energy in the final basis set = -1510.26598395
   15   -1510.2693438755      4.89E-09 Convergence criterion met
 Total energy in the final basis set = -1510.26934388
   15   -1510.2724752068      4.57E-09 Convergence criterion met
 Total energy in the final basis set = -1510.27247521
   15   -1510.2742986106      4.81E-09 Convergence criterion met
 Total energy in the final basis set = -1510.27429861
   13   -1510.2758324106      8.77E-09 Convergence criterion met
 Total energy in the final basis set = -1510.27583241
   13   -1510.2773963597      9.69E-09 Convergence criterion met
 Total energy in the final basis set = -1510.27739636
   13   -1510.2790273922      7.71E-09 Convergence criterion met
   12   -1510.2911338480      5.39E-09 Convergence criterion met
 Total energy in the final basis set = -1510.29113385
   12   -1510.2911089092      7.21E-09 Convergence criterion met
 Total energy in the final basis set = -1510.29110891
   11   -1510.2911388821      7.77E-09 Convergence criterion met
 Total energy in the final basis set = -1510.29113888
   11   -1510.2911401798      4.06E-09 Convergence criterion met
 Total energy in the final basis set = -1510.29114018
   10   -1510.2911374857      4.60E-09 Convergence criterion met
 Total energy in the final basis set = -1510.29113749
    9   -1510.2911369426      6.30E-09 Convergence criterion met
 Total energy in the final basis set = -1510.29113694

             Standard Nuclear Orientation (Angstroms)
    I     Atom           X                Y                Z
 ----------------------------------------------------------------
    1      O       3.5937169589     1.2264365440     2.7745552028
    2      C       3.2681241889     0.5222342070     1.7947631700
    3      C       4.2435500224    -0.0763161779     0.7128777474
    4      C       3.9462309898     0.3599911271    -0.7846242404
    5      C       2.7036420399     1.2984356058    -0.9148030712
    6      O       1.8110876924     0.7189910547    -1.8795021594
    7      C       0.5220997612     1.4562769571    -1.8999827264
    8      C      -0.2247181569     1.2569536824    -0.5339297514
    9      O      -1.6858501031     1.3144571535    -0.7713705812
   10      C      -2.3725830878     0.8321198731     0.3895353860
   11      C      -3.9148333899     0.8372026707     0.0784423824
   12      C      -4.4050888985    -0.3722849212    -0.8166861404
   13      C      -3.2650862961    -1.4039932120    -1.1082043633
   14      O      -2.1037692528    -1.3992731817    -0.6393304498
   15      O       1.9298137864     0.0999637359     1.5133482559
   16      O      -3.7664433620    -2.4053309991    -1.9929379404
   17      O      -1.8323705465     0.5780063598     1.4907465718
   18      C      -2.7220453095    -3.4256066970    -2.2499649496
   19      C      -4.7772457936     0.6118089353     1.3912368750
   20      C      -6.2516372747     1.0950546052     1.1003065624
   21      C      -6.7665674757    -0.0600427958     0.1627806440
   22      C      -5.5086524467    -1.0149152649     0.1319457427
   23      O      -4.9110627734    -0.8619351333     1.4764965915
   24      H      -4.1589289856     1.7987601507    -0.4074447880
   25      H      -4.8385069182    -0.0352771428    -1.7753735437
   26      H      -4.3085615840     1.0083543140     2.3126404707
   27      H      -6.8313065568     1.1429082668     2.0357392373
   28      H      -6.2785231597     2.0836775800     0.6149268126
   29      H      -7.6336845923    -0.5805597844     0.5994930810
   30      H      -7.0387993811     0.2972692182    -0.8432382738
   31      H      -5.7266421652    -2.0789879264    -0.0843292365
   32      O       2.4846780529     2.3672020798    -0.3046649596
   33      C       1.0028211547     0.6208794801     2.5517806026
   34      C       5.7031613199     0.5047231361     0.9140122642
   35      C       6.7249171117    -0.4017143882     0.1227602540
   36      C       6.4284169379     0.0317089188    -1.3613249881
   37      C       5.2996573933     1.1159274211    -1.1428009316
   38      O       5.6779135454     1.7637534150     0.1313978451
   39      H       4.2217708037    -1.1782236516     0.8016715883
   40      H       3.7820706929    -0.5168473548    -1.4350290796
   41      H       1.2138627480     1.6866411420     2.7683446117
   42      H       5.9549989231     0.7156054426     1.9714354072
   43      H       7.7597303351    -0.1616675303     0.4145718870
   44      H       6.5489919243    -1.4754768363     0.2956528561
   45      H       7.3127000046     0.4872175331    -1.8349188901
   46      H       6.0831318909    -0.8055026236    -1.9888016271
   47      H       5.2052675087     1.8689990060    -1.9491335900
   48      H       1.1113607534     0.0460483377     3.4936780022
   49      H      -0.0324504849     0.5115594429     2.1549679776
   50      H      -3.1928824889    -4.1859399467    -2.8997539776
   51      H      -2.3766465595    -3.9001036113    -1.3090254758
   52      H      -1.8440927429    -2.9871181694    -2.7670305964
   53      H       0.0621388701     0.2667847825    -0.1195944900
   54      H       0.0901079327     2.0385214775     0.1888045261
   55      H      -0.0664233724     1.0008190209    -2.7218115442
   56      H       0.6779694590     2.5352300960    -2.1126444022
 ----------------------------------------------------------------

    9   -1510.2911369049      4.36E-09 Convergence criterion met
 Total energy in the final basis set = -1510.29113690
 Final energy is   -1510.29113690489
 **  OPTIMIZATION CONVERGED  **

                    Orbital Energies (a.u.)
 --------------------------------------------------------------

 Alpha MOs
 -- Occupied --
-18.947 -18.930 -18.929 -18.918 -18.891 -18.890 -18.883 -18.874
-18.871 -18.863 -10.110 -10.102 -10.096 -10.087 -10.073 -10.071
-10.065 -10.062 -10.060 -10.057 -10.052 -10.045 -10.039 -10.033
-10.032 -10.031 -10.024 -10.022 -10.017 -10.016  -1.024  -1.011
 -1.006  -0.996  -0.974  -0.965  -0.947  -0.936  -0.932  -0.922
 -0.767  -0.758  -0.728  -0.721  -0.713  -0.704  -0.693  -0.670
 -0.644  -0.614  -0.597  -0.580  -0.549  -0.541  -0.540  -0.532
 -0.516  -0.505  -0.482  -0.469  -0.461  -0.458  -0.456  -0.446
 -0.435  -0.432  -0.425  -0.419  -0.415  -0.407  -0.397  -0.393
 -0.388  -0.383  -0.379  -0.364  -0.361  -0.357  -0.351  -0.348
 -0.344  -0.338  -0.333  -0.331  -0.327  -0.322  -0.319  -0.315
 -0.308  -0.306  -0.305  -0.299  -0.289  -0.282  -0.278  -0.277
 -0.269  -0.262  -0.252  -0.249  -0.238  -0.237  -0.229  -0.190
 -0.180  -0.169  -0.164  -0.163  -0.152  -0.150  -0.148  -0.141
 -0.138

          Ground-State Mulliken Net Atomic Charges

     Atom                 Charge (a.u.)
  ----------------------------------------
      1 O                    -0.211620
      2 C                     0.210262
      3 C                    -0.078696
      4 C                    -0.079623
      5 C                     0.210188
      6 O                    -0.171226
      7 C                    -0.048262
      8 C                    -0.054509
      9 O                    -0.177210
     10 C                     0.223575
     11 C                    -0.080930
     12 C                    -0.077880
     13 C                     0.215170
     14 O                    -0.206379
     15 O                    -0.178691
     16 O                    -0.168183
     17 O                    -0.216708
     18 C                    -0.128230
     19 C                     0.025001
     20 C                    -0.143731
     21 C                    -0.143891
     22 C                     0.025258
     23 O                    -0.188977
     24 H                     0.085185
     25 H                     0.087787
     26 H                     0.090259
     27 H                     0.079023
     28 H                     0.073839
     29 H                     0.078966
     30 H                     0.074000
     31 H                     0.085716
     32 O                    -0.213255
     33 C                    -0.146711
     34 C                     0.024408
     35 C                    -0.144302
     36 C                    -0.143740
     37 C                     0.025740
     38 O                    -0.186546
     39 H                     0.083268
     40 H                     0.085662
     41 H                     0.086146
     42 H                     0.091260
     43 H                     0.077706
     44 H                     0.072661
     45 H                     0.077349
     46 H                     0.072820
     47 H                     0.081908
     48 H                     0.077983
     49 H                     0.113353
     50 H                     0.092778
     51 H                     0.093133
     52 H                     0.090648
     53 H                     0.103017
     54 H                     0.093533
     55 H                     0.091945
     56 H                     0.089753
  ----------------------------------------
  Sum of atomic charges =     0.000000

                    Cartesian Multipole Moments
 -----------------------------------------------------------------
    Charge (ESU x 10^10)
                 0.0000
    Dipole Moment (Debye)
         X      -2.7135      Y      -2.1768      Z      -3.6452
       Tot       5.0387
    Quadrupole Moments (Debye-Ang)
        XX    -144.7140     XY     -14.8851     YY    -159.2011
        XZ      -2.2892     YZ      -0.2037     ZZ    -161.3368

 Total job time:  100.97s(wall), 4802.20s(cpu)
        *  Thank you very much for using Q-Chem.  Have a nice day.  *
