 Q-Chem 5.0, Q-Chem, Inc., Pleasanton, CA (2017)
 Q-Chem 5.0.1 for Intel X86 EM64T Linux

User input:
--------------------------------------------------------------
$molecule
0  1
O -3.94934 -3.66094 2.70899
C -3.26408 -4.56952 2.26188
C -3.36658 -6.02376 2.66595
C -2.3259 -6.99121 2.07868
C -1.1925 -6.36782 1.29455
O -1.21461 -6.82178 0.00659
C 0.08589 -7.13753 -0.5016
C 1.15873 -6.44777 0.33468
O 2.44719 -6.63417 -0.27196
C 3.49665 -6.12548 0.42016
C 4.82855 -6.42813 -0.22411
C 5.65812 -5.19364 -0.60639
C 5.2194 -3.88381 0.01696
O 4.06088 -3.53771 0.19759
O -2.63904 -4.26491 1.09177
O 6.1922 -2.9546 0.22347
O 3.39132 -5.61062 1.52892
C 5.97185 -1.69059 0.73001
C 5.79523 -7.18336 0.70275
C 6.81368 -7.95088 -0.13602
C 7.631 -6.80661 -0.69737
C 6.99696 -5.62354 0.04739
O 6.58379 -6.17221 1.27529
H 4.6333 -7.05256 -1.12715
H 5.75924 -5.03066 -1.70156
H 5.2807 -7.86755 1.41264
H 7.4475 -8.52759 0.57551
H 6.38939 -8.6455 -0.8926
H 8.69039 -6.9516 -0.38939
H 7.56792 -6.67144 -1.7989
H 7.73827 -4.79854 0.11381
O -0.57941 -5.41168 1.76445
C -2.56856 -3.00912 0.52139
C -3.0623 -6.19383 4.17019
C -3.67469 -7.4968 4.68424
C -2.74414 -8.51186 4.05547
C -1.73858 -7.57929 3.37332
O -1.68349 -6.4622 4.22499
H -4.41667 -6.33743 2.47254
H -2.80503 -7.78548 1.46106
H -2.05521 -2.30554 1.21094
H -3.41712 -5.33978 4.78821
H -3.52904 -7.5214 5.78805
H -4.75322 -7.63111 4.45276
H -2.24373 -9.08204 4.8697
H -3.22042 -9.21466 3.33812
H -0.77552 -8.10882 3.19798
H -3.58823 -2.63426 0.28934
H -1.9887 -3.07182 -0.4222
H 6.93919 -1.15186 0.79669
H 5.52954 -1.75884 1.74696
H 5.29096 -1.12231 0.06101
H 1.02061 -5.34259 0.2877
H 1.20675 -6.89219 1.35928
H 0.15371 -6.74045 -1.53691
H 0.23077 -8.23831 -0.5324
$end

$opt
CONSTRAINT
tors           1           2           3           4    -174.569
tors           3           4           5           6    -118.904
tors           4           5           6           7    -137.763
tors           5           6           7           8     -19.341
tors           6           7           8           9    -173.070
tors           7           8           9          10    -176.593
tors           8           9          10          11    +176.403
tors           9          10          11          12    +120.852
tors          11          12          13          14     -38.491
ENDCONSTRAINT
$end

$rem
JOBTYPE                   OPT
METHOD                    B3LYP
DFT_D                     d3_op
BASIS                     STO-3G
GEOM_OPT_MAX_CYCLES       100
GEOM_OPT_TOL_GRADIENT     300
GEOM_OPT_TOL_DISPLACEMENT 1200
GEOM_OPT_TOL_ENERGY       100
SYMMETRY                  False
THRESH                    12
SCF_CONVERGENCE           8
MAX_SUB_FILE_NUM          128
MEM_STATIC                400
MEM_TOTAL                 4000
$end
--------------------------------------------------------------

   16   -1510.1066680247      2.26E-09 Convergence criterion met
 Total energy in the final basis set = -1510.10666802
   14   -1510.1814747761      3.50E-09 Convergence criterion met
 Total energy in the final basis set = -1510.18147478
   14   -1510.2241779979      2.64E-09 Convergence criterion met
 Total energy in the final basis set = -1510.22417800
   14   -1510.2462774269      3.86E-09 Convergence criterion met
 Total energy in the final basis set = -1510.24627743
   13   -1510.2549380124      7.17E-09 Convergence criterion met
 Total energy in the final basis set = -1510.25493801
   13   -1510.2586456671      4.91E-09 Convergence criterion met
 Total energy in the final basis set = -1510.25864567
   13   -1510.2604338503      2.69E-09 Convergence criterion met
 Total energy in the final basis set = -1510.26043385
   12   -1510.2611597741      8.43E-09 Convergence criterion met
   12   -1510.2623814446      3.23E-09 Convergence criterion met
 Total energy in the final basis set = -1510.26238144
   11   -1510.2624200614      6.83E-09 Convergence criterion met
 Total energy in the final basis set = -1510.26242006
   10   -1510.2624460319      7.70E-09 Convergence criterion met
 Total energy in the final basis set = -1510.26244603
    9   -1510.2624624719      9.36E-09 Convergence criterion met
 Total energy in the final basis set = -1510.26246247
   11   -1510.2624709751      2.60E-09 Convergence criterion met
 Total energy in the final basis set = -1510.26247098
    9   -1510.2624736582      6.41E-09 Convergence criterion met
 Total energy in the final basis set = -1510.26247366

             Standard Nuclear Orientation (Angstroms)
    I     Atom           X                Y                Z
 ----------------------------------------------------------------
    1      O       5.9615700333    -2.4988703292     0.0609542018
    2      C       5.1410876443    -1.6056870010    -0.2426357718
    3      C       5.3553578660    -0.0603894530    -0.0809342922
    4      C       4.1248996899     0.8809898938    -0.4099841682
    5      C       2.7158385141     0.1682788567    -0.4466115179
    6      O       2.1698451306     0.3221086224    -1.7732891394
    7      C       0.7261722071     0.6534928851    -1.8471713669
    8      C      -0.2046962941     0.3757022865    -0.6112061745
    9      O      -1.5696612306     0.6697174876    -1.1283168632
   10      C      -2.5340306364     0.5349851722    -0.0776371010
   11      C      -3.9342479386     0.9458638166    -0.6578406449
   12      C      -5.0258927884    -0.2039232973    -0.5736151574
   13      C      -4.4357177955    -1.5654388144    -0.0592024902
   14      O      -3.3133134112    -2.0371320341    -0.3476204777
   15      O       3.9172215275    -1.8577894095    -0.9376439540
   16      O      -5.3974853668    -2.2338645488     0.7588388851
   17      O      -2.2524371564     0.2298197278     1.1007612212
   18      C      -4.8497884939    -3.5280106338     1.2277151582
   19      C      -4.6178957672     2.0556983745     0.2533907308
   20      C      -5.8304479299     2.6818910636    -0.5442729509
   21      C      -6.9011958818     1.5352491695    -0.4214203305
   22      C      -6.0942268839     0.4533413312     0.3975482318
   23      O      -5.2694150114     1.2641577285     1.3214108819
   24      H      -3.7900115857     1.2917057335    -1.6960284007
   25      H      -5.4646772036    -0.3922751641    -1.5717201364
   26      H      -3.9126518543     2.7882286430     0.6916914915
   27      H      -6.1728369726     3.6096635566    -0.0590491810
   28      H      -5.5651778277     2.9071094017    -1.5895929377
   29      H      -7.7842144184     1.8669990424     0.1474023514
   30      H      -7.2336381179     1.1548151082    -1.4005381180
   31      H      -6.7037945355    -0.2802342918     0.9588422220
   32      O       2.1147159633    -0.3159959511     0.5345444068
   33      C       3.6917356506    -3.3112775496    -1.0980892410
   34      C       5.7153447235     0.3887851650     1.4026460673
   35      C       6.5507563832     1.7233622624     1.3023607573
   36      C       5.4354115741     2.7338041002     0.8414237667
   37      C       4.1487099382     1.8155725331     0.8771534279
   38      O       4.4242185115     0.8466692896     1.9637023455
   39      H       6.1984407961     0.1936789459    -0.7511903076
   40      H       4.2707592051     1.4319721285    -1.3547321299
   41      H       3.5804720655    -3.8142708576    -0.1158647236
   42      H       6.1575378042    -0.4098045081     2.0296276974
   43      H       6.9555889640     1.9955152993     2.2903281489
   44      H       7.3843310085     1.6472202215     0.5859113548
   45      H       5.3317614204     3.5746522962     1.5451767605
   46      H       5.6211293798     3.1392234330    -0.1662293346
   47      H       3.1979033201     2.3487849412     1.0713732197
   48      H       4.5242774744    -3.7919523954    -1.6514717750
   49      H       2.7529851262    -3.4107412129    -1.6734522382
   50      H      -5.6255192279    -3.9675877230     1.8813236041
   51      H      -3.9124103846    -3.3873354324     1.8034913162
   52      H      -4.6445902223    -4.2144460393     0.3807421289
   53      H      -0.1329883391    -0.6791525348    -0.2730238974
   54      H       0.0392743668     1.0322496307     0.2500868339
   55      H       0.3222607326     0.0825867472    -2.7111600362
   56      H       0.6466610334     1.7359352260    -2.0986671029
 ----------------------------------------------------------------

    9   -1510.2624744181      4.77E-09 Convergence criterion met
 Total energy in the final basis set = -1510.26247442
 Final energy is   -1510.26247441809
 **  OPTIMIZATION CONVERGED  **

                    Orbital Energies (a.u.)
 --------------------------------------------------------------

 Alpha MOs
 -- Occupied --
-18.942 -18.936 -18.922 -18.912 -18.888 -18.885 -18.875 -18.873
-18.869 -18.863 -10.102 -10.099 -10.097 -10.090 -10.069 -10.066
-10.063 -10.063 -10.060 -10.059 -10.058 -10.056 -10.037 -10.036
-10.033 -10.032 -10.021 -10.019 -10.019 -10.018  -1.014  -1.012
 -1.001  -0.995  -0.969  -0.968  -0.938  -0.936  -0.929  -0.924
 -0.762  -0.760  -0.724  -0.721  -0.711  -0.704  -0.693  -0.662
 -0.660  -0.614  -0.595  -0.579  -0.544  -0.543  -0.536  -0.536
 -0.512  -0.509  -0.480  -0.471  -0.460  -0.450  -0.448  -0.445
 -0.437  -0.431  -0.428  -0.412  -0.410  -0.410  -0.409  -0.393
 -0.383  -0.377  -0.372  -0.368  -0.365  -0.354  -0.353  -0.346
 -0.346  -0.337  -0.331  -0.328  -0.327  -0.322  -0.319  -0.313
 -0.309  -0.306  -0.302  -0.296  -0.294  -0.291  -0.281  -0.273
 -0.272  -0.255  -0.251  -0.244  -0.233  -0.232  -0.229  -0.179
 -0.178  -0.167  -0.159  -0.155  -0.154  -0.146  -0.142  -0.140
 -0.138

          Ground-State Mulliken Net Atomic Charges

     Atom                 Charge (a.u.)
  ----------------------------------------
      1 O                    -0.213751
      2 C                     0.211844
      3 C                    -0.079712
      4 C                    -0.079174
      5 C                     0.222125
      6 O                    -0.184027
      7 C                    -0.048448
      8 C                    -0.049418
      9 O                    -0.177352
     10 C                     0.210328
     11 C                    -0.080072
     12 C                    -0.078445
     13 C                     0.212840
     14 O                    -0.213514
     15 O                    -0.164723
     16 O                    -0.168460
     17 O                    -0.211872
     18 C                    -0.127450
     19 C                     0.025647
     20 C                    -0.144283
     21 C                    -0.143968
     22 C                     0.023592
     23 O                    -0.187067
     24 H                     0.084080
     25 H                     0.083639
     26 H                     0.082867
     27 H                     0.077573
     28 H                     0.072977
     29 H                     0.077706
     30 H                     0.072409
     31 H                     0.092493
     32 O                    -0.208255
     33 C                    -0.125380
     34 C                     0.025294
     35 C                    -0.142367
     36 C                    -0.145195
     37 C                     0.025749
     38 O                    -0.184559
     39 H                     0.084746
     40 H                     0.084921
     41 H                     0.092660
     42 H                     0.088224
     43 H                     0.078598
     44 H                     0.073750
     45 H                     0.078268
     46 H                     0.073270
     47 H                     0.081702
     48 H                     0.091180
     49 H                     0.094717
     50 H                     0.091093
     51 H                     0.094875
     52 H                     0.088008
     53 H                     0.102276
     54 H                     0.089872
     55 H                     0.089120
     56 H                     0.079047
  ----------------------------------------
  Sum of atomic charges =    -0.000000

                    Cartesian Multipole Moments
 -----------------------------------------------------------------
    Charge (ESU x 10^10)
                 0.0000
    Dipole Moment (Debye)
         X      -0.7846      Y       1.3297      Z      -3.2027
       Tot       3.5554
    Quadrupole Moments (Debye-Ang)
        XX    -143.1934     XY      10.7462     YY    -146.7617
        XZ       2.8801     YZ      -1.6312     ZZ    -164.8931

 Total job time:  51.71s(wall), 2447.06s(cpu)
        *  Thank you very much for using Q-Chem.  Have a nice day.  *
