 Q-Chem 5.0, Q-Chem, Inc., Pleasanton, CA (2017)
 Q-Chem 5.0.1 for Intel X86 EM64T Linux

User input:
--------------------------------------------------------------
$molecule
0  1
O -3.94934 -3.66094 2.70899
C -3.26408 -4.56952 2.26188
C -3.36658 -6.02376 2.66595
C -2.05485 -6.81962 2.76498
C -0.77355 -6.02841 2.62234
O 0.26252 -6.87086 2.33552
C 1.45831 -6.55924 3.05817
C 1.43835 -7.23662 4.42451
O 2.29388 -6.52777 5.33473
C 3.34237 -7.23686 5.82157
C 4.66651 -6.80496 5.23782
C 5.54002 -5.95584 6.17283
C 5.14323 -5.96316 7.63543
O 4.16494 -5.40203 8.10728
O -2.54159 -4.32591 1.13552
O 5.96527 -6.61698 8.50331
O 3.22401 -8.02251 6.75025
C 5.75247 -6.71471 9.8627
C 5.61638 -7.96149 4.88697
C 6.57964 -7.51274 3.7908
C 7.43143 -6.5189 4.5553
C 6.87647 -6.71273 5.97378
O 6.4692 -8.06062 6.00049
H 4.44146 -6.22708 4.31082
H 5.61996 -4.89101 5.862
H 5.08649 -8.89178 4.58672
H 7.20604 -8.39711 3.5337
H 6.10894 -7.11821 2.86463
H 8.49262 -6.84684 4.49049
H 7.33681 -5.46081 4.22809
H 7.64722 -6.41811 6.71938
O -0.62883 -4.95542 3.19996
C -2.40301 -3.08485 0.54995
C -3.93717 -6.2158 4.08596
C -4.59967 -7.58446 4.19033
C -3.38408 -8.48086 4.15581
C -2.25897 -7.43389 4.16446
O -2.79833 -6.36472 4.89986
H -4.04929 -6.48374 1.91588
H -2.02029 -7.62182 1.99257
H -1.92496 -2.37852 1.26195
H -4.65771 -5.42717 4.39342
H -5.06067 -7.64703 5.20239
H -5.37185 -7.80115 3.42108
H -3.37102 -9.08369 5.09147
H -3.31464 -9.15367 3.27369
H -1.36864 -7.93156 4.56895
H -3.39554 -2.69332 0.2404
H -1.75928 -3.17686 -0.3487
H 6.57615 -7.3016 10.31826
H 4.79045 -7.23336 10.06243
H 5.73727 -5.70314 10.32172
H 0.4547 -7.09042 4.87883
H 1.6367 -8.32996 4.33795
H 1.61447 -5.46039 3.15259
H 2.34735 -6.92216 2.50063
$end

$opt
CONSTRAINT
tors           1           2           3           4    -142.409
tors           3           4           5           6    -162.182
tors           4           5           6           7    -137.763
tors           5           6           7           8     +86.035
tors           6           7           8           9    -156.198
tors           7           8           9          10    -117.901
tors           8           9          10          11    +107.565
tors           9          10          11          12    +104.210
tors          11          12          13          14     -72.607
ENDCONSTRAINT
$end

$rem
JOBTYPE                   OPT
METHOD                    B3LYP
DFT_D                     d3_op
BASIS                     STO-3G
GEOM_OPT_MAX_CYCLES       100
GEOM_OPT_TOL_GRADIENT     300
GEOM_OPT_TOL_DISPLACEMENT 1200
GEOM_OPT_TOL_ENERGY       100
SYMMETRY                  False
THRESH                    12
SCF_CONVERGENCE           8
MAX_SUB_FILE_NUM          128
MEM_STATIC                400
MEM_TOTAL                 4000
$end
--------------------------------------------------------------

   15   -1510.1095995015      5.94E-09 Convergence criterion met
 Total energy in the final basis set = -1510.10959950
   14   -1510.1813680244      4.89E-09 Convergence criterion met
 Total energy in the final basis set = -1510.18136802
   14   -1510.2204649396      6.64E-09 Convergence criterion met
 Total energy in the final basis set = -1510.22046494
    2   -1510.2204649397      2.38E-09 Convergence criterion met
 Total energy in the final basis set = -1510.22046494
   14   -1510.2386911558      6.53E-09 Convergence criterion met
 Total energy in the final basis set = -1510.23869116
    2   -1510.2386911559      2.77E-09 Convergence criterion met
 Total energy in the final basis set = -1510.23869116
   13   -1510.2449041528      7.83E-09 Convergence criterion met
 Total energy in the final basis set = -1510.24490415
   13   -1510.2466378912      4.53E-09 Convergence criterion met
   11   -1510.2480960762      7.41E-09 Convergence criterion met
 Total energy in the final basis set = -1510.24809608
   11   -1510.2481259228      7.26E-09 Convergence criterion met
 Total energy in the final basis set = -1510.24812592
   11   -1510.2481413663      5.46E-09 Convergence criterion met
 Total energy in the final basis set = -1510.24814137
   11   -1510.2481498060      2.48E-09 Convergence criterion met
 Total energy in the final basis set = -1510.24814981
   10   -1510.2481531072      6.28E-09 Convergence criterion met
 Total energy in the final basis set = -1510.24815311
    9   -1510.2481543977      6.58E-09 Convergence criterion met
 Total energy in the final basis set = -1510.24815440

             Standard Nuclear Orientation (Angstroms)
    I     Atom           X                Y                Z
 ----------------------------------------------------------------
    1      O      -5.9066862568     0.4757075025     2.1182680155
    2      C      -5.4195231525     0.7281247006     0.9959844209
    3      C      -5.1968649863    -0.2847926930    -0.1837268274
    4      C      -3.8748973672    -0.0745639107    -1.0253476587
    5      C      -2.8224542364     0.8235846358    -0.2796808116
    6      O      -1.8469973470     1.3229948467    -1.2217406495
    7      C      -0.4800860091     1.2535627275    -0.6599326499
    8      C       0.2069839630    -0.1523646101    -0.8885293804
    9      O       1.2500572264    -0.3247723345     0.1505802219
   10      C       2.5612671529    -0.4404651154    -0.4768837703
   11      C       3.4288448197     0.8556694159    -0.2573845969
   12      C       4.5727975225     0.6870563789     0.8382224766
   13      C       4.5496270104    -0.7426943921     1.4923682580
   14      O       3.6991013384    -1.1673415524     2.3055579548
   15      O      -5.1859370439     2.0541263040     0.5001061276
   16      O       5.6321485092    -1.5259727495     0.9865181699
   17      O       2.9164352551    -1.4530860157    -1.1146286930
   18      C       5.5579458447    -2.9019582234     1.5304752936
   19      C       4.3004329801     1.1928794017    -1.5435196236
   20      C       4.8036361914     2.6849216993    -1.4161822565
   21      C       5.9251105445     2.5317922376    -0.3231059517
   22      C       5.8638219831     0.9791264216    -0.0333251288
   23      O       5.5285486342     0.3911461590    -1.3511500926
   24      H       2.7452266646     1.6803111912     0.0098236327
   25      H       4.4440323048     1.4306902099     1.6453346801
   26      H       3.8178449035     0.9348901696    -2.5061407741
   27      H       5.2184626505     3.0320929274    -2.3758567408
   28      H       3.9990544597     3.3721534308    -1.1089623881
   29      H       6.9147592432     2.8104183867    -0.7184874036
   30      H       5.7242175637     3.1300276645     0.5800604474
   31      H       6.7944398414     0.5318408408     0.3642299751
   32      O      -2.7320120600     0.9735334209     0.9584206557
   33      C      -5.4110593568     3.0422296912     1.5779354560
   34      C      -5.0495239790    -1.7916959265     0.2856903823
   35      C      -5.4962690320    -2.7056637506    -0.9185440004
   36      C      -4.3079723219    -2.4646400887    -1.9229687520
   37      C      -3.3357683755    -1.5727051557    -1.0489269203
   38      O      -3.5844248844    -2.0161858909     0.3411957451
   39      H      -6.0746792913    -0.1815656405    -0.8491946431
   40      H      -4.0637596190     0.3236122293    -2.0376104396
   41      H      -4.6638710030     2.9292071068     2.3901262885
   42      H      -5.5173079816    -2.0081935957     1.2659676967
   43      H      -5.5462593041    -3.7600808620    -0.6028366104
   44      H      -6.4739799992    -2.4107959677    -1.3316037840
   45      H      -3.8141882334    -3.4077845745    -2.2054650513
   46      H      -4.6261690107    -1.9439297775    -2.8403314264
   47      H      -2.2644168722    -1.6739814387    -1.3059187087
   48      H      -6.4255796709     2.9464539413     2.0159521837
   49      H      -5.2991798512     4.0375840052     1.1100790180
   50      H       6.4210905297    -3.4439747456     1.1024285659
   51      H       4.6164201085    -3.4048715531     1.2293117546
   52      H       5.6240540415    -2.9089204942     2.6376893497
   53      H      -0.5566728224    -0.9477712193    -0.7434476695
   54      H       0.6004215678    -0.2427566485    -1.9219757007
   55      H      -0.5002129136     1.4494780075     0.4349341779
   56      H       0.1064991861     2.0531175232    -1.1561815756
 ----------------------------------------------------------------

    9   -1510.2481553643      2.91E-09 Convergence criterion met
 Total energy in the final basis set = -1510.24815536
 Final energy is   -1510.24815536431
 **  OPTIMIZATION CONVERGED  **

                    Orbital Energies (a.u.)
 --------------------------------------------------------------

 Alpha MOs
 -- Occupied --
-18.935 -18.926 -18.923 -18.905 -18.904 -18.891 -18.889 -18.887
-18.872 -18.869 -10.109 -10.104 -10.098 -10.095 -10.074 -10.071
-10.064 -10.064 -10.061 -10.061 -10.059 -10.058 -10.041 -10.041
-10.039 -10.035 -10.024 -10.023 -10.022 -10.020  -1.013  -1.011
 -1.007  -1.002  -0.972  -0.972  -0.942  -0.935  -0.934  -0.930
 -0.765  -0.764  -0.726  -0.724  -0.711  -0.708  -0.699  -0.659
 -0.657  -0.616  -0.600  -0.583  -0.549  -0.547  -0.540  -0.539
 -0.515  -0.510  -0.487  -0.474  -0.464  -0.457  -0.452  -0.450
 -0.437  -0.434  -0.429  -0.413  -0.411  -0.409  -0.406  -0.398
 -0.395  -0.383  -0.374  -0.370  -0.366  -0.358  -0.353  -0.349
 -0.344  -0.343  -0.340  -0.335  -0.332  -0.328  -0.326  -0.313
 -0.312  -0.309  -0.305  -0.295  -0.292  -0.288  -0.284  -0.281
 -0.273  -0.253  -0.251  -0.249  -0.242  -0.236  -0.235  -0.180
 -0.175  -0.170  -0.164  -0.160  -0.153  -0.149  -0.148  -0.145
 -0.145

          Ground-State Mulliken Net Atomic Charges

     Atom                 Charge (a.u.)
  ----------------------------------------
      1 O                    -0.213592
      2 C                     0.215848
      3 C                    -0.080034
      4 C                    -0.076426
      5 C                     0.218462
      6 O                    -0.183778
      7 C                    -0.052733
      8 C                    -0.049723
      9 O                    -0.190787
     10 C                     0.217837
     11 C                    -0.081416
     12 C                    -0.077540
     13 C                     0.205471
     14 O                    -0.211529
     15 O                    -0.174638
     16 O                    -0.164578
     17 O                    -0.180115
     18 C                    -0.127366
     19 C                     0.024736
     20 C                    -0.143914
     21 C                    -0.144277
     22 C                     0.025513
     23 O                    -0.184036
     24 H                     0.082666
     25 H                     0.085716
     26 H                     0.082107
     27 H                     0.078627
     28 H                     0.072924
     29 H                     0.078475
     30 H                     0.073640
     31 H                     0.090903
     32 O                    -0.197566
     33 C                    -0.128242
     34 C                     0.024067
     35 C                    -0.142465
     36 C                    -0.144305
     37 C                     0.024477
     38 O                    -0.188479
     39 H                     0.083602
     40 H                     0.087565
     41 H                     0.091584
     42 H                     0.092642
     43 H                     0.079023
     44 H                     0.073784
     45 H                     0.079165
     46 H                     0.074080
     47 H                     0.078415
     48 H                     0.088725
     49 H                     0.088240
     50 H                     0.091812
     51 H                     0.093141
     52 H                     0.088730
     53 H                     0.081890
     54 H                     0.082574
     55 H                     0.099160
     56 H                     0.081936
  ----------------------------------------
  Sum of atomic charges =     0.000000

                    Cartesian Multipole Moments
 -----------------------------------------------------------------
    Charge (ESU x 10^10)
                 0.0000
    Dipole Moment (Debye)
         X       0.2421      Y       2.1894      Z      -2.5024
       Tot       3.3338
    Quadrupole Moments (Debye-Ang)
        XX    -148.8072     XY       6.5255     YY    -150.7646
        XZ      16.3319     YZ       2.2569     ZZ    -164.9203

 Total job time:  56.96s(wall), 2704.13s(cpu)
        *  Thank you very much for using Q-Chem.  Have a nice day.  *
