 Q-Chem 5.0, Q-Chem, Inc., Pleasanton, CA (2017)
 Q-Chem 5.0.1 for Intel X86 EM64T Linux

User input:
--------------------------------------------------------------
$molecule
0  1
O -5.9066862568 0.4757075025 2.1182680155
C -5.4195231525 0.7281247006 0.9959844209
C -5.1968649863 -0.284792693 -0.1837268274
C -3.8748973672 -0.0745639107 -1.0253476587
C -2.8224542364 0.8235846358 -0.2796808116
O -1.846997347 1.3229948467 -1.2217406495
C -0.4800860091 1.2535627275 -0.6599326499
C 0.206983963 -0.1523646101 -0.8885293804
O 1.2500572264 -0.3247723345 0.1505802219
C 2.5612671529 -0.4404651154 -0.4768837703
C 3.4288448197 0.8556694159 -0.2573845969
C 4.5727975225 0.6870563789 0.8382224766
C 4.5496270104 -0.7426943921 1.492368258
O 3.6991013384 -1.1673415524 2.3055579548
O -5.1859370439 2.054126304 0.5001061276
O 5.6321485092 -1.5259727495 0.9865181699
O 2.9164352551 -1.4530860157 -1.114628693
C 5.5579458447 -2.9019582234 1.5304752936
C 4.3004329801 1.1928794017 -1.5435196236
C 4.8036361914 2.6849216993 -1.4161822565
C 5.9251105445 2.5317922376 -0.3231059517
C 5.8638219831 0.9791264216 -0.0333251288
O 5.5285486342 0.391146159 -1.3511500926
H 2.7452266646 1.6803111912 0.0098236327
H 4.4440323048 1.4306902099 1.6453346801
H 3.8178449035 0.9348901696 -2.5061407741
H 5.2184626505 3.0320929274 -2.3758567408
H 3.9990544597 3.3721534308 -1.1089623881
H 6.9147592432 2.8104183867 -0.7184874036
H 5.7242175637 3.1300276645 0.5800604474
H 6.7944398414 0.5318408408 0.3642299751
O -2.73201206 0.9735334209 0.9584206557
C -5.4110593568 3.0422296912 1.577935456
C -5.049523979 -1.7916959265 0.2856903823
C -5.496269032 -2.7056637506 -0.9185440004
C -4.3079723219 -2.4646400887 -1.922968752
C -3.3357683755 -1.5727051557 -1.0489269203
O -3.5844248844 -2.0161858909 0.3411957451
H -6.0746792913 -0.1815656405 -0.8491946431
H -4.063759619 0.3236122293 -2.0376104396
H -4.663871003 2.9292071068 2.3901262885
H -5.5173079816 -2.0081935957 1.2659676967
H -5.5462593041 -3.760080862 -0.6028366104
H -6.4739799992 -2.4107959677 -1.331603784
H -3.8141882334 -3.4077845745 -2.2054650513
H -4.6261690107 -1.9439297775 -2.8403314264
H -2.2644168722 -1.6739814387 -1.3059187087
H -6.4255796709 2.9464539413 2.0159521837
H -5.2991798512 4.0375840052 1.110079018
H 6.4210905297 -3.4439747456 1.1024285659
H 4.6164201085 -3.4048715531 1.2293117546
H 5.6240540415 -2.9089204942 2.6376893497
H -0.5566728224 -0.9477712193 -0.7434476695
H 0.6004215678 -0.2427566485 -1.9219757007
H -0.5002129136 1.4494780075 0.4349341779
H 0.1064991861 2.0531175232 -1.1561815756
$end

$rem
JOBTYPE                   OPT
METHOD                    B3LYP
DFT_D                     d3_op
BASIS                     STO-3G
GEOM_OPT_MAX_CYCLES       100
GEOM_OPT_TOL_GRADIENT     300
GEOM_OPT_TOL_DISPLACEMENT 1200
GEOM_OPT_TOL_ENERGY       100
SYMMETRY                  False
THRESH                    12
SCF_CONVERGENCE           8
MAX_SUB_FILE_NUM          128
MEM_STATIC                400
MEM_TOTAL                 4000
$end
--------------------------------------------------------------

   16   -1510.2481613126      4.98E-09 Convergence criterion met
 Total energy in the final basis set = -1510.24816131
   14   -1510.2541465244      3.92E-09 Convergence criterion met
 Total energy in the final basis set = -1510.25414652
   13   -1510.2594638320      4.52E-09 Convergence criterion met
 Total energy in the final basis set = -1510.25946383
   13   -1510.2647736770      7.74E-09 Convergence criterion met
 Total energy in the final basis set = -1510.26477368
   13   -1510.2697817868      9.79E-09 Convergence criterion met
 Total energy in the final basis set = -1510.26978179
   14   -1510.2743906917      3.64E-09 Convergence criterion met
 Total energy in the final basis set = -1510.27439069
   14   -1510.2779753425      2.78E-09 Convergence criterion met
 Total energy in the final basis set = -1510.27797534
   13   -1510.2804367464      9.25E-09 Convergence criterion met
   12   -1510.2881870315      9.49E-09 Convergence criterion met
 Total energy in the final basis set = -1510.28818703
   14   -1510.2881124730      1.60E-09 Convergence criterion met
 Total energy in the final basis set = -1510.28811247
   13   -1510.2882197436      7.88E-09 Convergence criterion met
 Total energy in the final basis set = -1510.28821974
   13   -1510.2882421638      1.91E-09 Convergence criterion met
 Total energy in the final basis set = -1510.28824216
   12   -1510.2882625743      7.45E-09 Convergence criterion met
 Total energy in the final basis set = -1510.28826257
   11   -1510.2882585600      5.77E-09 Convergence criterion met
 Total energy in the final basis set = -1510.28825856

             Standard Nuclear Orientation (Angstroms)
    I     Atom           X                Y                Z
 ----------------------------------------------------------------
    1      O      -5.1282403681     1.8231454997     0.7389518015
    2      C      -4.9011695666     1.2740376651    -0.3594239435
    3      C      -5.0662397652    -0.2497476023    -0.7222017132
    4      C      -3.7051955275    -1.0413901617    -0.8864487157
    5      C      -2.4490316087    -0.1729776386    -0.5501628899
    6      O      -1.2762349656    -0.9462128426    -0.8202056749
    7      C      -0.0558647291    -0.1597430202    -0.5174817090
    8      C       0.2434449783    -0.1167859419     1.0299189824
    9      O       1.4504683548     0.7018591747     1.3008450891
   10      C       2.6379017432    -0.0475725976     1.0246776723
   11      C       3.8762611788     0.8876043733     1.2340964679
   12      C       5.2283765660     0.2612688986     0.6932880050
   13      C       5.0873722704    -1.1985414996     0.1226419049
   14      O       5.4235710884    -2.2553330512     0.6996726903
   15      O      -4.5768534763     1.9745910287    -1.5704391582
   16      O       4.6143412085    -1.1288978904    -1.2297828331
   17      O       2.6408563183    -1.2500812060     0.6779674746
   18      C       4.4070034299    -2.4958580817    -1.7552378781
   19      C       3.7688588539     2.1995013844     0.3449564108
   20      C       4.8329545737     3.2438509262     0.8640053698
   21      C       6.1653253871     2.6229176802     0.3025526359
   22      C       5.6190369385     1.3280139742    -0.4190952476
   23      O       4.3102327215     1.7632470329    -0.9612614922
   24      H       3.9434896999     1.1366503753     2.3092064067
   25      H       5.9825877786     0.2203647126     1.4990850690
   26      H       2.7357355209     2.5830648863     0.2368453347
   27      H       4.6369480283     4.2384367521     0.4330050745
   28      H       4.8298338572     3.3275178888     1.9624706314
   29      H       6.6463288816     3.2940527010    -0.4267428978
   30      H       6.8926386673     2.3838329357     1.0946271037
   31      H       6.2601510479     0.9323156848    -1.2297893041
   32      O      -2.4305913444     0.9972647373    -0.1058187294
   33      C      -4.3543722390     3.4064448456    -1.2738081120
   34      C      -5.7488585308    -1.0625338682     0.4563694718
   35      C      -6.3054317879    -2.4160003467    -0.1348631831
   36      C      -4.9700966483    -3.2199420159    -0.3553255858
   37      C      -3.9006263096    -2.1949209932     0.1931952959
   38      O      -4.6046493630    -1.4999410234     1.2922538997
   39      H      -5.6572523731    -0.3128345503    -1.6533805952
   40      H      -3.5848702948    -1.4570882240    -1.9030041667
   41      H      -3.4819696219     3.5447693969    -0.6026044801
   42      H      -6.4607059993    -0.4694124658     1.0625540339
   43      H      -6.9600279294    -2.9158104958     0.5967478347
   44      H      -6.8698963802    -2.2623569453    -1.0685219503
   45      H      -4.9525153936    -4.1475877432     0.2383819344
   46      H      -4.7946007554    -3.4737111667    -1.4129544809
   47      H      -2.9545523363    -2.6449543582     0.5523873276
   48      H      -5.2427326678     3.8707762669    -0.7985513543
   49      H      -4.1554141417     3.8952234180    -2.2453783972
   50      H       4.1302052257    -2.3780535050    -2.8190948737
   51      H       3.5873572011    -3.0105122280    -1.2125393643
   52      H       5.3255838882    -3.1120947596    -1.6736336731
   53      H      -0.5898571910     0.3876615693     1.5586892872
   54      H       0.3680457949    -1.1507519017     1.4156798001
   55      H      -0.1517859452     0.8789273891    -0.8992395143
   56      H       0.7723201659    -0.6770516000    -1.0419560044
 ----------------------------------------------------------------

   11   -1510.2882585985      6.77E-09 Convergence criterion met
 Total energy in the final basis set = -1510.28825860
 Final energy is   -1510.28825859848
 **  OPTIMIZATION CONVERGED  **

                    Orbital Energies (a.u.)
 --------------------------------------------------------------

 Alpha MOs
 -- Occupied --
-18.946 -18.945 -18.920 -18.919 -18.890 -18.890 -18.888 -18.888
-18.861 -18.859 -10.110 -10.110 -10.090 -10.090 -10.078 -10.077
-10.063 -10.061 -10.059 -10.057 -10.054 -10.053 -10.042 -10.042
-10.034 -10.033 -10.022 -10.021 -10.020 -10.020  -1.026  -1.021
 -0.998  -0.997  -0.971  -0.971  -0.949  -0.946  -0.924  -0.923
 -0.765  -0.763  -0.730  -0.723  -0.715  -0.707  -0.697  -0.655
 -0.652  -0.624  -0.597  -0.584  -0.546  -0.546  -0.538  -0.538
 -0.513  -0.512  -0.489  -0.475  -0.465  -0.457  -0.454  -0.445
 -0.434  -0.433  -0.430  -0.409  -0.407  -0.404  -0.402  -0.399
 -0.395  -0.388  -0.372  -0.366  -0.365  -0.359  -0.350  -0.344
 -0.342  -0.339  -0.334  -0.333  -0.330  -0.328  -0.324  -0.317
 -0.312  -0.308  -0.306  -0.303  -0.300  -0.281  -0.277  -0.275
 -0.275  -0.269  -0.254  -0.244  -0.243  -0.235  -0.235  -0.200
 -0.177  -0.165  -0.165  -0.164  -0.162  -0.146  -0.146  -0.142
 -0.139

          Ground-State Mulliken Net Atomic Charges

     Atom                 Charge (a.u.)
  ----------------------------------------
      1 O                    -0.216491
      2 C                     0.215656
      3 C                    -0.081514
      4 C                    -0.077921
      5 C                     0.214662
      6 O                    -0.169379
      7 C                    -0.052177
      8 C                    -0.052621
      9 O                    -0.169461
     10 C                     0.214499
     11 C                    -0.078034
     12 C                    -0.081776
     13 C                     0.213135
     14 O                    -0.219330
     15 O                    -0.176776
     16 O                    -0.171850
     17 O                    -0.208074
     18 C                    -0.128248
     19 C                     0.024377
     20 C                    -0.143899
     21 C                    -0.144232
     22 C                     0.026354
     23 O                    -0.188609
     24 H                     0.087814
     25 H                     0.083390
     26 H                     0.087672
     27 H                     0.078367
     28 H                     0.074003
     29 H                     0.077802
     30 H                     0.073903
     31 H                     0.086437
     32 O                    -0.207309
     33 C                    -0.128480
     34 C                     0.024715
     35 C                    -0.143808
     36 C                    -0.143780
     37 C                     0.025072
     38 O                    -0.189757
     39 H                     0.084029
     40 H                     0.088098
     41 H                     0.091225
     42 H                     0.089590
     43 H                     0.078312
     44 H                     0.073545
     45 H                     0.078645
     46 H                     0.073995
     47 H                     0.084652
     48 H                     0.086717
     49 H                     0.085945
     50 H                     0.086531
     51 H                     0.090675
     52 H                     0.087222
     53 H                     0.099406
     54 H                     0.094877
     55 H                     0.094400
     56 H                     0.097806
  ----------------------------------------
  Sum of atomic charges =    -0.000000

                    Cartesian Multipole Moments
 -----------------------------------------------------------------
    Charge (ESU x 10^10)
                 0.0000
    Dipole Moment (Debye)
         X       0.0003      Y       0.3442      Z      -1.5546
       Tot       1.5922
    Quadrupole Moments (Debye-Ang)
        XX    -153.2976     XY      16.5219     YY    -156.4487
        XZ      10.6394     YZ       4.8300     ZZ    -161.0872

 Total job time:  103.95s(wall), 4949.77s(cpu)
        *  Thank you very much for using Q-Chem.  Have a nice day.  *
