 Q-Chem 5.0, Q-Chem, Inc., Pleasanton, CA (2017)
 Q-Chem 5.0.1 for Intel X86 EM64T Linux

User input:
--------------------------------------------------------------
$molecule
0  1
O -6.2029039923 -0.5446353492 1.0851372336
C -5.4669474946 -0.2879024161 0.1083700604
C -4.3176786402 -1.1998894062 -0.4632447467
C -2.9298092846 -0.4838197572 -0.7499271616
C -2.8952559815 0.874990713 0.0873630812
O -1.8668600592 1.8649208282 0.0157643192
C -0.4278135466 1.6127952311 -0.1722315969
C 0.2881809936 0.5999792161 0.8001933912
O 1.6795474531 1.1129536431 0.8889825619
C 2.5104328315 0.1290619712 1.5573695807
C 3.7310461336 -0.4078023628 0.7144033763
C 3.7527018543 -0.250183437 -0.855387325
C 3.2588285898 1.1115504924 -1.4736073726
O 3.0815123993 1.3197877976 -2.6970442854
O -5.7742114693 0.6976224685 -0.9014776636
O 3.3741832214 2.1539444321 -0.5029029615
O 2.245828413 -0.304840063 2.7002534497
C 3.0674094899 3.4681160317 -1.1106992776
C 5.2169563804 0.0403978225 1.1115584202
C 6.0977820563 -1.263907878 1.0104856942
C 6.0307773428 -1.5203034968 -0.5429086232
C 5.33936901 -0.1914272047 -1.0551743301
O 5.7069906212 0.8267390612 -0.041316687
H 3.6745011428 -1.494756649 0.9164182236
H 3.2740444361 -1.0961017727 -1.379136187
H 5.3043022901 0.6183886683 2.0517867836
H 7.1292635023 -1.0538454597 1.3369479867
H 5.6972817263 -2.0997590594 1.6058814883
H 7.0338273801 -1.6290778739 -0.9844023168
H 5.4367545618 -2.4129228677 -0.7983254648
H 5.6501516605 0.1372141823 -2.0663090116
O -3.8678190492 1.2089684031 0.8122508381
C -6.8908885204 1.5467474656 -0.4379058584
C -3.9003363152 -2.3964239243 0.4848744121
C -3.4466201053 -3.5761809236 -0.4532117925
C -2.1501587738 -2.9395463271 -1.0780386872
C -1.9802854725 -1.6302826564 -0.1991035645
O -2.618109749 -1.9640433648 1.0933196798
H -4.7053128274 -1.603607543 -1.4171179644
H -2.7689208078 -0.2669957478 -1.8220529832
H -6.587034951 2.1789480759 0.4220464508
H -4.6476002145 -2.6371020869 1.2661998081
H -3.2076188689 -4.473722717 0.1397560765
H -4.2053736843 -3.8365765322 -1.2081580715
H -1.2730694928 -3.5949664158 -0.9596470701
H -2.2693503203 -2.7022796623 -2.1476905708
H -0.9291325292 -1.3482608818 -0.0503527148
H -7.7688778695 0.9404449455 -0.1342991931
H -7.1631367213 2.1948287271 -1.2913707504
H 2.1364920509 3.8691339459 -0.6625220558
H 2.9425153967 3.3484087811 -2.2059938459
H 3.9055905286 4.1569023544 -0.8907818654
H -0.2232501013 0.5728942315 1.7898687629
H 0.3028281425 -0.423923059 0.3824095007
H 0.0316161581 2.6096459578 -0.0051345326
H -0.2115016613 1.3103543026 -1.2231529852
$end

$rem
JOBTYPE                   OPT
METHOD                    B3LYP
DFT_D                     d3_op
BASIS                     STO-3G
GEOM_OPT_MAX_CYCLES       100
GEOM_OPT_TOL_GRADIENT     300
GEOM_OPT_TOL_DISPLACEMENT 1200
GEOM_OPT_TOL_ENERGY       100
SYMMETRY                  False
THRESH                    12
SCF_CONVERGENCE           8
MAX_SUB_FILE_NUM          128
MEM_STATIC                400
MEM_TOTAL                 4000
$end
--------------------------------------------------------------

   16   -1510.2182065971      5.46E-09 Convergence criterion met
 Total energy in the final basis set = -1510.21820660
   14   -1510.2240351440      8.05E-09 Convergence criterion met
 Total energy in the final basis set = -1510.22403514
   13   -1510.2319648926      7.43E-09 Convergence criterion met
 Total energy in the final basis set = -1510.23196489
   13   -1510.2393442861      8.84E-09 Convergence criterion met
 Total energy in the final basis set = -1510.23934429
   13   -1510.2456318308      5.62E-09 Convergence criterion met
 Total energy in the final basis set = -1510.24563183
   13   -1510.2506108538      3.75E-09 Convergence criterion met
 Total energy in the final basis set = -1510.25061085
   13   -1510.2546605397      7.55E-09 Convergence criterion met
 Total energy in the final basis set = -1510.25466054
   13   -1510.2581140202      9.05E-09 Convergence criterion met
   12   -1510.2807001443      8.20E-09 Convergence criterion met
 Total energy in the final basis set = -1510.28070014
   12   -1510.2807320451      9.91E-09 Convergence criterion met
 Total energy in the final basis set = -1510.28073205
   11   -1510.2807343668      5.30E-09 Convergence criterion met
 Total energy in the final basis set = -1510.28073437
   13   -1510.2806289103      3.94E-09 Convergence criterion met
 Total energy in the final basis set = -1510.28062891
   13   -1510.2807267898      3.00E-09 Convergence criterion met
 Total energy in the final basis set = -1510.28072679
   10   -1510.2807296288      4.51E-09 Convergence criterion met
 Total energy in the final basis set = -1510.28072963

             Standard Nuclear Orientation (Angstroms)
    I     Atom           X                Y                Z
 ----------------------------------------------------------------
    1      O      -5.1415265471     1.3237058179     1.4093256415
    2      C      -4.6683610195     1.0952622987     0.2767025165
    3      C      -4.4553954027    -0.3104795425    -0.4035217045
    4      C      -2.9421748993    -0.7209891097    -0.6390172806
    5      C      -1.9462672076     0.3481584876    -0.0553210401
    6      O      -0.5783734406     0.3793418517    -0.4880379959
    7      C      -0.0891314016    -0.6689238762    -1.4081009685
    8      C       0.5568583210    -1.8808116613    -0.6217994235
    9      O       2.0303863002    -1.8355072295    -0.7622791851
   10      C       2.6295939608    -1.2158814145     0.3882867848
   11      C       4.1416904978    -0.9793372151     0.0561478991
   12      C       4.3687177751     0.2921479767    -0.8813726149
   13      C       3.0207197254     1.0074360225    -1.2529219031
   14      O       2.3165451495     0.7759493215    -2.2677190712
   15      O      -4.3831338515     2.0995707927    -0.7104486775
   16      O       2.6868038631     1.9390178721    -0.2372464867
   17      O       2.0106369167    -0.9315858880     1.4352660797
   18      C       1.3625751816     2.5606197046    -0.5021649980
   19      C       4.9747567105    -0.5623091584     1.3368711692
   20      C       6.5080611366    -0.7284149275     1.0017719000
   21      C       6.7477966966     0.5110158077     0.0614701602
   22      C       5.3104320521     1.1690224530     0.0465206145
   23      O       4.7921807965     0.9053936251     1.4088581908
   24      H       4.5398071521    -1.8905696660    -0.4252544773
   25      H       4.8649470723    -0.0041762720    -1.8224641300
   26      H       4.6325346815    -1.0392757892     2.2755193255
   27      H       7.1117037708    -0.6599910368     1.9207063484
   28      H       6.7258992682    -1.6883069130     0.5067814037
   29      H       7.4843668935     1.2082053528     0.4912947947
   30      H       7.0822930333     0.2214094509    -0.9476938597
   31      H       5.2870360048     2.2535770561    -0.1729547843
   32      O      -2.2762622480     1.2181490028     0.7833601153
   33      C      -4.5120921209     3.4433321818    -0.1061694089
   34      C      -4.9513611927    -1.4889721791     0.5310463265
   35      C      -5.1502298144    -2.7800576521    -0.3557111333
   36      C      -3.6554713809    -3.1945318029    -0.6254325493
   37      C      -2.8798885722    -2.0828226936     0.1873692976
   38      O      -3.7558375922    -1.8130230115     1.3451176113
   39      H      -4.9963170046    -0.3033401993    -1.3669542482
   40      H      -2.7508162896    -0.8871031621    -1.7118390309
   41      H      -3.7582967110     3.5957293162     0.6933869253
   42      H      -5.7997032615    -1.2163019068     1.1883134858
   43      H      -5.6874104907    -3.5577890454     0.2100286437
   44      H      -5.7066618205    -2.5674514116    -1.2826563437
   45      H      -3.4318689966    -4.1931958876    -0.2178964891
   46      H      -3.3967069356    -3.1835491923    -1.6963937946
   47      H      -1.8690715097    -2.3717618563     0.5302320305
   48      H      -5.5215214415     3.6049903440     0.3242938730
   49      H      -4.3364816572     4.1669900926    -0.9233701058
   50      H       0.5446148597     1.8008449047    -0.4312071968
   51      H       1.3411636356     3.0378962970    -1.5023276656
   52      H       1.2374292306     3.3306724246     0.2799084683
   53      H       0.2918939665    -1.8186711129     0.4567398413
   54      H       0.2205725606    -2.8479537303    -1.0463202883
   55      H       0.7296761125    -0.1632291306    -1.9826398138
   56      H      -0.8706207247    -1.0215216345    -2.1070159971
 ----------------------------------------------------------------

   10   -1510.2807288165      4.12E-09 Convergence criterion met
 Total energy in the final basis set = -1510.28072882
 Final energy is   -1510.28072881653
 **  OPTIMIZATION CONVERGED  **

                    Orbital Energies (a.u.)
 --------------------------------------------------------------

 Alpha MOs
 -- Occupied --
-18.950 -18.937 -18.935 -18.917 -18.893 -18.890 -18.887 -18.885
-18.872 -18.861 -10.114 -10.103 -10.100 -10.090 -10.076 -10.073
-10.069 -10.060 -10.059 -10.059 -10.052 -10.047 -10.041 -10.039
-10.039 -10.036 -10.027 -10.023 -10.020 -10.019  -1.021  -1.016
 -1.009  -0.997  -0.975  -0.968  -0.949  -0.941  -0.934  -0.923
 -0.767  -0.765  -0.727  -0.726  -0.713  -0.710  -0.702  -0.654
 -0.651  -0.619  -0.604  -0.589  -0.553  -0.548  -0.542  -0.537
 -0.515  -0.512  -0.489  -0.481  -0.464  -0.464  -0.458  -0.446
 -0.437  -0.432  -0.431  -0.421  -0.412  -0.405  -0.404  -0.401
 -0.398  -0.388  -0.375  -0.365  -0.363  -0.356  -0.353  -0.350
 -0.347  -0.339  -0.335  -0.331  -0.329  -0.327  -0.324  -0.317
 -0.313  -0.309  -0.307  -0.306  -0.300  -0.284  -0.282  -0.278
 -0.274  -0.255  -0.253  -0.245  -0.239  -0.238  -0.232  -0.195
 -0.174  -0.170  -0.163  -0.162  -0.159  -0.152  -0.149  -0.142
 -0.141

          Ground-State Mulliken Net Atomic Charges

     Atom                 Charge (a.u.)
  ----------------------------------------
      1 O                    -0.214512
      2 C                     0.217284
      3 C                    -0.079475
      4 C                    -0.083198
      5 C                     0.218671
      6 O                    -0.170525
      7 C                    -0.063480
      8 C                    -0.058560
      9 O                    -0.174243
     10 C                     0.207186
     11 C                    -0.077710
     12 C                    -0.077674
     13 C                     0.208554
     14 O                    -0.225570
     15 O                    -0.179099
     16 O                    -0.160513
     17 O                    -0.202245
     18 C                    -0.146991
     19 C                     0.025241
     20 C                    -0.143961
     21 C                    -0.144284
     22 C                     0.026372
     23 O                    -0.183014
     24 H                     0.086289
     25 H                     0.084834
     26 H                     0.088196
     27 H                     0.078515
     28 H                     0.072648
     29 H                     0.078239
     30 H                     0.072743
     31 H                     0.086922
     32 O                    -0.189417
     33 C                    -0.128870
     34 C                     0.025158
     35 C                    -0.143841
     36 C                    -0.144433
     37 C                     0.023287
     38 O                    -0.185216
     39 H                     0.083146
     40 H                     0.080052
     41 H                     0.093055
     42 H                     0.092314
     43 H                     0.079422
     44 H                     0.073863
     45 H                     0.078998
     46 H                     0.071135
     47 H                     0.080010
     48 H                     0.086934
     49 H                     0.085855
     50 H                     0.115202
     51 H                     0.079929
     52 H                     0.088234
     53 H                     0.100600
     54 H                     0.085864
     55 H                     0.120812
     56 H                     0.081265
  ----------------------------------------
  Sum of atomic charges =    -0.000000

                    Cartesian Multipole Moments
 -----------------------------------------------------------------
    Charge (ESU x 10^10)
                -0.0000
    Dipole Moment (Debye)
         X       1.1462      Y      -2.5465      Z      -4.1238
       Tot       4.9804
    Quadrupole Moments (Debye-Ang)
        XX    -145.1829     XY       1.1300     YY    -150.4392
        XZ       8.6496     YZ      -1.1727     ZZ    -170.2266

 Total job time:  162.07s(wall), 7720.42s(cpu)
        *  Thank you very much for using Q-Chem.  Have a nice day.  *
