 Q-Chem 5.0, Q-Chem, Inc., Pleasanton, CA (2017)
 Q-Chem 5.0.1 for Intel X86 EM64T Linux

User input:
--------------------------------------------------------------
$molecule
0  1
O -3.94934 -3.66094 2.70899
C -3.26408 -4.56952 2.26188
C -3.36658 -6.02376 2.66595
C -2.05529 -6.75525 2.99654
C -0.80584 -5.90489 3.05869
O 0.28932 -6.70159 3.23563
C 0.03348 -7.8321 4.07572
C -0.58515 -7.37818 5.39382
O -0.20132 -8.27407 6.44877
C -0.86219 -8.11086 7.6217
C -1.60792 -9.35077 8.05433
C -1.87471 -10.36892 6.93608
C -1.06966 -10.18142 5.66587
O -1.24127 -10.79277 4.62119
O -2.48964 -4.30718 1.17242
O 0.26496 -10.39032 6.00256
O -0.70764 -7.12913 8.33208
C 1.33656 -10.74803 5.19517
C -0.92985 -10.24187 9.11051
C -2.00157 -11.02167 9.87253
C -2.47067 -11.98959 8.79846
C -1.47553 -11.66389 7.67711
O -0.31231 -11.26891 8.37157
H -2.57651 -8.97466 8.45642
H -2.94184 -10.34064 6.62225
H -0.27846 -9.67561 9.81075
H -1.47476 -11.5996 10.66563
H -2.80271 -10.41045 10.34099
H -2.3228 -13.02658 9.17326
H -3.52008 -11.851 8.45926
H -1.36356 -12.52289 6.97991
O -0.69782 -4.69645 2.93916
C -2.33077 -3.05729 0.61049
C -4.40297 -6.39247 3.73516
C -5.15085 -7.62899 3.26972
C -3.99551 -8.60571 3.22662
C -2.8954 -7.76584 3.94
O -3.63236 -6.90699 4.76844
H -3.73958 -6.43141 1.69306
H -1.80325 -7.3799 2.10734
H -1.88796 -2.35895 1.35262
H -5.09598 -5.57278 4.0223
H -5.84864 -7.90165 4.09484
H -5.7204 -7.54048 2.31963
H -4.30416 -9.50988 3.7995
H -3.65273 -8.8972 2.2106
H -2.37942 -8.55426 4.46013
H -3.31025 -2.66506 0.26286
H -1.64695 -3.13416 -0.25949
H 2.14914 -10.00329 5.31681
H 1.06841 -10.80611 4.11913
H 1.72197 -11.73505 5.52315
H 0.04001 -6.48617 5.62726
H -1.52386 -6.85204 5.59138
H 1.0397 -8.23394 4.29957
H -0.45753 -8.65808 3.5262
$end

$opt
CONSTRAINT
tors           1           2           3           4    -132.326
tors           3           4           5           6    -174.360
tors           4           5           6           7     -35.824
tors           5           6           7           8     -52.745
tors           6           7           8           9    -149.247
tors           7           8           9          10    -169.441
tors           8           9          10          11    +120.584
tors           9          10          11          12     -19.107
tors          11          12          13          14    -171.610
ENDCONSTRAINT
$end

$rem
JOBTYPE                   OPT
METHOD                    B3LYP
DFT_D                     d3_op
BASIS                     STO-3G
GEOM_OPT_MAX_CYCLES       100
GEOM_OPT_TOL_GRADIENT     300
GEOM_OPT_TOL_DISPLACEMENT 1200
GEOM_OPT_TOL_ENERGY       100
SYMMETRY                  False
THRESH                    12
SCF_CONVERGENCE           8
MAX_SUB_FILE_NUM          128
MEM_STATIC                400
MEM_TOTAL                 4000
$end
--------------------------------------------------------------

   16   -1509.9789261618      4.92E-09 Convergence criterion met
 Total energy in the final basis set = -1509.97892616
   14   -1510.0642755516      2.75E-09 Convergence criterion met
 Total energy in the final basis set = -1510.06427555
   15   -1510.1191337339      2.44E-09 Convergence criterion met
 Total energy in the final basis set = -1510.11913373
   15   -1510.1530645300      1.64E-09 Convergence criterion met
 Total energy in the final basis set = -1510.15306453
   15   -1510.1737317135      2.62E-09 Convergence criterion met
 Total energy in the final basis set = -1510.17373171
   14   -1510.1869864325      5.43E-09 Convergence criterion met
 Total energy in the final basis set = -1510.18698643
   14   -1510.1960851074      3.14E-09 Convergence criterion met
 Total energy in the final basis set = -1510.19608511
   14   -1510.2031809383      4.37E-09 Convergence criterion met
    9   -1510.2183435794      6.72E-09 Convergence criterion met
 Total energy in the final basis set = -1510.21834358
    9   -1510.2183467956      9.14E-09 Convergence criterion met
 Total energy in the final basis set = -1510.21834680
    9   -1510.2183501476      8.73E-09 Convergence criterion met
 Total energy in the final basis set = -1510.21835015
    9   -1510.2183518638      5.93E-09 Convergence criterion met
 Total energy in the final basis set = -1510.21835186
    9   -1510.2183530695      4.11E-09 Convergence criterion met
 Total energy in the final basis set = -1510.21835307
    9   -1510.2183541141      4.61E-09 Convergence criterion met
 Total energy in the final basis set = -1510.21835411

             Standard Nuclear Orientation (Angstroms)
    I     Atom           X                Y                Z
 ----------------------------------------------------------------
    1      O      -6.2029039923    -0.5446353492     1.0851372336
    2      C      -5.4669474946    -0.2879024161     0.1083700604
    3      C      -4.3176786402    -1.1998894062    -0.4632447467
    4      C      -2.9298092846    -0.4838197572    -0.7499271616
    5      C      -2.8952559815     0.8749907130     0.0873630812
    6      O      -1.8668600592     1.8649208282     0.0157643192
    7      C      -0.4278135466     1.6127952311    -0.1722315969
    8      C       0.2881809936     0.5999792161     0.8001933912
    9      O       1.6795474531     1.1129536431     0.8889825619
   10      C       2.5104328315     0.1290619712     1.5573695807
   11      C       3.7310461336    -0.4078023628     0.7144033763
   12      C       3.7527018543    -0.2501834370    -0.8553873250
   13      C       3.2588285898     1.1115504924    -1.4736073726
   14      O       3.0815123993     1.3197877976    -2.6970442854
   15      O      -5.7742114693     0.6976224685    -0.9014776636
   16      O       3.3741832214     2.1539444321    -0.5029029615
   17      O       2.2458284130    -0.3048400630     2.7002534497
   18      C       3.0674094899     3.4681160317    -1.1106992776
   19      C       5.2169563804     0.0403978225     1.1115584202
   20      C       6.0977820563    -1.2639078780     1.0104856942
   21      C       6.0307773428    -1.5203034968    -0.5429086232
   22      C       5.3393690100    -0.1914272047    -1.0551743301
   23      O       5.7069906212     0.8267390612    -0.0413166870
   24      H       3.6745011428    -1.4947566490     0.9164182236
   25      H       3.2740444361    -1.0961017727    -1.3791361870
   26      H       5.3043022901     0.6183886683     2.0517867836
   27      H       7.1292635023    -1.0538454597     1.3369479867
   28      H       5.6972817263    -2.0997590594     1.6058814883
   29      H       7.0338273801    -1.6290778739    -0.9844023168
   30      H       5.4367545618    -2.4129228677    -0.7983254648
   31      H       5.6501516605     0.1372141823    -2.0663090116
   32      O      -3.8678190492     1.2089684031     0.8122508381
   33      C      -6.8908885204     1.5467474656    -0.4379058584
   34      C      -3.9003363152    -2.3964239243     0.4848744121
   35      C      -3.4466201053    -3.5761809236    -0.4532117925
   36      C      -2.1501587738    -2.9395463271    -1.0780386872
   37      C      -1.9802854725    -1.6302826564    -0.1991035645
   38      O      -2.6181097490    -1.9640433648     1.0933196798
   39      H      -4.7053128274    -1.6036075430    -1.4171179644
   40      H      -2.7689208078    -0.2669957478    -1.8220529832
   41      H      -6.5870349510     2.1789480759     0.4220464508
   42      H      -4.6476002145    -2.6371020869     1.2661998081
   43      H      -3.2076188689    -4.4737227170     0.1397560765
   44      H      -4.2053736843    -3.8365765322    -1.2081580715
   45      H      -1.2730694928    -3.5949664158    -0.9596470701
   46      H      -2.2693503203    -2.7022796623    -2.1476905708
   47      H      -0.9291325292    -1.3482608818    -0.0503527148
   48      H      -7.7688778695     0.9404449455    -0.1342991931
   49      H      -7.1631367213     2.1948287271    -1.2913707504
   50      H       2.1364920509     3.8691339459    -0.6625220558
   51      H       2.9425153967     3.3484087811    -2.2059938459
   52      H       3.9055905286     4.1569023544    -0.8907818654
   53      H      -0.2232501013     0.5728942315     1.7898687629
   54      H       0.3028281425    -0.4239230590     0.3824095007
   55      H       0.0316161581     2.6096459578    -0.0051345326
   56      H      -0.2115016613     1.3103543026    -1.2231529852
 ----------------------------------------------------------------

    9   -1510.2183543072      5.60E-09 Convergence criterion met
 Total energy in the final basis set = -1510.21835431
 Final energy is   -1510.21835430715
 **  OPTIMIZATION CONVERGED  **

                    Orbital Energies (a.u.)
 --------------------------------------------------------------

 Alpha MOs
 -- Occupied --
-18.939 -18.937 -18.922 -18.907 -18.900 -18.899 -18.896 -18.891
-18.873 -18.850 -10.117 -10.114 -10.102 -10.092 -10.086 -10.084
-10.069 -10.068 -10.068 -10.059 -10.058 -10.048 -10.048 -10.047
-10.044 -10.031 -10.028 -10.027 -10.026 -10.023  -1.019  -1.017
 -1.011  -0.989  -0.978  -0.976  -0.949  -0.943  -0.935  -0.916
 -0.771  -0.766  -0.731  -0.725  -0.721  -0.708  -0.707  -0.661
 -0.649  -0.621  -0.605  -0.596  -0.556  -0.551  -0.545  -0.541
 -0.522  -0.511  -0.496  -0.486  -0.473  -0.462  -0.454  -0.447
 -0.442  -0.435  -0.432  -0.420  -0.411  -0.410  -0.403  -0.401
 -0.397  -0.395  -0.380  -0.375  -0.366  -0.359  -0.353  -0.352
 -0.348  -0.344  -0.341  -0.337  -0.333  -0.330  -0.325  -0.321
 -0.315  -0.313  -0.309  -0.304  -0.304  -0.295  -0.285  -0.281
 -0.269  -0.253  -0.243  -0.241  -0.240  -0.238  -0.232  -0.185
 -0.180  -0.171  -0.162  -0.160  -0.156  -0.155  -0.150  -0.149
 -0.135

          Ground-State Mulliken Net Atomic Charges

     Atom                 Charge (a.u.)
  ----------------------------------------
      1 O                    -0.226399
      2 C                     0.218396
      3 C                    -0.080778
      4 C                    -0.079791
      5 C                     0.221843
      6 O                    -0.176649
      7 C                    -0.040755
      8 C                    -0.050104
      9 O                    -0.179488
     10 C                     0.215010
     11 C                    -0.082214
     12 C                    -0.077701
     13 C                     0.210290
     14 O                    -0.223203
     15 O                    -0.183589
     16 O                    -0.156754
     17 O                    -0.190134
     18 C                    -0.134208
     19 C                     0.028361
     20 C                    -0.140702
     21 C                    -0.145842
     22 C                     0.024398
     23 O                    -0.186175
     24 H                     0.084106
     25 H                     0.082800
     26 H                     0.088543
     27 H                     0.079642
     28 H                     0.075870
     29 H                     0.080227
     30 H                     0.073814
     31 H                     0.085637
     32 O                    -0.178303
     33 C                    -0.129127
     34 C                     0.022698
     35 C                    -0.141516
     36 C                    -0.145204
     37 C                     0.019815
     38 O                    -0.191630
     39 H                     0.082194
     40 H                     0.085472
     41 H                     0.088258
     42 H                     0.094568
     43 H                     0.078519
     44 H                     0.075117
     45 H                     0.076534
     46 H                     0.073517
     47 H                     0.073889
     48 H                     0.086430
     49 H                     0.083971
     50 H                     0.082856
     51 H                     0.100635
     52 H                     0.089247
     53 H                     0.095020
     54 H                     0.075932
     55 H                     0.104195
     56 H                     0.082460
  ----------------------------------------
  Sum of atomic charges =    -0.000000

                    Cartesian Multipole Moments
 -----------------------------------------------------------------
    Charge (ESU x 10^10)
                 0.0000
    Dipole Moment (Debye)
         X       2.6701      Y      -2.1443      Z      -3.1698
       Tot       4.6664
    Quadrupole Moments (Debye-Ang)
        XX    -166.0982     XY      -4.4533     YY    -153.4640
        XZ      11.5178     YZ       3.1424     ZZ    -170.9789

 Total job time:  80.11s(wall), 3815.99s(cpu)
        *  Thank you very much for using Q-Chem.  Have a nice day.  *
