 Q-Chem 5.0, Q-Chem, Inc., Pleasanton, CA (2017)
 Q-Chem 5.0.1 for Intel X86 EM64T Linux

User input:
--------------------------------------------------------------
$molecule
0  1
O -3.94934 -3.66094 2.70899
C -3.26408 -4.56952 2.26188
C -3.36658 -6.02376 2.66595
C -2.06149 -6.73984 3.05042
C -0.82488 -5.87555 3.15946
O 0.28094 -6.60324 2.82323
C 1.1636 -6.82904 3.9274
C 0.72718 -5.99596 5.12808
O 1.65631 -6.17142 6.2092
C 1.23842 -6.98429 7.21108
C 2.02896 -8.26826 7.29549
C 3.10711 -8.29393 8.38874
C 3.00346 -7.21171 9.44456
O 3.87069 -6.39043 9.70528
O -2.48071 -4.31199 1.17943
O 1.83795 -7.15457 10.14538
O 0.13145 -6.87008 7.72194
C 1.56155 -6.22623 11.12697
C 1.21699 -9.5241 7.67748
C 1.94065 -10.77072 7.16401
C 3.13361 -10.81147 8.10019
C 2.78658 -9.65092 9.04056
O 1.3782 -9.64771 9.06905
H 2.46291 -8.45081 6.28539
H 4.13322 -8.23882 7.96206
H 0.17165 -9.50319 7.29889
H 1.2852 -11.64336 7.38419
H 2.19003 -10.76928 6.08051
H 3.11676 -11.7807 8.64599
H 4.12356 -10.66192 7.61688
H 3.29399 -9.77313 10.02283
O -0.80085 -4.65289 3.16202
C -2.28222 -3.05635 0.64378
C -4.19278 -6.23848 3.95213
C -4.7628 -7.654 3.96897
C -3.50854 -8.45554 4.23285
C -2.48301 -7.32877 4.40853
O -3.22989 -6.28285 4.97961
H -3.86099 -6.53299 1.80786
H -1.83849 -7.55141 2.31966
H -1.82336 -2.38713 1.40323
H -5.01666 -5.50368 4.08272
H -5.42868 -7.73366 4.85819
H -5.32926 -7.9439 3.05796
H -3.64171 -9.00502 5.1919
H -3.21774 -9.16556 3.42891
H -1.63748 -7.73449 4.99609
H -3.24704 -2.62741 0.29923
H -1.59394 -3.13503 -0.22247
H 0.54891 -6.42037 11.53589
H 1.585 -5.20102 10.6998
H 2.30197 -6.30785 11.95136
H 0.77793 -4.91241 4.89205
H -0.29759 -6.19849 5.48321
H 2.19052 -6.52303 3.63528
H 1.16618 -7.91067 4.1785
$end

$opt
CONSTRAINT
tors           1           2           3           4    -129.964
tors           3           4           5           6    -149.101
tors           4           5           6           7    -112.859
tors           5           6           7           8      -9.150
tors           6           7           8           9    -176.942
tors           7           8           9          10    -103.341
tors           8           9          10          11    +112.414
tors           9          10          11          12    +100.723
tors          11          12          13          14    -121.749
ENDCONSTRAINT
$end

$rem
JOBTYPE                   OPT
METHOD                    B3LYP
DFT_D                     d3_op
BASIS                     STO-3G
GEOM_OPT_MAX_CYCLES       100
GEOM_OPT_TOL_GRADIENT     300
GEOM_OPT_TOL_DISPLACEMENT 1200
GEOM_OPT_TOL_ENERGY       100
SYMMETRY                  False
THRESH                    12
SCF_CONVERGENCE           8
MAX_SUB_FILE_NUM          128
MEM_STATIC                400
MEM_TOTAL                 4000
$end
--------------------------------------------------------------

   15   -1510.0999343783      5.97E-09 Convergence criterion met
 Total energy in the final basis set = -1510.09993438
   14   -1510.1730346142      3.90E-09 Convergence criterion met
 Total energy in the final basis set = -1510.17303461
   14   -1510.2113151852      6.13E-09 Convergence criterion met
 Total energy in the final basis set = -1510.21131519
   14   -1510.2296609943      7.21E-09 Convergence criterion met
 Total energy in the final basis set = -1510.22966099
   14   -1510.2362300095      5.68E-09 Convergence criterion met
 Total energy in the final basis set = -1510.23623001
   13   -1510.2389284798      6.46E-09 Convergence criterion met
 Total energy in the final basis set = -1510.23892848
   13   -1510.2400050796      2.16E-09 Convergence criterion met
 Total energy in the final basis set = -1510.24000508
   12   -1510.2402746967      6.49E-09 Convergence criterion met
   11   -1510.2407584840      6.17E-09 Convergence criterion met
 Total energy in the final basis set = -1510.24075848
   10   -1510.2407620564      2.79E-09 Convergence criterion met
 Total energy in the final basis set = -1510.24076206
    9   -1510.2407643349      4.03E-09 Convergence criterion met
 Total energy in the final basis set = -1510.24076433
    9   -1510.2407674970      4.50E-09 Convergence criterion met
 Total energy in the final basis set = -1510.24076750
    9   -1510.2407700896      4.51E-09 Convergence criterion met
 Total energy in the final basis set = -1510.24077009
    9   -1510.2407725343      4.51E-09 Convergence criterion met
 Total energy in the final basis set = -1510.24077253

             Standard Nuclear Orientation (Angstroms)
    I     Atom           X                Y                Z
 ----------------------------------------------------------------
    1      O      -5.8560906261     0.8239855045     1.3538228226
    2      C      -5.3494878151     0.4026528030     0.2930312785
    3      C      -4.6050366324    -0.9631194808     0.0712021246
    4      C      -3.1976403710    -0.8371317491    -0.6420188173
    5      C      -2.7030103970     0.6480616015    -0.7905554477
    6      O      -1.8895533961     0.8069635048    -1.9793978049
    7      C      -0.4646595455     1.1093798968    -1.6895397653
    8      C      -0.0657031990     1.4353458375    -0.1949391882
    9      O       1.3749201852     1.7727778619    -0.1692586019
   10      C       2.1332931136     0.6403513888     0.3545388026
   11      C       3.0419614292    -0.0024456365    -0.7602392738
   12      C       4.5821512062     0.4005027706    -0.7227465207
   13      C       4.9696210211     1.4513723386     0.3732459309
   14      O       5.5052769032     2.5657141020     0.1827694597
   15      O      -5.4888461892     1.0417708283    -0.9829902551
   16      O       4.6516944159     0.9201614948     1.6605296069
   17      O       1.9645333564     0.1993715989     1.5094796494
   18      C       4.9802340326     1.9053682415     2.7161084645
   19      C       3.1450587942    -1.5744360072    -0.5439664955
   20      C       3.6792874521    -2.2271830019    -1.8796117775
   21      C       5.2032497539    -1.8388298797    -1.8175555065
   22      C       5.2534815201    -1.0204425811    -0.4670628763
   23      O       4.2767701551    -1.7189073111     0.3968945228
   24      H       2.6037470784     0.2563798685    -1.7400002977
   25      H       4.8934527739     0.8196559522    -1.6959036648
   26      H       2.2329361755    -2.0374686065    -0.1199689974
   27      H       3.5388116496    -3.3195089654    -1.8563274496
   28      H       3.1723580952    -1.8248146441    -2.7713996321
   29      H       5.8440981471    -2.7322728203    -1.7483038636
   30      H       5.5271421365    -1.2381715221    -2.6824176337
   31      H       6.2447072765    -0.9783341547     0.0241995436
   32      O      -2.9514057790     1.5759334837     0.0097286018
   33      C      -6.1548091315     2.3533105703    -0.8211964553
   34      C      -4.2057652370    -1.6597871657     1.4367319466
   35      C      -3.9745649720    -3.1929084345     1.1515105608
   36      C      -2.6172364654    -3.1463712735     0.3551625883
   37      C      -2.2787772120    -1.6025687152     0.4111331650
   38      O      -2.8358972859    -1.1577087153     1.7067063226
   39      H      -5.2735354723    -1.6125524919    -0.5239041293
   40      H      -3.1806309265    -1.3188795633    -1.6352243933
   41      H      -5.5181956598     3.0565103643    -0.2458030902
   42      H      -4.8805486756    -1.4151238546     2.2800973193
   43      H      -3.8664884697    -3.7483679136     2.0968591836
   44      H      -4.7965070984    -3.6395267565     0.5695306761
   45      H      -1.8299182601    -3.7302797405     0.8578562843
   46      H      -2.7187147700    -3.5085553287    -0.6805521060
   47      H      -1.1999365299    -1.3623715241     0.3468594559
   48      H      -7.1311790730     2.2557679575    -0.3043616688
   49      H      -6.3102342892     2.7470328285    -1.8424337036
   50      H       4.7313066104     1.4146519566     3.6747747990
   51      H       4.3806490729     2.8322205097     2.6072069659
   52      H       6.0556591448     2.1765053396     2.7022678581
   53      H      -0.6375607552     2.3221816746     0.1522733994
   54      H      -0.3058631568     0.5888439505     0.4816699504
   55      H      -0.1677098772     1.9735907436    -2.3230572883
   56      H       0.1298499317     0.2288439919    -2.0256363101
 ----------------------------------------------------------------

    9   -1510.2407733931      3.01E-09 Convergence criterion met
 Total energy in the final basis set = -1510.24077339
 Final energy is   -1510.24077339307
 **  OPTIMIZATION CONVERGED  **

                    Orbital Energies (a.u.)
 --------------------------------------------------------------

 Alpha MOs
 -- Occupied --
-18.935 -18.928 -18.911 -18.908 -18.904 -18.901 -18.895 -18.892
-18.873 -18.872 -10.112 -10.109 -10.098 -10.097 -10.076 -10.074
-10.068 -10.067 -10.065 -10.061 -10.060 -10.059 -10.043 -10.041
-10.041 -10.038 -10.027 -10.026 -10.025 -10.023  -1.014  -1.013
 -1.007  -1.003  -0.976  -0.975  -0.944  -0.937  -0.934  -0.932
 -0.767  -0.766  -0.728  -0.726  -0.713  -0.710  -0.702  -0.659
 -0.659  -0.620  -0.603  -0.588  -0.551  -0.550  -0.543  -0.542
 -0.519  -0.512  -0.483  -0.473  -0.469  -0.458  -0.452  -0.452
 -0.439  -0.434  -0.430  -0.413  -0.412  -0.410  -0.409  -0.399
 -0.395  -0.387  -0.376  -0.371  -0.365  -0.360  -0.356  -0.353
 -0.349  -0.344  -0.342  -0.337  -0.337  -0.331  -0.329  -0.316
 -0.313  -0.311  -0.308  -0.302  -0.297  -0.292  -0.287  -0.279
 -0.276  -0.254  -0.251  -0.248  -0.244  -0.240  -0.238  -0.175
 -0.173  -0.171  -0.165  -0.162  -0.156  -0.151  -0.151  -0.149
 -0.147

          Ground-State Mulliken Net Atomic Charges

     Atom                 Charge (a.u.)
  ----------------------------------------
      1 O                    -0.211107
      2 C                     0.214784
      3 C                    -0.080325
      4 C                    -0.079866
      5 C                     0.222546
      6 O                    -0.192742
      7 C                    -0.050495
      8 C                    -0.054570
      9 O                    -0.193929
     10 C                     0.215954
     11 C                    -0.080608
     12 C                    -0.078599
     13 C                     0.204076
     14 O                    -0.212905
     15 O                    -0.175089
     16 O                    -0.163068
     17 O                    -0.175994
     18 C                    -0.127369
     19 C                     0.026001
     20 C                    -0.144450
     21 C                    -0.143616
     22 C                     0.027029
     23 O                    -0.181169
     24 H                     0.082227
     25 H                     0.085695
     26 H                     0.082487
     27 H                     0.078822
     28 H                     0.072970
     29 H                     0.079143
     30 H                     0.074944
     31 H                     0.085228
     32 O                    -0.186750
     33 C                    -0.128625
     34 C                     0.024223
     35 C                    -0.143027
     36 C                    -0.143861
     37 C                     0.024330
     38 O                    -0.187260
     39 H                     0.084586
     40 H                     0.087237
     41 H                     0.092102
     42 H                     0.092926
     43 H                     0.079644
     44 H                     0.074173
     45 H                     0.079309
     46 H                     0.074044
     47 H                     0.075640
     48 H                     0.089165
     49 H                     0.089250
     50 H                     0.094676
     51 H                     0.089831
     52 H                     0.088357
     53 H                     0.098520
     54 H                     0.084638
     55 H                     0.088644
     56 H                     0.072223
  ----------------------------------------
  Sum of atomic charges =    -0.000000

                    Cartesian Multipole Moments
 -----------------------------------------------------------------
    Charge (ESU x 10^10)
                -0.0000
    Dipole Moment (Debye)
         X       0.1306      Y      -2.7212      Z      -3.1927
       Tot       4.1971
    Quadrupole Moments (Debye-Ang)
        XX    -155.8608     XY       0.9642     YY    -158.6339
        XZ       3.1367     YZ       3.6227     ZZ    -162.5824

 Total job time:  59.54s(wall), 2834.06s(cpu)
        *  Thank you very much for using Q-Chem.  Have a nice day.  *
