 Q-Chem 5.0, Q-Chem, Inc., Pleasanton, CA (2017)
 Q-Chem 5.0.1 for Intel X86 EM64T Linux

User input:
--------------------------------------------------------------
$molecule
0  1
O -5.8560906261 0.8239855045 1.3538228226
C -5.3494878151 0.402652803 0.2930312785
C -4.6050366324 -0.9631194808 0.0712021246
C -3.197640371 -0.8371317491 -0.6420188173
C -2.703010397 0.6480616015 -0.7905554477
O -1.8895533961 0.8069635048 -1.9793978049
C -0.4646595455 1.1093798968 -1.6895397653
C -0.065703199 1.4353458375 -0.1949391882
O 1.3749201852 1.7727778619 -0.1692586019
C 2.1332931136 0.6403513888 0.3545388026
C 3.0419614292 -0.0024456365 -0.7602392738
C 4.5821512062 0.4005027706 -0.7227465207
C 4.9696210211 1.4513723386 0.3732459309
O 5.5052769032 2.565714102 0.1827694597
O -5.4888461892 1.0417708283 -0.9829902551
O 4.6516944159 0.9201614948 1.6605296069
O 1.9645333564 0.1993715989 1.5094796494
C 4.9802340326 1.9053682415 2.7161084645
C 3.1450587942 -1.5744360072 -0.5439664955
C 3.6792874521 -2.2271830019 -1.8796117775
C 5.2032497539 -1.8388298797 -1.8175555065
C 5.2534815201 -1.0204425811 -0.4670628763
O 4.2767701551 -1.7189073111 0.3968945228
H 2.6037470784 0.2563798685 -1.7400002977
H 4.8934527739 0.8196559522 -1.6959036648
H 2.2329361755 -2.0374686065 -0.1199689974
H 3.5388116496 -3.3195089654 -1.8563274496
H 3.1723580952 -1.8248146441 -2.7713996321
H 5.8440981471 -2.7322728203 -1.7483038636
H 5.5271421365 -1.2381715221 -2.6824176337
H 6.2447072765 -0.9783341547 0.0241995436
O -2.951405779 1.5759334837 0.0097286018
C -6.1548091315 2.3533105703 -0.8211964553
C -4.205765237 -1.6597871657 1.4367319466
C -3.974564972 -3.1929084345 1.1515105608
C -2.6172364654 -3.1463712735 0.3551625883
C -2.278777212 -1.6025687152 0.411133165
O -2.8358972859 -1.1577087153 1.7067063226
H -5.2735354723 -1.6125524919 -0.5239041293
H -3.1806309265 -1.3188795633 -1.6352243933
H -5.5181956598 3.0565103643 -0.2458030902
H -4.8805486756 -1.4151238546 2.2800973193
H -3.8664884697 -3.7483679136 2.0968591836
H -4.7965070984 -3.6395267565 0.5695306761
H -1.8299182601 -3.7302797405 0.8578562843
H -2.71871477 -3.5085553287 -0.680552106
H -1.1999365299 -1.3623715241 0.3468594559
H -7.131179073 2.2557679575 -0.3043616688
H -6.3102342892 2.7470328285 -1.8424337036
H 4.7313066104 1.4146519566 3.674774799
H 4.3806490729 2.8322205097 2.6072069659
H 6.0556591448 2.1765053396 2.7022678581
H -0.6375607552 2.3221816746 0.1522733994
H -0.3058631568 0.5888439505 0.4816699504
H -0.1677098772 1.9735907436 -2.3230572883
H 0.1298499317 0.2288439919 -2.0256363101
$end

$rem
JOBTYPE                   OPT
METHOD                    B3LYP
DFT_D                     d3_op
BASIS                     STO-3G
GEOM_OPT_MAX_CYCLES       100
GEOM_OPT_TOL_GRADIENT     300
GEOM_OPT_TOL_DISPLACEMENT 1200
GEOM_OPT_TOL_ENERGY       100
SYMMETRY                  False
THRESH                    12
SCF_CONVERGENCE           8
MAX_SUB_FILE_NUM          128
MEM_STATIC                400
MEM_TOTAL                 4000
$end
--------------------------------------------------------------

   16   -1510.2409060099      3.63E-09 Convergence criterion met
 Total energy in the final basis set = -1510.24090601
   14   -1510.2468142456      2.98E-09 Convergence criterion met
 Total energy in the final basis set = -1510.24681425
   14   -1510.2525817721      2.54E-09 Convergence criterion met
 Total energy in the final basis set = -1510.25258177
   14   -1510.2582313487      2.69E-09 Convergence criterion met
 Total energy in the final basis set = -1510.25823135
   14   -1510.2637460181      2.18E-09 Convergence criterion met
 Total energy in the final basis set = -1510.26374602
   14   -1510.2680457634      4.09E-09 Convergence criterion met
 Total energy in the final basis set = -1510.26804576
   14   -1510.2712187512      3.71E-09 Convergence criterion met
 Total energy in the final basis set = -1510.27121875
   14   -1510.2735709185      3.33E-09 Convergence criterion met
   12   -1510.2894971277      6.07E-09 Convergence criterion met
 Total energy in the final basis set = -1510.28949713
   12   -1510.2894795082      8.35E-09 Convergence criterion met
 Total energy in the final basis set = -1510.28947951
   12   -1510.2895393786      5.59E-09 Convergence criterion met
 Total energy in the final basis set = -1510.28953938
   11   -1510.2895318770      9.94E-09 Convergence criterion met
 Total energy in the final basis set = -1510.28953188
   10   -1510.2895373395      6.51E-09 Convergence criterion met
 Total energy in the final basis set = -1510.28953734
    9   -1510.2895396914      5.26E-09 Convergence criterion met
 Total energy in the final basis set = -1510.28953969

             Standard Nuclear Orientation (Angstroms)
    I     Atom           X                Y                Z
 ----------------------------------------------------------------
    1      O      -3.3084252743     0.3649774941     3.0906481422
    2      C      -3.5220375693     0.4904680554     1.8671580199
    3      C      -4.5938730086    -0.2645399195     0.9989870025
    4      C      -3.9764711677    -1.1892144199    -0.1299747978
    5      C      -2.4142826720    -1.2432043228    -0.0713748803
    6      O      -1.9201473804    -1.5421506909    -1.3801224036
    7      C      -0.4365054787    -1.5987605867    -1.3798638291
    8      C       0.2032938030    -0.1746730513    -1.1438851783
    9      O       1.5637003109    -0.0623057528    -1.7166691925
   10      C       2.5170741784    -0.7779188580    -0.9126626469
   11      C       3.9341040322    -0.5435636276    -1.5452632174
   12      C       4.3316075033     0.9874614210    -1.6652740796
   13      C       3.2586963369     1.9636608977    -1.0768955011
   14      O       2.7872421119     2.9917034568    -1.6077154810
   15      O      -2.8709635544     1.4532772609     1.0226815969
   16      O       2.9039821599     1.4997914729     0.2336024187
   17      O       2.2217750975    -1.4901483922     0.0687523083
   18      C       1.8856073594     2.3902435931     0.8327101049
   19      C       5.0877694553    -1.0937558786    -0.6107203541
   20      C       6.4034775745    -1.2229449487    -1.4726459707
   21      C       6.8084626346     0.2900253558    -1.6323782532
   22      C       5.6686596861     1.0028586723    -0.8008943661
   23      O       5.3780601933     0.0469682866     0.2899753030
   24      H       3.9499094060    -1.0270790606    -2.5395492112
   25      H       4.5169637907     1.2805637551    -2.7131908405
   26      H       4.8006246518    -1.9871211806    -0.0225928030
   27      H       7.1705556277    -1.7897773953    -0.9214772621
   28      H       6.2224935822    -1.7197538675    -2.4393964170
   29      H       7.7947134834     0.4942419899    -1.1862916510
   30      H       6.8204457769     0.6185216839    -2.6838997126
   31      H       5.9374275685     1.9945248461    -0.3879836010
   32      O      -1.6921549316    -1.0694154678     0.9360225538
   33      C      -1.7970035619     2.1326386681     1.7790858487
   34      C      -5.3936575287    -1.3249197043     1.8625171615
   35      C      -6.7177964626    -1.6964388218     1.0903390836
   36      C      -6.1449392875    -2.5806375890    -0.0797194993
   37      C      -4.6041352143    -2.5965811910     0.2720134850
   38      O      -4.5761636017    -2.5571311954     1.7504695626
   39      H      -5.2674493383     0.4886841230     0.5515108695
   40      H      -4.2830724621    -0.8772856125    -1.1438959093
   41      H      -1.0057276193     1.4154309604     2.0805865501
   42      H      -5.5134271324    -1.0398166808     2.9257066781
   43      H      -7.3927008473    -2.2766878414     1.7396235785
   44      H      -7.2549666844    -0.8052516233     0.7283953119
   45      H      -6.5544921547    -3.6029268334    -0.0537790529
   46      H      -6.3381243784    -2.1484004931    -1.0745976419
   47      H      -4.0439814177    -3.4732393293    -0.1078834429
   48      H      -2.1862860882     2.6304073571     2.6905301050
   49      H      -1.3708116977     2.8905910076     1.0963807087
   50      H       1.5736726859     1.9056948527     1.7761110082
   51      H       1.0078915866     2.5140344535     0.1668024818
   52      H       2.3031504165     3.3940139651     1.0532920671
   53      H      -0.4025300070     0.5914042662    -1.6693064553
   54      H       0.2042800873     0.0388278857    -0.0550801877
   55      H      -0.1592245884    -1.9720053239    -2.3864054146
   56      H      -0.0598758221    -2.3021807337    -0.6073405542
 ----------------------------------------------------------------

    9   -1510.2895386277      3.39E-09 Convergence criterion met
 Total energy in the final basis set = -1510.28953863
 Final energy is   -1510.28953862772
 **  OPTIMIZATION CONVERGED  **

                    Orbital Energies (a.u.)
 --------------------------------------------------------------

 Alpha MOs
 -- Occupied --
-18.941 -18.935 -18.934 -18.924 -18.888 -18.887 -18.882 -18.879
-18.875 -18.869 -10.105 -10.103 -10.099 -10.094 -10.074 -10.072
-10.065 -10.062 -10.061 -10.060 -10.058 -10.057 -10.040 -10.039
-10.038 -10.035 -10.021 -10.021 -10.020 -10.020  -1.020  -1.016
 -1.007  -1.003  -0.970  -0.970  -0.943  -0.939  -0.936  -0.930
 -0.765  -0.763  -0.729  -0.723  -0.712  -0.706  -0.696  -0.663
 -0.658  -0.623  -0.598  -0.586  -0.548  -0.545  -0.538  -0.537
 -0.513  -0.511  -0.488  -0.477  -0.468  -0.458  -0.453  -0.441
 -0.435  -0.431  -0.428  -0.417  -0.412  -0.410  -0.407  -0.396
 -0.390  -0.386  -0.373  -0.368  -0.362  -0.359  -0.355  -0.348
 -0.345  -0.343  -0.337  -0.333  -0.332  -0.326  -0.326  -0.313
 -0.310  -0.307  -0.304  -0.299  -0.296  -0.294  -0.282  -0.279
 -0.273  -0.261  -0.252  -0.250  -0.247  -0.234  -0.234  -0.195
 -0.177  -0.172  -0.169  -0.159  -0.158  -0.150  -0.147  -0.144
 -0.144

          Ground-State Mulliken Net Atomic Charges

     Atom                 Charge (a.u.)
  ----------------------------------------
      1 O                    -0.210425
      2 C                     0.215675
      3 C                    -0.080270
      4 C                    -0.078330
      5 C                     0.212980
      6 O                    -0.170272
      7 C                    -0.053548
      8 C                    -0.054432
      9 O                    -0.177099
     10 C                     0.216452
     11 C                    -0.078196
     12 C                    -0.078710
     13 C                     0.211986
     14 O                    -0.213263
     15 O                    -0.178327
     16 O                    -0.167460
     17 O                    -0.209123
     18 C                    -0.128457
     19 C                     0.024726
     20 C                    -0.143815
     21 C                    -0.143945
     22 C                     0.025914
     23 O                    -0.185226
     24 H                     0.084088
     25 H                     0.085502
     26 H                     0.090732
     27 H                     0.078568
     28 H                     0.072854
     29 H                     0.078359
     30 H                     0.073788
     31 H                     0.082684
     32 O                    -0.208927
     33 C                    -0.129396
     34 C                     0.024689
     35 C                    -0.143773
     36 C                    -0.143825
     37 C                     0.025582
     38 O                    -0.187294
     39 H                     0.083860
     40 H                     0.086943
     41 H                     0.089934
     42 H                     0.090898
     43 H                     0.078472
     44 H                     0.073206
     45 H                     0.078447
     46 H                     0.073744
     47 H                     0.083237
     48 H                     0.089068
     49 H                     0.084944
     50 H                     0.092971
     51 H                     0.087483
     52 H                     0.087928
     53 H                     0.089986
     54 H                     0.099004
     55 H                     0.089743
     56 H                     0.099664
  ----------------------------------------
  Sum of atomic charges =     0.000000

                    Cartesian Multipole Moments
 -----------------------------------------------------------------
    Charge (ESU x 10^10)
                -0.0000
    Dipole Moment (Debye)
         X      -0.3622      Y       0.3474      Z      -3.3063
       Tot       3.3442
    Quadrupole Moments (Debye-Ang)
        XX    -137.8131     XY      -1.7782     YY    -160.0387
        XZ      -2.1703     YZ      11.9549     ZZ    -167.5963

 Total job time:  87.07s(wall), 4146.30s(cpu)
        *  Thank you very much for using Q-Chem.  Have a nice day.  *
