 Q-Chem 5.0, Q-Chem, Inc., Pleasanton, CA (2017)
 Q-Chem 5.0.1 for Intel X86 EM64T Linux

User input:
--------------------------------------------------------------
$molecule
0  1
O -3.94934 -3.66094 2.70899
C -3.26408 -4.56952 2.26188
C -3.36658 -6.02376 2.66595
C -2.06172 -6.73936 3.05209
C -0.82554 -5.87464 3.16258
O 0.28277 -6.66317 3.28624
C 1.05799 -6.36605 4.45243
C 0.17197 -5.74835 5.52925
O 0.97316 -5.34828 6.65216
C 0.29134 -4.80461 7.69076
C 1.17588 -4.48478 8.87227
C 2.25786 -3.42861 8.60374
C 2.07848 -2.60415 7.34485
O 2.67569 -2.77828 6.29243
O -2.51927 -4.32265 1.14982
O 1.02964 -1.73613 7.33736
O -0.91759 -4.60386 7.68561
C 0.65028 -0.97728 6.25001
C 0.46936 -3.84605 10.08974
C 1.28005 -4.12834 11.35479
C 2.49134 -3.24566 11.12021
C 2.06283 -2.5272 9.83517
O 0.65919 -2.46071 9.93418
H 1.61394 -5.45639 9.19589
H 3.26511 -3.89646 8.53727
H -0.57984 -4.18693 10.22541
H 0.69787 -3.71137 12.20799
H 1.50485 -5.19748 11.5578
H 2.5747 -2.53147 11.96915
H 3.45244 -3.78592 10.97819
H 2.59332 -1.55532 9.72817
O -0.73978 -4.66729 2.98412
C -2.38222 -3.08185 0.56285
C -4.18753 -6.25983 3.95615
C -4.7987 -7.65581 3.92079
C -3.55852 -8.5051 4.08984
C -2.50339 -7.41811 4.35238
O -3.22456 -6.38768 4.98071
H -3.86659 -6.53272 1.81031
H -1.81556 -7.49293 2.26953
H -1.92787 -2.36724 1.28208
H -4.98647 -5.50638 4.12787
H -5.42475 -7.75261 4.83713
H -5.41841 -7.89341 3.02954
H -3.70058 -9.15618 4.98102
H -3.28669 -9.12508 3.20802
H -1.66793 -7.89403 4.8957
H -3.37247 -2.70303 0.23097
H -1.71856 -3.16942 -0.32162
H -0.22963 -0.36101 6.52622
H 0.37184 -1.63797 5.40107
H 1.47934 -0.30281 5.94665
H -0.33347 -4.81107 5.22338
H -0.56685 -6.47466 5.89428
H 1.86887 -5.65943 4.17294
H 1.51627 -7.2996 4.84162
$end

$opt
CONSTRAINT
tors           1           2           3           4    -129.890
tors           3           4           5           6    -169.845
tors           4           5           6           7    -124.284
tors           5           6           7           8     +25.822
tors           6           7           8           9    -175.132
tors           7           8           9          10    -178.832
tors           8           9          10          11    +176.403
tors           9          10          11          12     +63.193
tors          11          12          13          14    -101.322
ENDCONSTRAINT
$end

$rem
JOBTYPE                   OPT
METHOD                    B3LYP
DFT_D                     d3_op
BASIS                     STO-3G
GEOM_OPT_MAX_CYCLES       100
GEOM_OPT_TOL_GRADIENT     300
GEOM_OPT_TOL_DISPLACEMENT 1200
GEOM_OPT_TOL_ENERGY       100
SYMMETRY                  False
THRESH                    12
SCF_CONVERGENCE           8
MAX_SUB_FILE_NUM          128
MEM_STATIC                400
MEM_TOTAL                 4000
$end
--------------------------------------------------------------

   15   -1510.1257981693      5.91E-09 Convergence criterion met
 Total energy in the final basis set = -1510.12579817
   14   -1510.1976439426      2.60E-09 Convergence criterion met
 Total energy in the final basis set = -1510.19764394
   14   -1510.2355240722      5.61E-09 Convergence criterion met
 Total energy in the final basis set = -1510.23552407
   14   -1510.2541886869      5.49E-09 Convergence criterion met
 Total energy in the final basis set = -1510.25418869
   13   -1510.2610028412      8.86E-09 Convergence criterion met
 Total energy in the final basis set = -1510.26100284
   13   -1510.2638274135      5.21E-09 Convergence criterion met
 Total energy in the final basis set = -1510.26382741
   13   -1510.2651886167      4.25E-09 Convergence criterion met
 Total energy in the final basis set = -1510.26518862
   12   -1510.2657983993      8.48E-09 Convergence criterion met
   12   -1510.2677380629      2.24E-09 Convergence criterion met
 Total energy in the final basis set = -1510.26773806
   10   -1510.2677661596      9.11E-09 Convergence criterion met
 Total energy in the final basis set = -1510.26776616
   11   -1510.2678019211      5.24E-09 Convergence criterion met
 Total energy in the final basis set = -1510.26780192
    9   -1510.2678184300      9.06E-09 Convergence criterion met
 Total energy in the final basis set = -1510.26781843
    9   -1510.2678263550      8.66E-09 Convergence criterion met
 Total energy in the final basis set = -1510.26782636
    9   -1510.2678289881      5.12E-09 Convergence criterion met
 Total energy in the final basis set = -1510.26782899

             Standard Nuclear Orientation (Angstroms)
    I     Atom           X                Y                Z
 ----------------------------------------------------------------
    1      O      -3.9588417013     1.6367962931     2.1940348423
    2      C      -4.2506854294     1.2963542782     1.0283955963
    3      C      -4.5091214531    -0.1634466126     0.5014857071
    4      C      -3.7036866333    -0.5502676759    -0.8017558575
    5      C      -2.5334905368     0.4639556847    -1.0687128993
    6      O      -1.9447374467     0.2623808180    -2.3685013639
    7      C      -0.4757732915     0.0262492712    -2.3096263744
    8      C       0.1067786368    -0.5793870159    -0.9827752536
    9      O       1.5734718362    -0.5763626746    -1.1954033690
   10      C       2.2488368950    -1.1344942606    -0.0613647810
   11      C       3.7811056445    -1.1815830087    -0.4004226330
   12      C       4.4053853519     0.2653169145    -0.6247550262
   13      C       3.3224477399     1.3916365612    -0.7609153058
   14      O       2.9194185364     1.9269102928    -1.8165686847
   15      O      -4.6230650312     2.2102310543    -0.0163620184
   16      O       2.7654898581     1.6470587974     0.5335392868
   17      O       1.6754773851    -1.5376067026     0.9709269504
   18      C       1.6605470562     2.6281810166     0.4283964850
   19      C       4.5851828406    -1.6529192845     0.8778299007
   20      C       6.0869853926    -1.9287060607     0.4742447896
   21      C       6.6494777392    -0.4628168569     0.3574261824
   22      C       5.3475865538     0.3821080143     0.6511989335
   23      O       4.6549741169    -0.4139448534     1.6884169455
   24      H       3.9382663965    -1.8301786868    -1.2812781015
   25      H       4.9992363707     0.2798678299    -1.5558829868
   26      H       4.0830427984    -2.4569603899     1.4501308528
   27      H       6.6011883091    -2.4980450913     1.2646827143
   28      H       6.1637362246    -2.4899692041    -0.4708820702
   29      H       7.4161443852    -0.2637142972     1.1230312241
   30      H       7.0742891454    -0.2444375196    -0.6352105247
   31      H       5.5198526789     1.4165274327     1.0057193094
   32      O      -2.0817036075     1.2671185984    -0.2188523263
   33      C      -4.3826901078     3.6006677251     0.4266576505
   34      C      -4.0244020464    -1.2855443145     1.5135129189
   35      C      -4.8559954064    -2.5896113075     1.2064571939
   36      C      -4.2495386329    -3.0000411662    -0.1866107448
   37      C      -3.0858232695    -1.9418249059    -0.3464107384
   38      O      -2.6638518026    -1.6472053295     1.0415962929
   39      H      -5.5950672967    -0.2534426800     0.3140392283
   40      H      -4.3406008154    -0.6450233307    -1.6993840823
   41      H      -3.3009426477     3.7893814497     0.5857426077
   42      H      -3.9939533795    -0.9571077714     2.5707778310
   43      H      -4.6611767825    -3.3587157357     1.9708914857
   44      H      -5.9398948695    -2.3982275758     1.1619432662
   45      H      -3.8395297768    -4.0222978651    -0.1684462802
   46      H      -4.9820775094    -2.9280870432    -1.0064565127
   47      H      -2.2315728618    -2.2852155900    -0.9595315892
   48      H      -4.9230518185     3.8310093047     1.3675438737
   49      H      -4.7550056465     4.2518204056    -0.3855827798
   50      H       1.2477631941     2.7322673172     1.4485415167
   51      H       0.8639395315     2.2763095246    -0.2582488571
   52      H       2.0219866010     3.6142837029     0.0714422572
   53      H      -0.1738778242     0.0457230087    -0.1081788798
   54      H      -0.2634626332    -1.6103021874    -0.8025091554
   55      H       0.0695357067     0.9790923352    -2.5035865783
   56      H      -0.2630461831    -0.6609963819    -3.1548792423
 ----------------------------------------------------------------

    9   -1510.2678298532      2.10E-09 Convergence criterion met
 Total energy in the final basis set = -1510.26782985
 Final energy is   -1510.26782985317
 **  OPTIMIZATION CONVERGED  **

                    Orbital Energies (a.u.)
 --------------------------------------------------------------

 Alpha MOs
 -- Occupied --
-18.935 -18.929 -18.924 -18.921 -18.900 -18.890 -18.885 -18.880
-18.869 -18.864 -10.113 -10.100 -10.095 -10.093 -10.078 -10.074
-10.066 -10.058 -10.058 -10.058 -10.056 -10.056 -10.043 -10.038
-10.035 -10.034 -10.024 -10.021 -10.019 -10.018  -1.018  -1.015
 -1.004  -0.999  -0.973  -0.967  -0.945  -0.939  -0.930  -0.927
 -0.765  -0.762  -0.728  -0.724  -0.711  -0.706  -0.700  -0.656
 -0.655  -0.619  -0.597  -0.584  -0.550  -0.546  -0.540  -0.536
 -0.511  -0.509  -0.484  -0.470  -0.464  -0.461  -0.457  -0.446
 -0.437  -0.433  -0.429  -0.410  -0.407  -0.406  -0.405  -0.398
 -0.389  -0.383  -0.376  -0.367  -0.363  -0.360  -0.353  -0.349
 -0.344  -0.342  -0.337  -0.335  -0.329  -0.328  -0.326  -0.314
 -0.307  -0.306  -0.305  -0.299  -0.290  -0.287  -0.282  -0.276
 -0.273  -0.255  -0.248  -0.247  -0.246  -0.237  -0.231  -0.182
 -0.173  -0.171  -0.167  -0.163  -0.157  -0.148  -0.147  -0.144
 -0.140

          Ground-State Mulliken Net Atomic Charges

     Atom                 Charge (a.u.)
  ----------------------------------------
      1 O                    -0.216307
      2 C                     0.215889
      3 C                    -0.081371
      4 C                    -0.076797
      5 C                     0.223031
      6 O                    -0.184152
      7 C                    -0.049122
      8 C                    -0.055632
      9 O                    -0.176774
     10 C                     0.213030
     11 C                    -0.077480
     12 C                    -0.079648
     13 C                     0.208798
     14 O                    -0.215263
     15 O                    -0.178045
     16 O                    -0.168136
     17 O                    -0.202388
     18 C                    -0.128864
     19 C                     0.024781
     20 C                    -0.144877
     21 C                    -0.143247
     22 C                     0.025905
     23 O                    -0.185122
     24 H                     0.085112
     25 H                     0.082907
     26 H                     0.089481
     27 H                     0.078134
     28 H                     0.072438
     29 H                     0.077808
     30 H                     0.073026
     31 H                     0.084907
     32 O                    -0.192776
     33 C                    -0.128656
     34 C                     0.023623
     35 C                    -0.142515
     36 C                    -0.144022
     37 C                     0.023438
     38 O                    -0.189873
     39 H                     0.083894
     40 H                     0.088847
     41 H                     0.089630
     42 H                     0.093323
     43 H                     0.079296
     44 H                     0.074166
     45 H                     0.078925
     46 H                     0.074573
     47 H                     0.078535
     48 H                     0.087940
     49 H                     0.087309
     50 H                     0.094740
     51 H                     0.089603
     52 H                     0.086361
     53 H                     0.101426
     54 H                     0.086120
     55 H                     0.092268
     56 H                     0.091798
  ----------------------------------------
  Sum of atomic charges =    -0.000000

                    Cartesian Multipole Moments
 -----------------------------------------------------------------
    Charge (ESU x 10^10)
                 0.0000
    Dipole Moment (Debye)
         X      -0.4664      Y      -1.5775      Z      -2.4375
       Tot       2.9407
    Quadrupole Moments (Debye-Ang)
        XX    -137.1960     XY       0.9360     YY    -150.6304
        XZ      -1.1785     YZ       5.1689     ZZ    -171.4333

 Total job time:  54.98s(wall), 2616.71s(cpu)
        *  Thank you very much for using Q-Chem.  Have a nice day.  *
