 Q-Chem 5.0, Q-Chem, Inc., Pleasanton, CA (2017)
 Q-Chem 5.0.1 for Intel X86 EM64T Linux

User input:
--------------------------------------------------------------
$molecule
0  1
O -3.9588417013 1.6367962931 2.1940348423
C -4.2506854294 1.2963542782 1.0283955963
C -4.5091214531 -0.1634466126 0.5014857071
C -3.7036866333 -0.5502676759 -0.8017558575
C -2.5334905368 0.4639556847 -1.0687128993
O -1.9447374467 0.262380818 -2.3685013639
C -0.4757732915 0.0262492712 -2.3096263744
C 0.1067786368 -0.5793870159 -0.9827752536
O 1.5734718362 -0.5763626746 -1.195403369
C 2.248836895 -1.1344942606 -0.061364781
C 3.7811056445 -1.1815830087 -0.400422633
C 4.4053853519 0.2653169145 -0.6247550262
C 3.3224477399 1.3916365612 -0.7609153058
O 2.9194185364 1.9269102928 -1.8165686847
O -4.6230650312 2.2102310543 -0.0163620184
O 2.7654898581 1.6470587974 0.5335392868
O 1.6754773851 -1.5376067026 0.9709269504
C 1.6605470562 2.6281810166 0.428396485
C 4.5851828406 -1.6529192845 0.8778299007
C 6.0869853926 -1.9287060607 0.4742447896
C 6.6494777392 -0.4628168569 0.3574261824
C 5.3475865538 0.3821080143 0.6511989335
O 4.6549741169 -0.4139448534 1.6884169455
H 3.9382663965 -1.8301786868 -1.2812781015
H 4.9992363707 0.2798678299 -1.5558829868
H 4.0830427984 -2.4569603899 1.4501308528
H 6.6011883091 -2.4980450913 1.2646827143
H 6.1637362246 -2.4899692041 -0.4708820702
H 7.4161443852 -0.2637142972 1.1230312241
H 7.0742891454 -0.2444375196 -0.6352105247
H 5.5198526789 1.4165274327 1.0057193094
O -2.0817036075 1.2671185984 -0.2188523263
C -4.3826901078 3.6006677251 0.4266576505
C -4.0244020464 -1.2855443145 1.5135129189
C -4.8559954064 -2.5896113075 1.2064571939
C -4.2495386329 -3.0000411662 -0.1866107448
C -3.0858232695 -1.9418249059 -0.3464107384
O -2.6638518026 -1.6472053295 1.0415962929
H -5.5950672967 -0.25344268 0.3140392283
H -4.3406008154 -0.6450233307 -1.6993840823
H -3.3009426477 3.7893814497 0.5857426077
H -3.9939533795 -0.9571077714 2.570777831
H -4.6611767825 -3.3587157357 1.9708914857
H -5.9398948695 -2.3982275758 1.1619432662
H -3.8395297768 -4.0222978651 -0.1684462802
H -4.9820775094 -2.9280870432 -1.0064565127
H -2.2315728618 -2.28521559 -0.9595315892
H -4.9230518185 3.8310093047 1.3675438737
H -4.7550056465 4.2518204056 -0.3855827798
H 1.2477631941 2.7322673172 1.4485415167
H 0.8639395315 2.2763095246 -0.2582488571
H 2.021986601 3.6142837029 0.0714422572
H -0.1738778242 0.0457230087 -0.1081788798
H -0.2634626332 -1.6103021874 -0.8025091554
H 0.0695357067 0.9790923352 -2.5035865783
H -0.2630461831 -0.6609963819 -3.1548792423
$end

$rem
JOBTYPE                   OPT
METHOD                    B3LYP
DFT_D                     d3_op
BASIS                     STO-3G
GEOM_OPT_MAX_CYCLES       100
GEOM_OPT_TOL_GRADIENT     300
GEOM_OPT_TOL_DISPLACEMENT 1200
GEOM_OPT_TOL_ENERGY       100
SYMMETRY                  False
THRESH                    12
SCF_CONVERGENCE           8
MAX_SUB_FILE_NUM          128
MEM_STATIC                400
MEM_TOTAL                 4000
$end
--------------------------------------------------------------

   16   -1510.2676840916      4.25E-09 Convergence criterion met
 Total energy in the final basis set = -1510.26768409
   14   -1510.2733857333      2.78E-09 Convergence criterion met
 Total energy in the final basis set = -1510.27338573
   14   -1510.2775696105      2.02E-09 Convergence criterion met
 Total energy in the final basis set = -1510.27756961
   14   -1510.2810535330      2.89E-09 Convergence criterion met
 Total energy in the final basis set = -1510.28105353
   14   -1510.2846389423      1.64E-09 Convergence criterion met
 Total energy in the final basis set = -1510.28463894
   13   -1510.2873980895      8.62E-09 Convergence criterion met
 Total energy in the final basis set = -1510.28739809
   12   -1510.2895875015      9.89E-09 Convergence criterion met
 Total energy in the final basis set = -1510.28958750
   13   -1510.2910971747      4.28E-09 Convergence criterion met
   12   -1510.2970770126      6.70E-09 Convergence criterion met
 Total energy in the final basis set = -1510.29707701
   13   -1510.2971408089      4.08E-09 Convergence criterion met
 Total energy in the final basis set = -1510.29714081
   12   -1510.2972445736      8.01E-09 Convergence criterion met
 Total energy in the final basis set = -1510.29724457
   12   -1510.2972531405      7.21E-09 Convergence criterion met
 Total energy in the final basis set = -1510.29725314
   12   -1510.2972857505      3.89E-09 Convergence criterion met
 Total energy in the final basis set = -1510.29728575
   11   -1510.2972784879      5.74E-09 Convergence criterion met
 Total energy in the final basis set = -1510.29727849

             Standard Nuclear Orientation (Angstroms)
    I     Atom           X                Y                Z
 ----------------------------------------------------------------
    1      O      -2.3466249774     1.2002346387     1.8261741145
    2      C      -2.9321101154     1.2916215213     0.7251207900
    3      C      -4.0338637963     0.3084681552     0.1728302419
    4      C      -3.5561714583    -0.6437222161    -1.0003810311
    5      C      -2.0404766149    -0.4823879972    -1.3463335602
    6      O      -1.7103929301    -1.3488429044    -2.4323244853
    7      C      -0.2814641185    -1.1855440339    -2.7989782299
    8      C       0.7135147475    -1.8283869415    -1.7563567459
    9      O       1.7939966682    -0.8320347352    -1.5637954455
   10      C       2.8342759406    -1.3677981474    -0.7300622204
   11      C       3.9608147510    -0.2789243513    -0.6230670549
   12      C       3.4760409253     1.1067678244    -0.0231494740
   13      C       1.9825251534     1.1004555882     0.4511410110
   14      O       1.1277730360     1.9902061502     0.2396083644
   15      O      -2.7904538046     2.3829996057    -0.1858216145
   16      O       1.7708457588    -0.0850014381     1.2119348009
   17      O       2.8388549049    -2.5279087365    -0.2694036393
   18      C       0.3664872805    -0.1675009654     1.6815796465
   19      C       5.0800351324    -0.6964884279     0.4176078431
   20      C       6.3679718002     0.1683197110     0.1265290752
   21      C       5.9119873555     1.5747999724     0.6677904526
   22      C       4.4667049043     1.2408736180     1.2152998213
   23      O       4.5862687921    -0.1500841740     1.7029054433
   24      H       4.3840976815    -0.1334656029    -1.6343242793
   25      H       3.6047687788     1.9343101427    -0.7419136736
   26      H       5.2334650841    -1.7904340551     0.4957724396
   27      H       7.2291680745    -0.2211772677     0.6923665346
   28      H       6.6267883496     0.1865774198    -0.9442087807
   29      H       6.5623840134     1.9246746376     1.4851099593
   30      H       5.8874000967     2.3455123333    -0.1193256289
   31      H       4.1038544197     1.9059780738     2.0229671410
   32      O      -1.2056324473     0.2636710373    -0.7836231642
   33      C      -1.6705697515     3.2517745246     0.2539352324
   34      C      -4.4387908177    -0.7584510139     1.2756361375
   35      C      -5.8249937984    -1.3968246361     0.8746806582
   36      C      -5.3970350029    -2.3138174577    -0.3305400095
   37      C      -3.8360081725    -2.0728338224    -0.3598306523
   38      O      -3.4779033414    -1.8673858182     1.0603289611
   39      H      -4.9020856848     0.9083656745    -0.1533644109
   40      H      -4.1437320186    -0.4923304546    -1.9241767141
   41      H      -0.7025505580     2.6972751693     0.2652395578
   42      H      -4.3603719898    -0.3819506563     2.3138694962
   43      H      -6.2293542269    -1.9924921156     1.7085398322
   44      H      -6.5688436704    -0.6355881139     0.5902476285
   45      H      -5.6190584710    -3.3746252291    -0.1333699399
   46      H      -5.8765432619    -2.0227899425    -1.2787542130
   47      H      -3.2382049045    -2.8925248439    -0.8041567372
   48      H      -1.8611723665     3.6705779097     1.2628238938
   49      H      -1.6235002380     4.0750948928    -0.4818777830
   50      H       0.2519662145    -1.1752946849     2.1198655571
   51      H      -0.3414276972    -0.0251475285     0.8355970327
   52      H       0.1550108378     0.5987685993     2.4538444190
   53      H       0.1908420059    -2.0353708276    -0.7966788031
   54      H       1.1244973774    -2.7906702438    -2.1305649038
   55      H      -0.0249333255    -0.1075625016    -2.8919286654
   56      H      -0.1829776433    -1.6723271634    -3.7888961666
 ----------------------------------------------------------------

    9   -1510.2972792984      8.81E-09 Convergence criterion met
 Total energy in the final basis set = -1510.29727930
 Final energy is   -1510.29727929844
 **  OPTIMIZATION CONVERGED  **

                    Orbital Energies (a.u.)
 --------------------------------------------------------------

 Alpha MOs
 -- Occupied --
-18.951 -18.929 -18.927 -18.913 -18.896 -18.888 -18.884 -18.873
-18.869 -18.854 -10.115 -10.098 -10.094 -10.086 -10.082 -10.075
-10.064 -10.057 -10.057 -10.054 -10.044 -10.035 -10.034 -10.033
-10.032 -10.032 -10.022 -10.020 -10.018 -10.017  -1.029  -1.011
 -1.000  -0.993  -0.972  -0.966  -0.952  -0.935  -0.928  -0.918
 -0.765  -0.760  -0.730  -0.721  -0.712  -0.703  -0.697  -0.645
 -0.642  -0.619  -0.594  -0.582  -0.546  -0.543  -0.537  -0.534
 -0.514  -0.506  -0.488  -0.472  -0.459  -0.455  -0.453  -0.445
 -0.432  -0.431  -0.424  -0.415  -0.406  -0.401  -0.401  -0.394
 -0.390  -0.381  -0.366  -0.361  -0.359  -0.356  -0.349  -0.345
 -0.341  -0.337  -0.332  -0.329  -0.327  -0.322  -0.320  -0.314
 -0.308  -0.305  -0.303  -0.299  -0.289  -0.288  -0.277  -0.274
 -0.271  -0.260  -0.253  -0.241  -0.236  -0.232  -0.230  -0.193
 -0.176  -0.168  -0.165  -0.158  -0.153  -0.147  -0.143  -0.140
 -0.137

          Ground-State Mulliken Net Atomic Charges

     Atom                 Charge (a.u.)
  ----------------------------------------
      1 O                    -0.222385
      2 C                     0.213300
      3 C                    -0.082058
      4 C                    -0.078047
      5 C                     0.219224
      6 O                    -0.168503
      7 C                    -0.049349
      8 C                    -0.048405
      9 O                    -0.177397
     10 C                     0.217266
     11 C                    -0.078178
     12 C                    -0.078666
     13 C                     0.218009
     14 O                    -0.214481
     15 O                    -0.177136
     16 O                    -0.167957
     17 O                    -0.211962
     18 C                    -0.141423
     19 C                     0.024850
     20 C                    -0.143851
     21 C                    -0.144098
     22 C                     0.025959
     23 O                    -0.185235
     24 H                     0.082283
     25 H                     0.083746
     26 H                     0.089969
     27 H                     0.077747
     28 H                     0.072135
     29 H                     0.077677
     30 H                     0.073058
     31 H                     0.082842
     32 O                    -0.204492
     33 C                    -0.141791
     34 C                     0.024511
     35 C                    -0.143943
     36 C                    -0.143709
     37 C                     0.024572
     38 O                    -0.190860
     39 H                     0.083779
     40 H                     0.088384
     41 H                     0.115504
     42 H                     0.090347
     43 H                     0.078489
     44 H                     0.073905
     45 H                     0.078636
     46 H                     0.073822
     47 H                     0.084508
     48 H                     0.079038
     49 H                     0.079845
     50 H                     0.087280
     51 H                     0.108597
     52 H                     0.090081
     53 H                     0.091820
     54 H                     0.088556
     55 H                     0.101929
     56 H                     0.092256
  ----------------------------------------
  Sum of atomic charges =    -0.000000

                    Cartesian Multipole Moments
 -----------------------------------------------------------------
    Charge (ESU x 10^10)
                 0.0000
    Dipole Moment (Debye)
         X      -0.7887      Y       0.1371      Z      -3.3420
       Tot       3.4366
    Quadrupole Moments (Debye-Ang)
        XX    -138.1561     XY       9.1322     YY    -161.7762
        XZ      -3.5498     YZ       5.7116     ZZ    -159.0628

 Total job time:  115.07s(wall), 5486.25s(cpu)
        *  Thank you very much for using Q-Chem.  Have a nice day.  *
