 Q-Chem 5.0, Q-Chem, Inc., Pleasanton, CA (2017)
 Q-Chem 5.0.1 for Intel X86 EM64T Linux

User input:
--------------------------------------------------------------
$molecule
0  1
O -3.806032345 1.5914519528 1.9555156821
C -4.3712838063 1.2854348544 0.8846302988
C -4.6700921122 -0.1644939776 0.3462417447
C -3.7925971458 -0.609231709 -0.8936094394
C -2.670554398 0.4268870742 -1.2632771719
O -1.9408515493 0.0130701426 -2.4364799279
C -0.5197029371 -0.3542853095 -2.1749863804
C 0.0020268464 -0.3563647698 -0.6872842345
O 1.437539713 0.0001368306 -0.7739999205
C 2.1679086413 -0.5767432311 0.3353939565
C 3.5908275835 -1.0137766451 -0.1773374272
C 4.4858527359 0.1709986796 -0.7305348507
C 3.8131415159 1.5749466872 -0.5715478524
O 3.8933452773 2.5536277069 -1.3434625871
O -4.9915276991 2.2216551395 -0.0094301487
O 3.1042974007 1.5865437465 0.6758116713
O 1.649000322 -0.8783301999 1.4299340418
C 2.3056812473 2.824989988 0.8119960476
C 4.4907995004 -1.5587282474 1.0062126853
C 5.6686804223 -2.4008975372 0.3794941954
C 6.5677203316 -1.2563922762 -0.2209718187
C 5.7607966061 0.0314914264 0.2154197223
O 5.1706324334 -0.3450419713 1.5176532858
H 3.4367342822 -1.7821682291 -0.9570561539
H 4.7503625396 0.03534599 -1.7937806826
H 3.9143909703 -2.0483949077 1.8152683297
H 6.2009639141 -2.9641506162 1.1625735493
H 5.3125087407 -3.1087145263 -0.3860086345
H 7.5729968449 -1.2514242412 0.2295245864
H 6.6717752744 -1.3279476016 -1.3155216454
H 6.3640955547 0.9551617 0.3120440567
O -2.396870668 1.4586869053 -0.6081481402
C -4.6865712317 3.6024858001 0.4252005755
C -4.2693157302 -1.2708237512 1.4117208831
C -5.0358600081 -2.6022554901 1.0552153349
C -4.2614717982 -3.0553065384 -0.2368152808
C -3.1396565087 -1.9450687474 -0.3304414249
O -2.8598026202 -1.5950048708 1.0791682199
H -5.7439972098 -0.2174694511 0.0929754792
H -4.4049215068 -0.8095568952 -1.7918503103
H -3.5969849355 3.8057973663 0.3777268648
H -4.3446573134 -0.9321099737 2.4632130167
H -4.9253938307 -3.3374790614 1.8681990874
H -6.1094070663 -2.4335982759 0.8738384391
H -3.8070519051 -4.0509868559 -0.1118294376
H -4.9008379836 -3.0690592421 -1.1339083447
H -2.2176758318 -2.2603875064 -0.8537739244
H -5.0370396033 3.7944343305 1.4599651463
H -5.218620952 4.2706967809 -0.2767386951
H 1.8373728029 2.7768645787 1.8121555433
H 1.5162117905 2.8765673223 0.0343176342
H 2.9431088766 3.72910478 0.7369253189
H -0.549213576 0.4060650893 -0.0927355288
H -0.1467434889 -1.3400935487 -0.1965957421
H 0.1265308258 0.3538318883 -2.7426066532
H -0.3814881496 -1.3629201192 -2.6215150066
$end

$rem
JOBTYPE                   OPT
METHOD                    B3LYP
DFT_D                     d3_op
BASIS                     STO-3G
GEOM_OPT_MAX_CYCLES       100
GEOM_OPT_TOL_GRADIENT     300
GEOM_OPT_TOL_DISPLACEMENT 1200
GEOM_OPT_TOL_ENERGY       100
SYMMETRY                  False
THRESH                    12
SCF_CONVERGENCE           8
MAX_SUB_FILE_NUM          128
MEM_STATIC                400
MEM_TOTAL                 4000
$end
--------------------------------------------------------------

   15   -1510.2559472383      9.42E-09 Convergence criterion met
 Total energy in the final basis set = -1510.25594724
   14   -1510.2615742251      3.88E-09 Convergence criterion met
 Total energy in the final basis set = -1510.26157423
   14   -1510.2669299156      3.78E-09 Convergence criterion met
 Total energy in the final basis set = -1510.26692992
   14   -1510.2716152434      2.77E-09 Convergence criterion met
 Total energy in the final basis set = -1510.27161524
   14   -1510.2751265157      3.01E-09 Convergence criterion met
 Total energy in the final basis set = -1510.27512652
   14   -1510.2772990316      1.95E-09 Convergence criterion met
 Total energy in the final basis set = -1510.27729903
   14   -1510.2795575555      2.75E-09 Convergence criterion met
 Total energy in the final basis set = -1510.27955756
   14   -1510.2815399930      2.54E-09 Convergence criterion met
   12   -1510.2971327876      7.33E-09 Convergence criterion met
 Total energy in the final basis set = -1510.29713279
   10   -1510.2971199741      9.38E-09 Convergence criterion met
 Total energy in the final basis set = -1510.29711997
   10   -1510.2971245488      9.41E-09 Convergence criterion met
 Total energy in the final basis set = -1510.29712455
    9   -1510.2971245068      4.68E-09 Convergence criterion met
 Total energy in the final basis set = -1510.29712451
    9   -1510.2971210153      9.87E-09 Convergence criterion met
 Total energy in the final basis set = -1510.29712102
    9   -1510.2971180566      6.41E-09 Convergence criterion met
 Total energy in the final basis set = -1510.29711806

             Standard Nuclear Orientation (Angstroms)
    I     Atom           X                Y                Z
 ----------------------------------------------------------------
    1      O      -2.3148157362     1.5868118283     1.4665160541
    2      C      -2.8962011093     1.4687379605     0.3659656609
    3      C      -4.0447554172     0.4445788736     0.0203877270
    4      C      -3.5987562662    -0.7808177158    -0.8806197654
    5      C      -2.0807861785    -0.7583715696    -1.2480911224
    6      O      -1.7934462317    -1.8483212286    -2.1245689119
    7      C      -0.3642546027    -1.8226085388    -2.5231442950
    8      C       0.6220219132    -2.2599886347    -1.3712134793
    9      O       1.7278013583    -1.2729173332    -1.3891007063
   10      C       2.7688481838    -1.6659891516    -0.4802183846
   11      C       3.9222507366    -0.6055694794    -0.5902571940
   12      C       3.4866162097     0.8742762188    -0.2203454954
   13      C       1.9946467374     1.0022154022     0.2388703533
   14      O       1.1729341780     1.8693277768    -0.1352888693
   15      O      -2.7019560508     2.3309396298    -0.7565786316
   16      O       1.7366542600    -0.0187995078     1.1979463006
   17      O       2.7534600553    -2.7167431775     0.1933563887
   18      C       0.3287011034     0.0404880984     1.6612803128
   19      C       5.0555070970    -0.8729912741     0.4828174114
   20      C       6.3508906633    -0.0862907801     0.0420371454
   21      C       5.9342840940     1.3939256474     0.3792807957
   22      C       4.4883873746     1.1756122059     0.9798005607
   23      O       4.5882590868    -0.1262529574     1.6746024139
   24      H       4.3209253771    -0.6434414866    -1.6209065744
   25      H       3.6416560445     1.5678902665    -1.0648823580
   26      H       5.1957988593    -1.9435721317     0.7287500858
   27      H       7.2185521152    -0.4070260098     0.6401931956
   28      H       6.5834779724    -0.2308114792    -1.0251092751
   29      H       6.6014152689     1.8411823929     1.1330754737
   30      H       5.9185339611     2.0442828046    -0.5099522979
   31      H       4.1443338630     1.9632042988     1.6782077359
   32      O      -1.2136488631     0.0569428252    -0.8556210912
   33      C      -1.5457934303     3.2254076434    -0.5010019315
   34      C      -4.5342807171    -0.3092725218     1.3258535181
   35      C      -5.9338117572    -0.9746273361     1.0280264339
   36      C      -5.5055848265    -2.1877465058     0.1204795277
   37      C      -3.9371532655    -2.0027118998     0.0844129950
   38      O      -3.6128171657    -1.4679934363     1.4235514936
   39      H      -4.8673244955     0.9974016032    -0.4674394736
   40      H      -4.1826579341    -0.8406357804    -1.8168173966
   41      H      -0.6066744307     2.6453593348    -0.3395919437
   42      H      -4.4750128108     0.3024757662     2.2466537606
   43      H      -6.4059166830    -1.3178561394     1.9622700804
   44      H      -6.6225391803    -0.2830273912     0.5168723445
   45      H      -5.7667658544    -3.1526993123     0.5833121974
   46      H      -5.9499356260    -2.1459905211    -0.8867639595
   47      H      -3.3565752186    -2.9221848053    -0.1262317281
   48      H      -1.7278636010     3.8737713427     0.3801182423
   49      H      -1.4489219402     3.8547601104    -1.4043977416
   50      H       0.1739146446    -0.8633135653     2.2778243003
   51      H      -0.3705013493     0.0505664479     0.7958239893
   52      H       0.1447781565     0.9445937631     2.2754122309
   53      H       0.1011806159    -2.2521801017    -0.3886240353
   54      H       1.0077193472    -3.2882534208    -1.5398011975
   55      H      -0.0704256179    -0.8013465078    -2.8506567254
   56      H      -0.2959500452    -2.5167189703    -3.3835756823
 ----------------------------------------------------------------

    9   -1510.2971170071      3.49E-09 Convergence criterion met
 Total energy in the final basis set = -1510.29711701
 Final energy is   -1510.29711700705
 **  OPTIMIZATION CONVERGED  **

                    Orbital Energies (a.u.)
 --------------------------------------------------------------

 Alpha MOs
 -- Occupied --
-18.951 -18.929 -18.927 -18.913 -18.896 -18.889 -18.884 -18.873
-18.869 -18.854 -10.115 -10.098 -10.094 -10.085 -10.082 -10.075
-10.064 -10.057 -10.057 -10.054 -10.044 -10.035 -10.035 -10.033
-10.032 -10.032 -10.022 -10.020 -10.018 -10.017  -1.029  -1.011
 -1.000  -0.992  -0.972  -0.966  -0.952  -0.935  -0.928  -0.918
 -0.765  -0.760  -0.730  -0.721  -0.712  -0.703  -0.697  -0.645
 -0.642  -0.619  -0.594  -0.582  -0.547  -0.543  -0.537  -0.534
 -0.515  -0.506  -0.488  -0.471  -0.459  -0.454  -0.453  -0.445
 -0.432  -0.431  -0.424  -0.414  -0.406  -0.402  -0.401  -0.394
 -0.390  -0.381  -0.366  -0.361  -0.359  -0.356  -0.349  -0.345
 -0.341  -0.337  -0.332  -0.329  -0.327  -0.322  -0.320  -0.314
 -0.308  -0.305  -0.303  -0.299  -0.289  -0.288  -0.277  -0.274
 -0.271  -0.260  -0.253  -0.242  -0.236  -0.232  -0.230  -0.193
 -0.176  -0.168  -0.165  -0.158  -0.153  -0.147  -0.143  -0.140
 -0.136

          Ground-State Mulliken Net Atomic Charges

     Atom                 Charge (a.u.)
  ----------------------------------------
      1 O                    -0.221842
      2 C                     0.213289
      3 C                    -0.081740
      4 C                    -0.078539
      5 C                     0.218836
      6 O                    -0.168521
      7 C                    -0.049323
      8 C                    -0.048414
      9 O                    -0.177037
     10 C                     0.217119
     11 C                    -0.078210
     12 C                    -0.078847
     13 C                     0.217909
     14 O                    -0.214350
     15 O                    -0.177299
     16 O                    -0.168114
     17 O                    -0.211654
     18 C                    -0.141400
     19 C                     0.024696
     20 C                    -0.144010
     21 C                    -0.144007
     22 C                     0.025986
     23 O                    -0.185047
     24 H                     0.082445
     25 H                     0.083722
     26 H                     0.089755
     27 H                     0.077788
     28 H                     0.072181
     29 H                     0.077767
     30 H                     0.073177
     31 H                     0.082970
     32 O                    -0.204410
     33 C                    -0.142082
     34 C                     0.024621
     35 C                    -0.144164
     36 C                    -0.143428
     37 C                     0.024884
     38 O                    -0.190095
     39 H                     0.083818
     40 H                     0.088293
     41 H                     0.116090
     42 H                     0.089986
     43 H                     0.078433
     44 H                     0.073868
     45 H                     0.078691
     46 H                     0.073809
     47 H                     0.084128
     48 H                     0.078643
     49 H                     0.079563
     50 H                     0.086850
     51 H                     0.108544
     52 H                     0.090242
     53 H                     0.091543
     54 H                     0.088908
     55 H                     0.101704
     56 H                     0.092273
  ----------------------------------------
  Sum of atomic charges =    -0.000000

                    Cartesian Multipole Moments
 -----------------------------------------------------------------
    Charge (ESU x 10^10)
                -0.0000
    Dipole Moment (Debye)
         X      -0.8010      Y      -0.5129      Z      -3.3269
       Tot       3.4602
    Quadrupole Moments (Debye-Ang)
        XX    -137.7264     XY       7.8521     YY    -159.8432
        XZ      -4.7974     YZ       6.2611     ZZ    -161.2572

 Total job time:  107.14s(wall), 5101.55s(cpu)
        *  Thank you very much for using Q-Chem.  Have a nice day.  *
