 Q-Chem 5.0, Q-Chem, Inc., Pleasanton, CA (2017)
 Q-Chem 5.0.1 for Intel X86 EM64T Linux

User input:
--------------------------------------------------------------
$molecule
0  1
O -3.94934 -3.66094 2.70899
C -3.26408 -4.56952 2.26188
C -3.36658 -6.02376 2.66595
C -2.21504 -6.603 3.50398
C -1.17665 -5.61865 3.99481
O -0.18913 -6.28195 4.66581
C -0.16015 -5.98252 6.06537
C -1.32602 -5.0701 6.43193
O -0.95622 -4.22033 7.52921
C -1.97846 -3.8142 8.32245
C -1.59219 -3.72325 9.77956
C -0.47236 -2.71962 10.09096
C -0.15832 -1.7194 8.99659
O 0.95168 -1.27745 8.73749
O -2.34226 -4.28387 1.30364
O -1.22522 -1.13496 8.38401
O -3.11263 -3.61216 7.90661
C -1.13375 -0.16598 7.40701
C -2.71176 -3.21729 10.71088
C -2.43701 -3.67586 12.14295
C -1.25892 -2.79347 12.50086
C -1.15986 -1.93988 11.2321
O -2.49289 -1.83273 10.79228
H -1.30599 -4.75537 10.08374
H 0.48218 -3.17903 10.43058
H -3.72901 -3.53787 10.39775
H -3.31064 -3.36876 12.76165
H -2.26719 -4.76729 12.26494
H -1.54619 -2.16121 13.37036
H -0.30946 -3.32956 12.71669
H -0.64387 -0.97881 11.45276
O -1.00649 -4.47683 3.59004
C -2.11498 -3.02185 0.79562
C -4.55227 -6.29057 3.62364
C -4.99169 -7.74787 3.51017
C -3.82641 -8.4416 4.17807
C -3.01816 -7.22832 4.65699
O -3.99138 -6.24743 4.91192
H -3.5512 -6.59256 1.72672
H -1.65784 -7.38218 2.93683
H -1.79113 -2.33518 1.60681
H -5.42605 -5.62543 3.44854
H -5.89205 -7.86521 4.15548
H -5.23017 -8.10064 2.48378
H -4.21546 -9.0259 5.04156
H -3.22246 -9.09941 3.51613
H -2.38012 -7.54503 5.50603
H -3.03804 -2.62976 0.31759
H -1.31227 -3.07635 0.03201
H -2.15533 0.12428 7.08686
H -0.58226 -0.56224 6.52768
H -0.61443 0.73193 7.8047
H -1.66606 -4.26977 5.74983
H -2.21585 -5.68592 6.67333
H 0.79249 -5.43579 6.23394
H -0.15358 -6.8973 6.69486
$end

$opt
CONSTRAINT
tors           1           2           3           4    -108.981
tors           3           4           5           6    -177.138
tors           4           5           6           7    -112.694
tors           5           6           7           8      +4.204
tors           6           7           8           9    -149.247
tors           7           8           9          10    -151.997
tors           8           9          10          11    +143.813
tors           9          10          11          12     +61.418
tors          11          12          13          14    -145.267
ENDCONSTRAINT
$end

$rem
JOBTYPE                   OPT
METHOD                    B3LYP
DFT_D                     d3_op
BASIS                     STO-3G
GEOM_OPT_MAX_CYCLES       100
GEOM_OPT_TOL_GRADIENT     300
GEOM_OPT_TOL_DISPLACEMENT 1200
GEOM_OPT_TOL_ENERGY       100
SYMMETRY                  False
THRESH                    12
SCF_CONVERGENCE           8
MAX_SUB_FILE_NUM          128
MEM_STATIC                400
MEM_TOTAL                 4000
$end
--------------------------------------------------------------

   15   -1510.1038992138      8.28E-09 Convergence criterion met
 Total energy in the final basis set = -1510.10389921
   14   -1510.1785907810      2.94E-09 Convergence criterion met
 Total energy in the final basis set = -1510.17859078
   14   -1510.2195265437      2.57E-09 Convergence criterion met
 Total energy in the final basis set = -1510.21952654
   14   -1510.2414545849      4.50E-09 Convergence criterion met
 Total energy in the final basis set = -1510.24145458
   14   -1510.2501067858      5.41E-09 Convergence criterion met
 Total energy in the final basis set = -1510.25010679
    2   -1510.2501067859      2.53E-09 Convergence criterion met
 Total energy in the final basis set = -1510.25010679
   13   -1510.2536869908      4.03E-09 Convergence criterion met
 Total energy in the final basis set = -1510.25368699
   13   -1510.2549939556      3.34E-09 Convergence criterion met
   11   -1510.2557694571      4.80E-09 Convergence criterion met
 Total energy in the final basis set = -1510.25576946
   10   -1510.2557866393      7.13E-09 Convergence criterion met
 Total energy in the final basis set = -1510.25578664
   10   -1510.2557950737      5.50E-09 Convergence criterion met
 Total energy in the final basis set = -1510.25579507
   10   -1510.2557903405      9.74E-09 Convergence criterion met
 Total energy in the final basis set = -1510.25579034
    9   -1510.2557925471      6.68E-09 Convergence criterion met
 Total energy in the final basis set = -1510.25579255
    9   -1510.2558020851      3.11E-09 Convergence criterion met
 Total energy in the final basis set = -1510.25580209

             Standard Nuclear Orientation (Angstroms)
    I     Atom           X                Y                Z
 ----------------------------------------------------------------
    1      O      -3.8060323450     1.5914519528     1.9555156821
    2      C      -4.3712838063     1.2854348544     0.8846302988
    3      C      -4.6700921122    -0.1644939776     0.3462417447
    4      C      -3.7925971458    -0.6092317090    -0.8936094394
    5      C      -2.6705543980     0.4268870742    -1.2632771719
    6      O      -1.9408515493     0.0130701426    -2.4364799279
    7      C      -0.5197029371    -0.3542853095    -2.1749863804
    8      C       0.0020268464    -0.3563647698    -0.6872842345
    9      O       1.4375397130     0.0001368306    -0.7739999205
   10      C       2.1679086413    -0.5767432311     0.3353939565
   11      C       3.5908275835    -1.0137766451    -0.1773374272
   12      C       4.4858527359     0.1709986796    -0.7305348507
   13      C       3.8131415159     1.5749466872    -0.5715478524
   14      O       3.8933452773     2.5536277069    -1.3434625871
   15      O      -4.9915276991     2.2216551395    -0.0094301487
   16      O       3.1042974007     1.5865437465     0.6758116713
   17      O       1.6490003220    -0.8783301999     1.4299340418
   18      C       2.3056812473     2.8249899880     0.8119960476
   19      C       4.4907995004    -1.5587282474     1.0062126853
   20      C       5.6686804223    -2.4008975372     0.3794941954
   21      C       6.5677203316    -1.2563922762    -0.2209718187
   22      C       5.7607966061     0.0314914264     0.2154197223
   23      O       5.1706324334    -0.3450419713     1.5176532858
   24      H       3.4367342822    -1.7821682291    -0.9570561539
   25      H       4.7503625396     0.0353459900    -1.7937806826
   26      H       3.9143909703    -2.0483949077     1.8152683297
   27      H       6.2009639141    -2.9641506162     1.1625735493
   28      H       5.3125087407    -3.1087145263    -0.3860086345
   29      H       7.5729968449    -1.2514242412     0.2295245864
   30      H       6.6717752744    -1.3279476016    -1.3155216454
   31      H       6.3640955547     0.9551617000     0.3120440567
   32      O      -2.3968706680     1.4586869053    -0.6081481402
   33      C      -4.6865712317     3.6024858001     0.4252005755
   34      C      -4.2693157302    -1.2708237512     1.4117208831
   35      C      -5.0358600081    -2.6022554901     1.0552153349
   36      C      -4.2614717982    -3.0553065384    -0.2368152808
   37      C      -3.1396565087    -1.9450687474    -0.3304414249
   38      O      -2.8598026202    -1.5950048708     1.0791682199
   39      H      -5.7439972098    -0.2174694511     0.0929754792
   40      H      -4.4049215068    -0.8095568952    -1.7918503103
   41      H      -3.5969849355     3.8057973663     0.3777268648
   42      H      -4.3446573134    -0.9321099737     2.4632130167
   43      H      -4.9253938307    -3.3374790614     1.8681990874
   44      H      -6.1094070663    -2.4335982759     0.8738384391
   45      H      -3.8070519051    -4.0509868559    -0.1118294376
   46      H      -4.9008379836    -3.0690592421    -1.1339083447
   47      H      -2.2176758318    -2.2603875064    -0.8537739244
   48      H      -5.0370396033     3.7944343305     1.4599651463
   49      H      -5.2186209520     4.2706967809    -0.2767386951
   50      H       1.8373728029     2.7768645787     1.8121555433
   51      H       1.5162117905     2.8765673223     0.0343176342
   52      H       2.9431088766     3.7291047800     0.7369253189
   53      H      -0.5492135760     0.4060650893    -0.0927355288
   54      H      -0.1467434889    -1.3400935487    -0.1965957421
   55      H       0.1265308258     0.3538318883    -2.7426066532
   56      H      -0.3814881496    -1.3629201192    -2.6215150066
 ----------------------------------------------------------------

    9   -1510.2558023505      4.07E-09 Convergence criterion met
 Total energy in the final basis set = -1510.25580235
 Final energy is   -1510.25580235052
 **  OPTIMIZATION CONVERGED  **

                    Orbital Energies (a.u.)
 --------------------------------------------------------------

 Alpha MOs
 -- Occupied --
-18.939 -18.920 -18.915 -18.915 -18.910 -18.891 -18.887 -18.877
-18.872 -18.862 -10.118 -10.100 -10.098 -10.091 -10.077 -10.069
-10.067 -10.061 -10.061 -10.059 -10.056 -10.055 -10.043 -10.037
-10.035 -10.035 -10.025 -10.022 -10.020 -10.019  -1.018  -1.014
 -1.000  -0.998  -0.974  -0.969  -0.945  -0.937  -0.930  -0.925
 -0.765  -0.763  -0.727  -0.724  -0.711  -0.707  -0.699  -0.658
 -0.655  -0.617  -0.598  -0.585  -0.549  -0.546  -0.540  -0.537
 -0.512  -0.510  -0.485  -0.472  -0.465  -0.457  -0.452  -0.450
 -0.435  -0.433  -0.426  -0.411  -0.410  -0.408  -0.404  -0.397
 -0.392  -0.384  -0.373  -0.369  -0.361  -0.359  -0.354  -0.348
 -0.345  -0.343  -0.339  -0.335  -0.331  -0.329  -0.323  -0.315
 -0.309  -0.307  -0.305  -0.304  -0.295  -0.291  -0.280  -0.275
 -0.272  -0.253  -0.249  -0.245  -0.240  -0.238  -0.233  -0.177
 -0.173  -0.169  -0.165  -0.160  -0.155  -0.149  -0.146  -0.143
 -0.142

          Ground-State Mulliken Net Atomic Charges

     Atom                 Charge (a.u.)
  ----------------------------------------
      1 O                    -0.216713
      2 C                     0.214942
      3 C                    -0.082729
      4 C                    -0.078707
      5 C                     0.227225
      6 O                    -0.192846
      7 C                    -0.050046
      8 C                    -0.058004
      9 O                    -0.189965
     10 C                     0.220378
     11 C                    -0.078253
     12 C                    -0.079325
     13 C                     0.214214
     14 O                    -0.209793
     15 O                    -0.176391
     16 O                    -0.161749
     17 O                    -0.208922
     18 C                    -0.126628
     19 C                     0.024289
     20 C                    -0.143885
     21 C                    -0.143821
     22 C                     0.025832
     23 O                    -0.186426
     24 H                     0.080797
     25 H                     0.085036
     26 H                     0.091271
     27 H                     0.078253
     28 H                     0.072254
     29 H                     0.078290
     30 H                     0.073493
     31 H                     0.083144
     32 O                    -0.181942
     33 C                    -0.128451
     34 C                     0.024657
     35 C                    -0.143507
     36 C                    -0.143623
     37 C                     0.023080
     38 O                    -0.190027
     39 H                     0.084467
     40 H                     0.088725
     41 H                     0.091460
     42 H                     0.091469
     43 H                     0.079103
     44 H                     0.074315
     45 H                     0.078442
     46 H                     0.074454
     47 H                     0.078909
     48 H                     0.086904
     49 H                     0.086863
     50 H                     0.096925
     51 H                     0.091959
     52 H                     0.091546
     53 H                     0.095471
     54 H                     0.088763
     55 H                     0.091906
     56 H                     0.082914
  ----------------------------------------
  Sum of atomic charges =     0.000000

                    Cartesian Multipole Moments
 -----------------------------------------------------------------
    Charge (ESU x 10^10)
                 0.0000
    Dipole Moment (Debye)
         X      -1.0061      Y      -2.5665      Z      -2.3725
       Tot       3.6370
    Quadrupole Moments (Debye-Ang)
        XX    -142.2711     XY      -2.3176     YY    -151.5538
        XZ      -2.7779     YZ       6.4304     ZZ    -169.7110

 Total job time:  53.21s(wall), 2530.96s(cpu)
        *  Thank you very much for using Q-Chem.  Have a nice day.  *
