 Q-Chem 5.0, Q-Chem, Inc., Pleasanton, CA (2017)
 Q-Chem 5.0.1 for Intel X86 EM64T Linux

User input:
--------------------------------------------------------------
$molecule
0  1
O -5.0702872814 0.0548850401 2.0432626786
C -4.940116193 0.4778349957 0.8755690693
C -4.7026617261 -0.371165928 -0.4258572945
C -3.3967393114 0.0293686333 -1.2263660298
C -2.4907767279 1.0643850765 -0.4696704618
O -1.7733443281 1.9276089139 -1.3940563727
C -0.3253909929 1.6247259965 -1.4137182305
C 0.3598352229 1.3602210723 -0.0196186773
O 1.8053156526 1.2908134655 -0.314080067
C 2.5115080731 0.8750773155 0.9093626898
C 2.877553405 -0.6608823427 0.8391965445
C 3.8189693751 -1.0163980421 -0.3856869103
C 4.0870075902 0.225328998 -1.295822613
O 4.0089637903 0.3035201158 -2.539427683
O -5.0960241153 1.848098781 0.4839141105
O 4.4424010551 1.316824463 -0.4327169163
O 2.6811668528 1.6267169007 1.8879269926
C 4.514988013 2.5813131485 -1.1990688149
C 3.7910652516 -1.0855896627 2.0593819533
C 3.849856934 -2.6623182243 2.1233490256
C 4.8192357992 -2.9800421614 0.9240086117
C 5.1172877351 -1.5271064508 0.3806760778
O 5.1494700971 -0.7001826131 1.6059212024
H 1.9330048067 -1.2344667651 0.7991000533
H 3.3874037801 -1.8123690278 -1.017309757
H 3.541460062 -0.5702013659 3.0071598629
H 4.2723853754 -2.9958107792 3.084361472
H 2.854672704 -3.1179144107 1.9974240112
H 5.7495336624 -3.4557671524 1.2731534433
H 4.3582146318 -3.6252876611 0.1591650923
H 6.0612485812 -1.4195406676 -0.188166085
O -2.397473487 1.1591799292 0.7732377969
C -5.2538760169 2.6995305779 1.6839462275
C -4.4101545185 -1.8923129017 -0.0916780978
C -4.6668979806 -2.7418309899 -1.3965440177
C -3.4270755001 -2.324993355 -2.2726600723
C -2.64876081 -1.3774101224 -1.2758195212
O -2.9351999513 -1.9438031789 0.059731287
H -5.5941160841 -0.2648253643 -1.0707030798
H -3.6167439327 0.4155995317 -2.2369011065
H -4.3411380508 2.6747554211 2.3140122974
H -4.9044729548 -2.2526113415 0.8314950162
H -4.6516855327 -3.8186776644 -1.1644047654
H -5.6290082606 -2.4948002485 -1.8726424774
H -2.8075562852 -3.1954698439 -2.5412409572
H -3.7171320149 -1.7988260808 -3.1959921368
H -1.5563967517 -1.3144037096 -1.4464804218
H -6.1189928013 2.3824819267 2.3013895624
H -5.4188617836 3.7272675834 1.3116212371
H 4.8963724934 3.3443703194 -0.4962293219
H 3.5076746043 2.8754442522 -1.5589566904
H 5.1979791378 2.4907570249 -2.0674982663
H 0.1150644131 2.1802495073 0.6932322995
H -0.0155432772 0.406341151 0.4149484862
H 0.1552846169 2.5076824892 -1.8843108976
H -0.1306917915 0.7440160193 -2.0691368232
$end

$rem
JOBTYPE                   OPT
METHOD                    B3LYP
DFT_D                     d3_op
BASIS                     STO-3G
GEOM_OPT_MAX_CYCLES       100
GEOM_OPT_TOL_GRADIENT     300
GEOM_OPT_TOL_DISPLACEMENT 1200
GEOM_OPT_TOL_ENERGY       100
SYMMETRY                  False
THRESH                    12
SCF_CONVERGENCE           8
MAX_SUB_FILE_NUM          128
MEM_STATIC                400
MEM_TOTAL                 4000
$end
--------------------------------------------------------------

   16   -1510.2495624189      5.29E-09 Convergence criterion met
 Total energy in the final basis set = -1510.24956242
   14   -1510.2516933133      9.05E-09 Convergence criterion met
 Total energy in the final basis set = -1510.25169331
   15   -1510.2548254400      2.46E-09 Convergence criterion met
 Total energy in the final basis set = -1510.25482544
   15   -1510.2585437766      2.95E-09 Convergence criterion met
 Total energy in the final basis set = -1510.25854378
   14   -1510.2624712289      9.38E-09 Convergence criterion met
 Total energy in the final basis set = -1510.26247123
   14   -1510.2662204923      4.38E-09 Convergence criterion met
 Total energy in the final basis set = -1510.26622049
   14   -1510.2694976284      2.25E-09 Convergence criterion met
 Total energy in the final basis set = -1510.26949763
   14   -1510.2730860637      2.95E-09 Convergence criterion met
   11   -1510.3015000560      6.05E-09 Convergence criterion met
 Total energy in the final basis set = -1510.30150006
   12   -1510.3015337402      5.01E-09 Convergence criterion met
 Total energy in the final basis set = -1510.30153374
   11   -1510.3015463121      8.30E-09 Convergence criterion met
 Total energy in the final basis set = -1510.30154631
   11   -1510.3015531665      7.38E-09 Convergence criterion met
 Total energy in the final basis set = -1510.30155317
   11   -1510.3015582806      2.49E-09 Convergence criterion met
 Total energy in the final basis set = -1510.30155828
    9   -1510.3015572183      5.15E-09 Convergence criterion met
 Total energy in the final basis set = -1510.30155722

             Standard Nuclear Orientation (Angstroms)
    I     Atom           X                Y                Z
 ----------------------------------------------------------------
    1      O      -4.1705923939     0.2144011280     1.5883753282
    2      C      -3.2762101106     0.3676885693     0.7316343722
    3      C      -3.4633218592     0.6596388870    -0.8020246131
    4      C      -2.8118005192    -0.4201474375    -1.7661148196
    5      C      -2.1556815100    -1.6148230786    -1.0013358228
    6      O      -0.8601894894    -1.8764499950    -1.5721024642
    7      C      -0.2108534514    -3.0092595314    -0.8686115289
    8      C       0.3462990635    -2.6218064283     0.5485625216
    9      O       1.7097976297    -2.0584640319     0.3980296364
   10      C       2.0197520845    -1.1630860718     1.4755679204
   11      C       3.5309837283    -0.7470364942     1.3489320386
   12      C       3.8951013164    -0.0192817922    -0.0118475152
   13      C       2.6493923551     0.1882815646    -0.9355461718
   14      O       2.5583471322    -0.0370682549    -2.1614139748
   15      O      -1.8729813419     0.3413136680     1.0189118527
   16      O       1.5934738761     0.6953462980    -0.1172998347
   17      O       1.2375071147    -0.8642702468     2.4057498051
   18      C       0.3319175608     0.7925573617    -0.8865612747
   19      C       3.9031419054     0.3686132924     2.4090937007
   20      C       5.4746115954     0.4159865233     2.5431514612
   21      C       5.8713229985     1.1119741092     1.1881772769
   22      C       4.4492576597     1.3658995989     0.5452528680
   23      O       3.5786475876     1.6340632331     1.7104647658
   24      H       4.1438175274    -1.6578257325     1.4821373749
   25      H       4.6638834576    -0.5692940124    -0.5816000587
   26      H       3.3334939129     0.2928606778     3.3556669416
   27      H       5.7688853212     1.0266890879     3.4114924947
   28      H       5.9141577263    -0.5884248200     2.6523508218
   29      H       6.3915200323     2.0676336871     1.3605170334
   30      H       6.5053838943     0.4741084908     0.5516587650
   31      H       4.4009713936     2.2032191199    -0.1778965831
   32      O      -2.6489268407    -2.2780436102    -0.0637783600
   33      C      -1.6201052776     0.0660200579     2.4532315537
   34      C      -4.9894983764     0.5634718868    -1.2175861222
   35      C      -5.1724403580     1.2883463181    -2.6073435458
   36      C      -4.5080170454     0.2447257334    -3.5811937102
   37      C      -4.1001531692    -0.9003963946    -2.5709937664
   38      O      -5.1679854615    -0.8698466350    -1.5493187226
   39      H      -3.0458711620     1.6612176220    -1.0133467705
   40      H      -2.0588257785     0.0291674703    -2.4354732158
   41      H      -2.2697613895    -0.7552575746     2.8146929836
   42      H      -5.6911894964     0.8631030731    -0.4150258662
   43      H      -6.2420346537     1.4260329197    -2.8322613830
   44      H      -4.6760376386     2.2715134449    -2.6317725232
   45      H      -5.2289792554    -0.1352468028    -4.3225542285
   46      H      -3.6355281214     0.6549739689    -4.1144275530
   47      H      -4.0142999744    -1.9115183685    -3.0144873592
   48      H      -1.8144706806     0.9690703238     3.0665967817
   49      H      -0.5479484437    -0.2264498002     2.5259616953
   50      H      -0.4818520718     0.8795690386    -0.1332444578
   51      H       0.1577093610    -0.1314673932    -1.4777859857
   52      H       0.3425337863     1.6722737815    -1.5606778645
   53      H      -0.3302668877    -1.8971319732     1.0443194221
   54      H       0.3950552466    -3.5365842252     1.1799789995
   55      H       0.6241136220    -3.3286716040    -1.5246936287
   56      H      -0.9317408073    -3.8460616556    -0.7480436233
 ----------------------------------------------------------------

    9   -1510.3015573655      6.19E-09 Convergence criterion met
 Total energy in the final basis set = -1510.30155737
 Final energy is   -1510.30155736553
 **  OPTIMIZATION CONVERGED  **

                    Orbital Energies (a.u.)
 --------------------------------------------------------------

 Alpha MOs
 -- Occupied --
-18.945 -18.936 -18.935 -18.925 -18.890 -18.887 -18.883 -18.881
-18.879 -18.868 -10.109 -10.107 -10.101 -10.092 -10.082 -10.076
-10.064 -10.060 -10.059 -10.057 -10.046 -10.042 -10.040 -10.038
-10.035 -10.031 -10.023 -10.021 -10.020 -10.019  -1.022  -1.016
 -1.010  -1.000  -0.973  -0.969  -0.947  -0.940  -0.937  -0.928
 -0.767  -0.763  -0.731  -0.724  -0.715  -0.706  -0.700  -0.656
 -0.645  -0.621  -0.599  -0.584  -0.549  -0.545  -0.539  -0.537
 -0.513  -0.511  -0.487  -0.476  -0.466  -0.462  -0.455  -0.441
 -0.436  -0.431  -0.429  -0.423  -0.411  -0.406  -0.405  -0.400
 -0.395  -0.383  -0.371  -0.368  -0.363  -0.356  -0.355  -0.354
 -0.346  -0.337  -0.336  -0.333  -0.331  -0.327  -0.323  -0.313
 -0.309  -0.306  -0.305  -0.300  -0.297  -0.290  -0.287  -0.275
 -0.273  -0.262  -0.253  -0.249  -0.237  -0.236  -0.233  -0.190
 -0.178  -0.178  -0.166  -0.162  -0.161  -0.153  -0.146  -0.145
 -0.143

          Ground-State Mulliken Net Atomic Charges

     Atom                 Charge (a.u.)
  ----------------------------------------
      1 O                    -0.204335
      2 C                     0.216159
      3 C                    -0.079405
      4 C                    -0.079608
      5 C                     0.211239
      6 O                    -0.168654
      7 C                    -0.048533
      8 C                    -0.052882
      9 O                    -0.176979
     10 C                     0.225987
     11 C                    -0.077319
     12 C                    -0.079520
     13 C                     0.210893
     14 O                    -0.214537
     15 O                    -0.179353
     16 O                    -0.171581
     17 O                    -0.219200
     18 C                    -0.156489
     19 C                     0.024811
     20 C                    -0.143941
     21 C                    -0.143968
     22 C                     0.026118
     23 O                    -0.185622
     24 H                     0.083533
     25 H                     0.084163
     26 H                     0.089775
     27 H                     0.078088
     28 H                     0.072678
     29 H                     0.077918
     30 H                     0.073629
     31 H                     0.082962
     32 O                    -0.210252
     33 C                    -0.144188
     34 C                     0.024865
     35 C                    -0.143887
     36 C                    -0.143786
     37 C                     0.026323
     38 O                    -0.185960
     39 H                     0.085274
     40 H                     0.088571
     41 H                     0.090318
     42 H                     0.091877
     43 H                     0.079069
     44 H                     0.073750
     45 H                     0.078927
     46 H                     0.074560
     47 H                     0.083010
     48 H                     0.082753
     49 H                     0.115033
     50 H                     0.105502
     51 H                     0.095883
     52 H                     0.072674
     53 H                     0.103974
     54 H                     0.085741
     55 H                     0.099144
     56 H                     0.094797
  ----------------------------------------
  Sum of atomic charges =     0.000000

                    Cartesian Multipole Moments
 -----------------------------------------------------------------
    Charge (ESU x 10^10)
                 0.0000
    Dipole Moment (Debye)
         X       2.2336      Y      -0.3123      Z      -1.2039
       Tot       2.5565
    Quadrupole Moments (Debye-Ang)
        XX    -158.7138     XY     -10.3030     YY    -154.2627
        XZ      14.2562     YZ      -3.2885     ZZ    -160.5713

 Total job time:  175.52s(wall), 8373.21s(cpu)
        *  Thank you very much for using Q-Chem.  Have a nice day.  *
