 Q-Chem 5.0, Q-Chem, Inc., Pleasanton, CA (2017)
 Q-Chem 5.0.1 for Intel X86 EM64T Linux

User input:
--------------------------------------------------------------
$molecule
0  1
O -3.94934 -3.66094 2.70899
C -3.26408 -4.56952 2.26188
C -3.36658 -6.02376 2.66595
C -2.09184 -6.69551 3.20226
C -0.90286 -5.79161 3.44179
O 0.2559 -6.48577 3.23966
C 0.9755 -6.74488 4.44974
C 0.97084 -5.50621 5.33956
O 1.84939 -5.70406 6.45843
C 1.81781 -4.73208 7.40363
C 0.99876 -5.11428 8.61347
C 1.49042 -6.36307 9.35984
C 2.89278 -6.82649 9.02024
O 3.21476 -7.9756 8.75483
O -2.41723 -4.30113 1.23218
O 3.87559 -5.88621 9.08027
O 2.39174 -3.66254 7.26318
C 5.20588 -6.12819 8.80963
C 0.9996 -4.07753 9.7556
C -0.24497 -4.26848 10.62246
C 0.09219 -5.57149 11.31991
C 1.51375 -5.80401 10.79579
O 2.02523 -4.50415 10.61663
H -0.04551 -5.24486 8.25014
H 0.80894 -7.23635 9.25549
H 1.05982 -3.02595 9.40044
H -0.24412 -3.45115 11.37904
H -1.21278 -4.25914 10.07639
H 0.10438 -5.38867 12.4174
H -0.57795 -6.42597 11.08252
H 2.08402 -6.46 11.49047
O -0.92513 -4.5699 3.49541
C -2.22022 -3.04671 0.69396
C -4.3203 -6.23194 3.8586
C -4.7973 -7.68428 3.90713
C -3.54731 -8.37315 4.4081
C -2.6141 -7.17192 4.57302
O -3.47634 -6.13657 4.97735
H -3.75751 -6.55826 1.77138
H -1.77176 -7.5581 2.57346
H -1.83018 -2.35469 1.47075
H -5.19871 -5.55048 3.84541
H -5.58342 -7.76641 4.69137
H -5.19565 -8.06304 2.94125
H -3.76374 -8.80764 5.40988
H -3.13305 -9.15824 3.73936
H -1.79932 -7.42497 5.28425
H -3.17387 -2.65183 0.28303
H -1.47831 -3.11606 -0.12772
H 5.77894 -5.18666 8.93408
H 5.32383 -6.48307 7.76342
H 5.60802 -6.88824 9.51298
H 1.33344 -4.62511 4.76387
H -0.05483 -5.31487 5.72934
H 2.0178 -7.01303 4.17634
H 0.53007 -7.60237 4.99764
$end

$opt
CONSTRAINT
tors           1           2           3           4    -123.211
tors           3           4           5           6    -149.101
tors           4           5           6           7    -109.397
tors           5           6           7           8     -42.405
tors           6           7           8           9    -171.781
tors           7           8           9          10    -172.890
tors           8           9          10          11    +101.072
tors           9          10          11          12     +60.143
tors          11          12          13          14    -131.972
ENDCONSTRAINT
$end

$rem
JOBTYPE                   OPT
METHOD                    B3LYP
DFT_D                     d3_op
BASIS                     STO-3G
GEOM_OPT_MAX_CYCLES       100
GEOM_OPT_TOL_GRADIENT     300
GEOM_OPT_TOL_DISPLACEMENT 1200
GEOM_OPT_TOL_ENERGY       100
SYMMETRY                  False
THRESH                    12
SCF_CONVERGENCE           8
MAX_SUB_FILE_NUM          128
MEM_STATIC                400
MEM_TOTAL                 4000
$end
--------------------------------------------------------------

   15   -1510.1141299029      5.52E-09 Convergence criterion met
 Total energy in the final basis set = -1510.11412990
   14   -1510.1858876709      5.90E-09 Convergence criterion met
 Total energy in the final basis set = -1510.18588767
   14   -1510.2236474160      8.17E-09 Convergence criterion met
 Total energy in the final basis set = -1510.22364742
   14   -1510.2403916105      6.17E-09 Convergence criterion met
 Total energy in the final basis set = -1510.24039161
   13   -1510.2455846117      8.63E-09 Convergence criterion met
 Total energy in the final basis set = -1510.24558461
   13   -1510.2475040231      4.05E-09 Convergence criterion met
 Total energy in the final basis set = -1510.24750402
   13   -1510.2484283965      3.95E-09 Convergence criterion met
 Total energy in the final basis set = -1510.24842840
   12   -1510.2487728595      9.83E-09 Convergence criterion met
    9   -1510.2494448653      8.03E-09 Convergence criterion met
 Total energy in the final basis set = -1510.24944487
    9   -1510.2494462501      5.16E-09 Convergence criterion met
 Total energy in the final basis set = -1510.24944625
    9   -1510.2494473122      3.80E-09 Convergence criterion met
 Total energy in the final basis set = -1510.24944731
    9   -1510.2494488458      3.88E-09 Convergence criterion met
 Total energy in the final basis set = -1510.24944885
    9   -1510.2494506579      2.93E-09 Convergence criterion met
 Total energy in the final basis set = -1510.24945066
    9   -1510.2494517274      3.24E-09 Convergence criterion met
 Total energy in the final basis set = -1510.24945173

             Standard Nuclear Orientation (Angstroms)
    I     Atom           X                Y                Z
 ----------------------------------------------------------------
    1      O      -5.0702872814     0.0548850401     2.0432626786
    2      C      -4.9401161930     0.4778349957     0.8755690693
    3      C      -4.7026617261    -0.3711659280    -0.4258572945
    4      C      -3.3967393114     0.0293686333    -1.2263660298
    5      C      -2.4907767279     1.0643850765    -0.4696704618
    6      O      -1.7733443281     1.9276089139    -1.3940563727
    7      C      -0.3253909929     1.6247259965    -1.4137182305
    8      C       0.3598352229     1.3602210723    -0.0196186773
    9      O       1.8053156526     1.2908134655    -0.3140800670
   10      C       2.5115080731     0.8750773155     0.9093626898
   11      C       2.8775534050    -0.6608823427     0.8391965445
   12      C       3.8189693751    -1.0163980421    -0.3856869103
   13      C       4.0870075902     0.2253289980    -1.2958226130
   14      O       4.0089637903     0.3035201158    -2.5394276830
   15      O      -5.0960241153     1.8480987810     0.4839141105
   16      O       4.4424010551     1.3168244630    -0.4327169163
   17      O       2.6811668528     1.6267169007     1.8879269926
   18      C       4.5149880130     2.5813131485    -1.1990688149
   19      C       3.7910652516    -1.0855896627     2.0593819533
   20      C       3.8498569340    -2.6623182243     2.1233490256
   21      C       4.8192357992    -2.9800421614     0.9240086117
   22      C       5.1172877351    -1.5271064508     0.3806760778
   23      O       5.1494700971    -0.7001826131     1.6059212024
   24      H       1.9330048067    -1.2344667651     0.7991000533
   25      H       3.3874037801    -1.8123690278    -1.0173097570
   26      H       3.5414600620    -0.5702013659     3.0071598629
   27      H       4.2723853754    -2.9958107792     3.0843614720
   28      H       2.8546727040    -3.1179144107     1.9974240112
   29      H       5.7495336624    -3.4557671524     1.2731534433
   30      H       4.3582146318    -3.6252876611     0.1591650923
   31      H       6.0612485812    -1.4195406676    -0.1881660850
   32      O      -2.3974734870     1.1591799292     0.7732377969
   33      C      -5.2538760169     2.6995305779     1.6839462275
   34      C      -4.4101545185    -1.8923129017    -0.0916780978
   35      C      -4.6668979806    -2.7418309899    -1.3965440177
   36      C      -3.4270755001    -2.3249933550    -2.2726600723
   37      C      -2.6487608100    -1.3774101224    -1.2758195212
   38      O      -2.9351999513    -1.9438031789     0.0597312870
   39      H      -5.5941160841    -0.2648253643    -1.0707030798
   40      H      -3.6167439327     0.4155995317    -2.2369011065
   41      H      -4.3411380508     2.6747554211     2.3140122974
   42      H      -4.9044729548    -2.2526113415     0.8314950162
   43      H      -4.6516855327    -3.8186776644    -1.1644047654
   44      H      -5.6290082606    -2.4948002485    -1.8726424774
   45      H      -2.8075562852    -3.1954698439    -2.5412409572
   46      H      -3.7171320149    -1.7988260808    -3.1959921368
   47      H      -1.5563967517    -1.3144037096    -1.4464804218
   48      H      -6.1189928013     2.3824819267     2.3013895624
   49      H      -5.4188617836     3.7272675834     1.3116212371
   50      H       4.8963724934     3.3443703194    -0.4962293219
   51      H       3.5076746043     2.8754442522    -1.5589566904
   52      H       5.1979791378     2.4907570249    -2.0674982663
   53      H       0.1150644131     2.1802495073     0.6932322995
   54      H      -0.0155432772     0.4063411510     0.4149484862
   55      H       0.1552846169     2.5076824892    -1.8843108976
   56      H      -0.1306917915     0.7440160193    -2.0691368232
 ----------------------------------------------------------------

    9   -1510.2494538446      2.96E-09 Convergence criterion met
 Total energy in the final basis set = -1510.24945384
 Final energy is   -1510.24945384460
 **  OPTIMIZATION CONVERGED  **

                    Orbital Energies (a.u.)
 --------------------------------------------------------------

 Alpha MOs
 -- Occupied --
-18.940 -18.928 -18.913 -18.905 -18.896 -18.895 -18.894 -18.888
-18.880 -18.872 -10.113 -10.106 -10.102 -10.097 -10.076 -10.069
-10.069 -10.063 -10.063 -10.062 -10.059 -10.058 -10.042 -10.039
-10.038 -10.037 -10.027 -10.024 -10.021 -10.020  -1.016  -1.015
 -1.004  -0.999  -0.976  -0.970  -0.944  -0.940  -0.933  -0.932
 -0.767  -0.764  -0.728  -0.725  -0.712  -0.706  -0.698  -0.659
 -0.659  -0.612  -0.600  -0.588  -0.550  -0.549  -0.542  -0.538
 -0.515  -0.512  -0.482  -0.475  -0.466  -0.459  -0.455  -0.447
 -0.436  -0.433  -0.428  -0.416  -0.413  -0.410  -0.409  -0.397
 -0.394  -0.382  -0.373  -0.368  -0.366  -0.361  -0.355  -0.353
 -0.349  -0.342  -0.341  -0.337  -0.332  -0.331  -0.324  -0.316
 -0.312  -0.309  -0.306  -0.303  -0.299  -0.292  -0.287  -0.278
 -0.277  -0.258  -0.251  -0.247  -0.240  -0.238  -0.235  -0.179
 -0.173  -0.168  -0.165  -0.161  -0.156  -0.152  -0.149  -0.148
 -0.144

          Ground-State Mulliken Net Atomic Charges

     Atom                 Charge (a.u.)
  ----------------------------------------
      1 O                    -0.211464
      2 C                     0.214434
      3 C                    -0.080548
      4 C                    -0.080435
      5 C                     0.222529
      6 O                    -0.190454
      7 C                    -0.045814
      8 C                    -0.052941
      9 O                    -0.207315
     10 C                     0.227749
     11 C                    -0.080093
     12 C                    -0.080419
     13 C                     0.215433
     14 O                    -0.209337
     15 O                    -0.175497
     16 O                    -0.163108
     17 O                    -0.185336
     18 C                    -0.127075
     19 C                     0.024072
     20 C                    -0.144457
     21 C                    -0.143288
     22 C                     0.026185
     23 O                    -0.185709
     24 H                     0.080552
     25 H                     0.083670
     26 H                     0.090363
     27 H                     0.078852
     28 H                     0.073627
     29 H                     0.078515
     30 H                     0.073538
     31 H                     0.083269
     32 O                    -0.184824
     33 C                    -0.128674
     34 C                     0.024310
     35 C                    -0.143358
     36 C                    -0.143697
     37 C                     0.023841
     38 O                    -0.189661
     39 H                     0.085100
     40 H                     0.088423
     41 H                     0.092480
     42 H                     0.092154
     43 H                     0.078948
     44 H                     0.074663
     45 H                     0.078516
     46 H                     0.075280
     47 H                     0.077554
     48 H                     0.088458
     49 H                     0.089310
     50 H                     0.094877
     51 H                     0.093863
     52 H                     0.091308
     53 H                     0.088277
     54 H                     0.074086
     55 H                     0.093208
     56 H                     0.076062
  ----------------------------------------
  Sum of atomic charges =    -0.000000

                    Cartesian Multipole Moments
 -----------------------------------------------------------------
    Charge (ESU x 10^10)
                -0.0000
    Dipole Moment (Debye)
         X      -1.3177      Y      -1.8143      Z      -2.4629
       Tot       3.3308
    Quadrupole Moments (Debye-Ang)
        XX    -156.2594     XY      -4.4018     YY    -152.7104
        XZ       4.6371     YZ       0.7363     ZZ    -167.4305

 Total job time:  66.60s(wall), 3171.87s(cpu)
        *  Thank you very much for using Q-Chem.  Have a nice day.  *
