 Q-Chem 5.0, Q-Chem, Inc., Pleasanton, CA (2017)
 Q-Chem 5.0.1 for Intel X86 EM64T Linux

User input:
--------------------------------------------------------------
$molecule
0  1
O -3.94934 -3.66094 2.70899
C -3.26408 -4.56952 2.26188
C -3.36658 -6.02376 2.66595
C -2.05485 -6.81962 2.76498
C -0.77355 -6.02841 2.62234
O 0.19741 -6.81349 2.06888
C 1.47792 -6.17535 2.02049
C 1.45248 -4.88371 2.83113
O 2.71198 -4.20429 2.70888
C 2.82112 -3.04797 3.40899
C 4.25447 -2.6582 3.68148
C 5.16793 -2.64633 2.44708
C 4.46503 -2.66961 1.10466
O 4.2781 -3.66476 0.41961
O -2.52209 -4.3212 1.14946
O 3.82258 -1.52559 0.74112
O 1.86137 -2.36303 3.73995
C 3.05195 -1.38846 -0.39443
C 4.48286 -1.2339 4.22507
C 5.80405 -1.18691 4.99241
C 6.80002 -1.31173 3.85485
C 5.85063 -1.28006 2.65135
O 4.78359 -0.46699 3.08456
H 4.62137 -3.39917 4.42761
H 5.87717 -3.50371 2.45205
H 3.65348 -0.86276 4.86503
H 5.88967 -0.16528 5.42768
H 5.91418 -1.93852 5.80348
H 7.45618 -0.41324 3.86344
H 7.41748 -2.23603 3.86257
H 6.38524 -0.9407 1.7368
O -0.78133 -5.13498 3.46816
C -2.35895 -3.07515 0.58148
C -3.93781 -6.22988 4.08265
C -4.52496 -7.63642 4.21011
C -3.25981 -8.46753 4.26517
C -2.1989 -7.36522 4.20516
O -2.79699 -6.29691 4.90141
H -4.04279 -6.48362 1.91071
H -2.02664 -7.66141 2.03489
H -1.88173 -2.38437 1.30919
H -4.70179 -5.47343 4.36484
H -5.03569 -7.70643 5.19708
H -5.2397 -7.90986 3.40426
H -3.21393 -8.97189 5.25628
H -3.14692 -9.21929 3.45447
H -1.2322 -7.73529 4.61276
H -3.34157 -2.66673 0.26238
H -1.70277 -3.16468 -0.3084
H 2.65432 -0.35401 -0.44101
H 2.19807 -2.09887 -0.36534
H 3.66815 -1.57666 -1.2995
H 0.76458 -4.14617 2.34165
H 1.35149 -5.11316 3.92234
H 1.74311 -5.9717 0.96099
H 2.24033 -6.8549 2.45705
$end

$opt
CONSTRAINT
tors           1           2           3           4    -142.409
tors           3           4           5           6    -149.651
tors           4           5           6           7    -174.297
tors           5           6           7           8     +10.128
tors           6           7           8           9    -176.305
tors           7           8           9          10    -178.832
tors           8           9          10          11    +158.103
tors           9          10          11          12     +51.076
tors          11          12          13          14     -97.869
ENDCONSTRAINT
$end

$rem
JOBTYPE                   OPT
METHOD                    B3LYP
DFT_D                     d3_op
BASIS                     STO-3G
GEOM_OPT_MAX_CYCLES       100
GEOM_OPT_TOL_GRADIENT     300
GEOM_OPT_TOL_DISPLACEMENT 1200
GEOM_OPT_TOL_ENERGY       100
SYMMETRY                  False
THRESH                    12
SCF_CONVERGENCE           8
MAX_SUB_FILE_NUM          128
MEM_STATIC                400
MEM_TOTAL                 4000
$end
--------------------------------------------------------------

   16   -1510.0983648180      2.60E-09 Convergence criterion met
 Total energy in the final basis set = -1510.09836482
   14   -1510.1738984985      9.26E-09 Convergence criterion met
 Total energy in the final basis set = -1510.17389850
   14   -1510.2239074854      6.81E-09 Convergence criterion met
 Total energy in the final basis set = -1510.22390749
   14   -1510.2496927425      6.14E-09 Convergence criterion met
 Total energy in the final basis set = -1510.24969274
   14   -1510.2616024941      4.23E-09 Convergence criterion met
 Total energy in the final basis set = -1510.26160249
   13   -1510.2662494572      4.68E-09 Convergence criterion met
 Total energy in the final basis set = -1510.26624946
    2   -1510.2662494572      4.28E-09 Convergence criterion met
 Total energy in the final basis set = -1510.26624946
   13   -1510.2679293025      2.52E-09 Convergence criterion met
   10   -1510.2705442784      8.71E-09 Convergence criterion met
 Total energy in the final basis set = -1510.27054428
   10   -1510.2705552711      5.98E-09 Convergence criterion met
 Total energy in the final basis set = -1510.27055527
    9   -1510.2705594031      9.43E-09 Convergence criterion met
 Total energy in the final basis set = -1510.27055940
    9   -1510.2705648503      4.46E-09 Convergence criterion met
 Total energy in the final basis set = -1510.27056485
    9   -1510.2705664282      3.60E-09 Convergence criterion met
 Total energy in the final basis set = -1510.27056643
    9   -1510.2705638797      3.36E-09 Convergence criterion met
 Total energy in the final basis set = -1510.27056388

             Standard Nuclear Orientation (Angstroms)
    I     Atom           X                Y                Z
 ----------------------------------------------------------------
    1      O      -4.4859417742     2.0305785963     2.1589720615
    2      C      -4.2113441298     1.7320009203     0.9777816769
    3      C      -4.9844824918     0.7271802594     0.0518370376
    4      C      -4.0757264038    -0.1467354802    -0.9012223850
    5      C      -2.5643798093    -0.1340043284    -0.4703198561
    6      O      -1.7998189274    -0.2894284346    -1.6648833201
    7      C      -0.3264783961    -0.4411221207    -1.5261770905
    8      C       0.3202734239    -0.6659380570    -0.1114171202
    9      O       1.7774782856    -0.6709254212    -0.4074960688
   10      C       2.5415070590    -0.8947141302     0.7822227043
   11      C       3.9596420236    -1.4438195590     0.3793196851
   12      C       4.7273650415    -0.5892187158    -0.7209680529
   13      C       3.8375044501     0.4784665923    -1.4468658284
   14      O       3.2761031843     0.3621465300    -2.5579185426
   15      O      -3.2214377866     2.4044888490     0.1859524100
   16      O       3.6934456394     1.6168219409    -0.5888757999
   17      O       2.0948434707    -0.7618821743     1.9409717067
   18      C       2.7387562859     2.5772995518    -1.1845072428
   19      C       4.9422175677    -1.2858541476     1.6103884755
   20      C       6.2730742381    -2.0869888578     1.3265675676
   21      C       7.0044363139    -1.1226118452     0.3200982813
   22      C       5.9173674993     0.0094778244     0.1469787635
   23      O       5.3487880309     0.1361275631     1.5078624137
   24      H       3.8393092976    -2.4940481725     0.0541056404
   25      H       5.1162297221    -1.2617542086    -1.5066042479
   26      H       4.4583107348    -1.4787806231     2.5876964693
   27      H       6.8512264251    -2.2200397561     2.2546562108
   28      H       6.0710061571    -3.0793687026     0.8925214287
   29      H       7.9226830252    -0.7034123322     0.7617435868
   30      H       7.2615881676    -1.6108797693    -0.6333692461
   31      H       6.3003270171     0.9864386969    -0.2056332890
   32      O      -2.1347814297    -0.0683161718     0.7009485089
   33      C      -2.4572031303     3.3511977746     1.0278040861
   34      C      -5.7746420065    -0.3893022568     0.8554090179
   35      C      -6.9502049814    -0.8996684401    -0.0646407907
   36      C      -6.1415254891    -1.6854078578    -1.1633258827
   37      C      -4.6693264738    -1.5924125138    -0.5939943106
   38      O      -4.8495994590    -1.5476436120     0.8751095755
   39      H      -5.6871489852     1.3303163717    -0.5540333087
   40      H      -4.1635968125     0.1368082102    -1.9641752680
   41      H      -1.8854330091     2.8187853634     1.8154904370
   42      H      -6.0535836133    -0.0918914251     1.8852484263
   43      H      -7.6140478283    -1.5724141365     0.5016135978
   44      H      -7.5506304022    -0.0754183157    -0.4813287715
   45      H      -6.4640474929    -2.7363225012    -1.2331075705
   46      H      -6.2242416910    -1.2245619469    -2.1607504551
   47      H      -4.0027624120    -2.4295205641    -0.8795178269
   48      H      -3.1206367982     4.0950286818     1.5143596995
   49      H      -1.7552725802     3.8682864461     0.3479829848
   50      H       2.6707769665     3.4218129048    -0.4743994424
   51      H       1.7366323560     2.1189884560    -1.3139836714
   52      H       3.0859421437     2.9475988823    -2.1709326429
   53      H       0.0529820574     0.1455329475     0.5954755556
   54      H       0.0065242058    -1.6329770756     0.3357662205
   55      H       0.1367498950     0.4714429276    -1.9642282751
   56      H      -0.0491306524    -1.2957930578    -2.1802052053
 ----------------------------------------------------------------

    9   -1510.2705643808      2.10E-09 Convergence criterion met
 Total energy in the final basis set = -1510.27056438
 Final energy is   -1510.27056438077
 **  OPTIMIZATION CONVERGED  **

                    Orbital Energies (a.u.)
 --------------------------------------------------------------

 Alpha MOs
 -- Occupied --
-18.939 -18.931 -18.931 -18.929 -18.887 -18.885 -18.880 -18.876
-18.873 -18.869 -10.106 -10.101 -10.097 -10.096 -10.078 -10.073
-10.063 -10.061 -10.061 -10.058 -10.057 -10.056 -10.039 -10.038
-10.036 -10.035 -10.021 -10.019 -10.019 -10.018  -1.016  -1.013
 -1.005  -1.004  -0.970  -0.968  -0.943  -0.938  -0.933  -0.931
 -0.764  -0.762  -0.729  -0.722  -0.712  -0.704  -0.698  -0.660
 -0.659  -0.620  -0.597  -0.585  -0.546  -0.545  -0.538  -0.536
 -0.513  -0.510  -0.483  -0.471  -0.465  -0.457  -0.455  -0.447
 -0.435  -0.431  -0.429  -0.411  -0.410  -0.409  -0.408  -0.398
 -0.391  -0.380  -0.375  -0.367  -0.364  -0.361  -0.355  -0.348
 -0.344  -0.337  -0.336  -0.331  -0.329  -0.327  -0.324  -0.312
 -0.309  -0.305  -0.305  -0.297  -0.293  -0.290  -0.286  -0.279
 -0.273  -0.253  -0.252  -0.250  -0.244  -0.234  -0.232  -0.180
 -0.179  -0.173  -0.170  -0.157  -0.155  -0.149  -0.148  -0.143
 -0.141

          Ground-State Mulliken Net Atomic Charges

     Atom                 Charge (a.u.)
  ----------------------------------------
      1 O                    -0.211345
      2 C                     0.215550
      3 C                    -0.079612
      4 C                    -0.076668
      5 C                     0.218226
      6 O                    -0.171440
      7 C                    -0.048963
      8 C                    -0.049394
      9 O                    -0.181025
     10 C                     0.213153
     11 C                    -0.076784
     12 C                    -0.080382
     13 C                     0.211892
     14 O                    -0.215716
     15 O                    -0.174965
     16 O                    -0.168551
     17 O                    -0.204208
     18 C                    -0.126987
     19 C                     0.023761
     20 C                    -0.145033
     21 C                    -0.143224
     22 C                     0.025751
     23 O                    -0.187163
     24 H                     0.084738
     25 H                     0.082615
     26 H                     0.090721
     27 H                     0.078258
     28 H                     0.072581
     29 H                     0.077732
     30 H                     0.072914
     31 H                     0.084957
     32 O                    -0.213471
     33 C                    -0.128627
     34 C                     0.024378
     35 C                    -0.142709
     36 C                    -0.144646
     37 C                     0.024756
     38 O                    -0.188314
     39 H                     0.083911
     40 H                     0.087532
     41 H                     0.092425
     42 H                     0.091748
     43 H                     0.078518
     44 H                     0.073340
     45 H                     0.078114
     46 H                     0.073763
     47 H                     0.081212
     48 H                     0.089517
     49 H                     0.087664
     50 H                     0.090776
     51 H                     0.084465
     52 H                     0.087604
     53 H                     0.106912
     54 H                     0.088840
     55 H                     0.089111
     56 H                     0.091794
  ----------------------------------------
  Sum of atomic charges =    -0.000000

                    Cartesian Multipole Moments
 -----------------------------------------------------------------
    Charge (ESU x 10^10)
                 0.0000
    Dipole Moment (Debye)
         X       0.0783      Y      -0.4921      Z      -3.1078
       Tot       3.1475
    Quadrupole Moments (Debye-Ang)
        XX    -142.3217     XY      -5.9862     YY    -149.2308
        XZ       7.4273     YZ      -1.1892     ZZ    -173.3742

 Total job time:  66.67s(wall), 3169.92s(cpu)
        *  Thank you very much for using Q-Chem.  Have a nice day.  *
