 Q-Chem 5.0, Q-Chem, Inc., Pleasanton, CA (2017)
 Q-Chem 5.0.1 for Intel X86 EM64T Linux

User input:
--------------------------------------------------------------
$molecule
0  1
O -4.4859417742 2.0305785963 2.1589720615
C -4.2113441298 1.7320009203 0.9777816769
C -4.9844824918 0.7271802594 0.0518370376
C -4.0757264038 -0.1467354802 -0.901222385
C -2.5643798093 -0.1340043284 -0.4703198561
O -1.7998189274 -0.2894284346 -1.6648833201
C -0.3264783961 -0.4411221207 -1.5261770905
C 0.3202734239 -0.665938057 -0.1114171202
O 1.7774782856 -0.6709254212 -0.4074960688
C 2.541507059 -0.8947141302 0.7822227043
C 3.9596420236 -1.443819559 0.3793196851
C 4.7273650415 -0.5892187158 -0.7209680529
C 3.8375044501 0.4784665923 -1.4468658284
O 3.2761031843 0.36214653 -2.5579185426
O -3.2214377866 2.404488849 0.18595241
O 3.6934456394 1.6168219409 -0.5888757999
O 2.0948434707 -0.7618821743 1.9409717067
C 2.7387562859 2.5772995518 -1.1845072428
C 4.9422175677 -1.2858541476 1.6103884755
C 6.2730742381 -2.0869888578 1.3265675676
C 7.0044363139 -1.1226118452 0.3200982813
C 5.9173674993 0.0094778244 0.1469787635
O 5.3487880309 0.1361275631 1.5078624137
H 3.8393092976 -2.4940481725 0.0541056404
H 5.1162297221 -1.2617542086 -1.5066042479
H 4.4583107348 -1.4787806231 2.5876964693
H 6.8512264251 -2.2200397561 2.2546562108
H 6.0710061571 -3.0793687026 0.8925214287
H 7.9226830252 -0.7034123322 0.7617435868
H 7.2615881676 -1.6108797693 -0.6333692461
H 6.3003270171 0.9864386969 -0.205633289
O -2.1347814297 -0.0683161718 0.7009485089
C -2.4572031303 3.3511977746 1.0278040861
C -5.7746420065 -0.3893022568 0.8554090179
C -6.9502049814 -0.8996684401 -0.0646407907
C -6.1415254891 -1.6854078578 -1.1633258827
C -4.6693264738 -1.5924125138 -0.5939943106
O -4.849599459 -1.547643612 0.8751095755
H -5.6871489852 1.3303163717 -0.5540333087
H -4.1635968125 0.1368082102 -1.964175268
H -1.8854330091 2.8187853634 1.815490437
H -6.0535836133 -0.0918914251 1.8852484263
H -7.6140478283 -1.5724141365 0.5016135978
H -7.5506304022 -0.0754183157 -0.4813287715
H -6.4640474929 -2.7363225012 -1.2331075705
H -6.224241691 -1.2245619469 -2.1607504551
H -4.002762412 -2.4295205641 -0.8795178269
H -3.1206367982 4.0950286818 1.5143596995
H -1.7552725802 3.8682864461 0.3479829848
H 2.6707769665 3.4218129048 -0.4743994424
H 1.736632356 2.118988456 -1.3139836714
H 3.0859421437 2.9475988823 -2.1709326429
H 0.0529820574 0.1455329475 0.5954755556
H 0.0065242058 -1.6329770756 0.3357662205
H 0.136749895 0.4714429276 -1.9642282751
H -0.0491306524 -1.2957930578 -2.1802052053
$end

$rem
JOBTYPE                   OPT
METHOD                    B3LYP
DFT_D                     d3_op
BASIS                     STO-3G
GEOM_OPT_MAX_CYCLES       100
GEOM_OPT_TOL_GRADIENT     300
GEOM_OPT_TOL_DISPLACEMENT 1200
GEOM_OPT_TOL_ENERGY       100
SYMMETRY                  False
THRESH                    12
SCF_CONVERGENCE           8
MAX_SUB_FILE_NUM          128
MEM_STATIC                400
MEM_TOTAL                 4000
$end
--------------------------------------------------------------

   16   -1510.2705614494      4.51E-09 Convergence criterion met
 Total energy in the final basis set = -1510.27056145
   14   -1510.2737888513      3.24E-09 Convergence criterion met
 Total energy in the final basis set = -1510.27378885
   14   -1510.2760919759      3.16E-09 Convergence criterion met
 Total energy in the final basis set = -1510.27609198
   14   -1510.2779223615      9.30E-09 Convergence criterion met
 Total energy in the final basis set = -1510.27792236
   13   -1510.2797071012      7.53E-09 Convergence criterion met
 Total energy in the final basis set = -1510.27970710
   13   -1510.2816548293      8.18E-09 Convergence criterion met
 Total energy in the final basis set = -1510.28165483
   13   -1510.2836663827      9.14E-09 Convergence criterion met
 Total energy in the final basis set = -1510.28366638
   13   -1510.2857532828      4.71E-09 Convergence criterion met
   12   -1510.2968335991      6.15E-09 Convergence criterion met
 Total energy in the final basis set = -1510.29683360
   12   -1510.2970554847      8.91E-09 Convergence criterion met
 Total energy in the final basis set = -1510.29705548
   12   -1510.2971119574      5.66E-09 Convergence criterion met
 Total energy in the final basis set = -1510.29711196
   12   -1510.2971383360      3.09E-09 Convergence criterion met
 Total energy in the final basis set = -1510.29713834
   11   -1510.2971483185      6.69E-09 Convergence criterion met
 Total energy in the final basis set = -1510.29714832
    9   -1510.2971454051      9.44E-09 Convergence criterion met
 Total energy in the final basis set = -1510.29714541

             Standard Nuclear Orientation (Angstroms)
    I     Atom           X                Y                Z
 ----------------------------------------------------------------
    1      O      -2.1628205710     2.1235538235     1.0454602812
    2      C      -2.6873701888     1.9344528377    -0.0736483520
    3      C      -3.9280880338     1.0102386789    -0.3783081806
    4      C      -3.5785666088    -0.3699072094    -1.0740999448
    5      C      -2.0488634166    -0.5685547566    -1.3227631098
    6      O      -1.8397124702    -1.8092651545    -1.9981624156
    7      C      -0.3960838971    -1.9975339093    -2.2864902496
    8      C       0.4604116556    -2.3646581886    -1.0126080460
    9      O       1.6887448306    -1.5401780804    -1.1028365322
   10      C       2.6092526701    -1.8825556366    -0.0534432753
   11      C       3.8973436607    -1.0058792742    -0.2530903822
   12      C       3.6282274958     0.5566290600    -0.2520225212
   13      C       2.1462672988     0.9414269891     0.0803842735
   14      O       1.4520704375     1.8052126132    -0.5019518155
   15      O      -2.3281049824     2.6265823019    -1.2707930455
   16      O       1.7327965214     0.1667105779     1.2018155639
   17      O       2.4120257311    -2.7817185801     0.7892962841
   18      C       0.3270832457     0.4709276354     1.5639011784
   19      C       4.9036382106    -1.1505401483     0.9627560721
   20      C       6.3248047048    -0.6601911901     0.4831328669
   21      C       6.0956334315     0.8959778635     0.4114905764
   22      C       4.6031985672     1.0116001448     0.9205938223
   23      O       4.4770717846    -0.0875462883     1.9023589435
   24      H       4.3688306093    -1.3134919341    -1.2047859241
   25      H       3.8957601314     1.0226185761    -1.2161562185
   26      H       4.8707504149    -2.1406852774     1.4576552662
   27      H       7.0929129522    -0.9199632042     1.2289561007
   28      H       6.6119977438    -1.0955535289    -0.4871604374
   29      H       6.7766762915     1.4378711981     1.0866726184
   30      H       6.2165141373     1.2957877547    -0.6080138533
   31      H       4.3380203855     1.9809906141     1.3854381320
   32      O      -1.1168572643     0.2030449418    -0.9967457283
   33      C      -1.0924938888     3.4146521693    -1.0367109140
   34      C      -4.5910378452     0.5029397211     0.9701522933
   35      C      -6.0386782137    -0.0393559175     0.6500987930
   36      C      -5.7016121499    -1.4033280009    -0.0586208571
   37      C      -4.1240434671    -1.4011844709     0.0094100587
   38      O      -3.8250124516    -0.7266951111     1.2905368535
   39      H      -4.6409214752     1.5819305518    -0.9989556272
   40      H      -4.1049843576    -0.4917022375    -2.0382641996
   41      H      -0.2248964506     2.7545324654    -0.7986076224
   42      H      -4.5187460056     1.2251742592     1.8061309473
   43      H      -6.6051876861    -0.1979550034     1.5815634148
   44      H      -6.6067315589     0.6480279423     0.0031204151
   45      H      -6.1080977802    -2.2616349071     0.4995966418
   46      H      -6.0707416195    -1.4496021236    -1.0956632815
   47      H      -3.6466372913    -2.3995409456    -0.0341924168
   48      H      -1.2327024148     4.1427600867    -0.2123554922
   49      H      -0.9018207995     3.9596022535    -1.9791727948
   50      H       0.0424872565    -0.2744627226     2.3283426494
   51      H      -0.3351748661     0.3928684733     0.6734334766
   52      H       0.2325566071     1.4904094119     1.9880207179
   53      H      -0.1053813697    -2.1331614719    -0.0833729222
   54      H       0.7102487195    -3.4472596992    -0.9942368855
   55      H       0.0347854354    -1.0729143753    -2.7292031790
   56      H      -0.3580744495    -2.8137927495    -3.0342525531
 ----------------------------------------------------------------

    9   -1510.2971456071      8.39E-09 Convergence criterion met
 Total energy in the final basis set = -1510.29714561
 Final energy is   -1510.29714560707
 **  OPTIMIZATION CONVERGED  **

                    Orbital Energies (a.u.)
 --------------------------------------------------------------

 Alpha MOs
 -- Occupied --
-18.951 -18.929 -18.927 -18.913 -18.897 -18.889 -18.884 -18.873
-18.870 -18.854 -10.115 -10.099 -10.095 -10.085 -10.082 -10.076
-10.064 -10.057 -10.057 -10.054 -10.044 -10.035 -10.035 -10.033
-10.032 -10.031 -10.022 -10.020 -10.018 -10.017  -1.029  -1.011
 -1.000  -0.992  -0.971  -0.966  -0.952  -0.935  -0.928  -0.918
 -0.765  -0.760  -0.730  -0.721  -0.713  -0.703  -0.697  -0.645
 -0.642  -0.619  -0.594  -0.583  -0.546  -0.543  -0.537  -0.535
 -0.515  -0.506  -0.487  -0.472  -0.458  -0.454  -0.453  -0.445
 -0.433  -0.431  -0.424  -0.415  -0.406  -0.402  -0.401  -0.394
 -0.390  -0.381  -0.366  -0.361  -0.359  -0.356  -0.349  -0.345
 -0.341  -0.337  -0.332  -0.329  -0.327  -0.322  -0.321  -0.314
 -0.308  -0.306  -0.303  -0.299  -0.289  -0.289  -0.277  -0.274
 -0.271  -0.260  -0.253  -0.241  -0.236  -0.232  -0.230  -0.193
 -0.176  -0.168  -0.165  -0.158  -0.153  -0.146  -0.143  -0.140
 -0.136

          Ground-State Mulliken Net Atomic Charges

     Atom                 Charge (a.u.)
  ----------------------------------------
      1 O                    -0.222608
      2 C                     0.213089
      3 C                    -0.081853
      4 C                    -0.078373
      5 C                     0.218952
      6 O                    -0.168540
      7 C                    -0.049379
      8 C                    -0.048360
      9 O                    -0.177513
     10 C                     0.217401
     11 C                    -0.078200
     12 C                    -0.078525
     13 C                     0.218300
     14 O                    -0.214546
     15 O                    -0.176904
     16 O                    -0.167869
     17 O                    -0.211834
     18 C                    -0.141373
     19 C                     0.024825
     20 C                    -0.143740
     21 C                    -0.144228
     22 C                     0.025815
     23 O                    -0.185214
     24 H                     0.082337
     25 H                     0.083860
     26 H                     0.090019
     27 H                     0.077787
     28 H                     0.072199
     29 H                     0.077789
     30 H                     0.073181
     31 H                     0.082833
     32 O                    -0.204393
     33 C                    -0.142507
     34 C                     0.024727
     35 C                    -0.144132
     36 C                    -0.143481
     37 C                     0.024758
     38 O                    -0.189955
     39 H                     0.083884
     40 H                     0.088261
     41 H                     0.115379
     42 H                     0.089894
     43 H                     0.078462
     44 H                     0.073891
     45 H                     0.078632
     46 H                     0.073778
     47 H                     0.084427
     48 H                     0.079087
     49 H                     0.079611
     50 H                     0.087253
     51 H                     0.108775
     52 H                     0.089981
     53 H                     0.091698
     54 H                     0.088455
     55 H                     0.101985
     56 H                     0.092198
  ----------------------------------------
  Sum of atomic charges =    -0.000000

                    Cartesian Multipole Moments
 -----------------------------------------------------------------
    Charge (ESU x 10^10)
                 0.0000
    Dipole Moment (Debye)
         X      -0.6226      Y      -0.9824      Z      -3.2660
       Tot       3.4670
    Quadrupole Moments (Debye-Ang)
        XX    -135.7359     XY       3.4347     YY    -159.1140
        XZ      -3.2153     YZ       6.2296     ZZ    -163.7155

 Total job time:  175.95s(wall), 8390.14s(cpu)
        *  Thank you very much for using Q-Chem.  Have a nice day.  *
