 Q-Chem 5.0, Q-Chem, Inc., Pleasanton, CA (2017)
 Q-Chem 5.0.1 for Intel X86 EM64T Linux

User input:
--------------------------------------------------------------
$molecule
0  1
O -4.0070381223 1.4106741433 2.1246528613
C -4.222669353 1.4632649292 0.8961622343
C -4.9684158248 0.4056495082 0.0031096416
C -3.9984250972 -0.6707851536 -0.6452936457
C -2.4763935441 -0.3438476146 -0.4770591003
O -1.8446312806 -0.6786983799 -1.7152824312
C -0.3610746813 -0.565273608 -1.7278354345
C 0.4024994656 -0.9659806866 -0.4147921801
O 1.8228165083 -0.6608219893 -0.7094168607
C 2.6628426722 -1.0197491816 0.3979193108
C 4.1249506081 -1.2137619213 -0.1451282772
C 4.7031955395 0.0651410262 -0.8918938565
C 3.6297784408 1.1859358294 -1.1078031027
O 3.122867057 1.5525823435 -2.1898534866
O -3.7693561239 2.5208589246 0.0393443428
O 3.2443650232 1.6904439571 0.1773726281
O 2.2492988387 -1.2407071181 1.554475095
C 2.1166246632 2.637565866 0.0309012353
C 5.1382254195 -1.3384554054 1.0626626654
C 6.5315795225 -1.8369267062 0.5110625109
C 7.0848560292 -0.5223362922 -0.1557628428
C 5.8835472191 0.4721597751 0.0948870443
O 5.3856150902 0.0757495069 1.4306056424
H 4.1340635408 -2.1011664768 -0.8042567398
H 5.0932709235 -0.2100228214 -1.8876699149
H 4.7318682445 -1.8957612144 1.9290881427
H 7.1773824179 -2.1751537678 1.3367297634
H 6.4172787991 -2.6621719113 -0.2099233549
H 7.9920608762 -0.1625406547 0.355287773
H 7.3083524874 -0.6472731937 -1.2274204468
H 6.1464429023 1.5474883693 0.0812436697
O -1.9224039515 0.1721996319 0.5200899777
C -2.937799614 3.4692764862 0.8141468823
C -5.8617510438 -0.5295634406 0.9215629112
C -6.8097317008 -1.4023007305 0.0075725789
C -5.8018878563 -2.4789593378 -0.5422105208
C -4.4536990533 -1.9928633682 0.1215109454
O -4.8796268935 -1.5059207226 1.449819453
H -5.5522367318 0.9305305019 -0.7734932136
H -4.1898772914 -0.7707213782 -1.7281559022
H -2.0688776566 2.9561804322 1.2751085245
H -6.3607507751 -0.0010319961 1.7566553894
H -7.6084766764 -1.864212342 0.6090376103
H -7.2718780729 -0.8052926671 -0.7949044468
H -6.0596637453 -3.4907174397 -0.1901752952
H -5.7448595505 -2.4901474082 -1.6422721167
H -3.6677399773 -2.7665538101 0.2218676335
H -3.5201336025 3.9658054462 1.617188019
H -2.5838079045 4.2281182707 0.0920968483
H 1.8624258179 2.970231748 1.0540466664
H 1.2350716844 2.1450745601 -0.4286673266
H 2.3934825637 3.5151713554 -0.5883807797
H 0.0025551333 -0.3707727535 0.4341751921
H 0.2667137758 -2.0451391293 -0.1867899814
H -0.0820311899 0.4841784054 -1.9749779688
H -0.0332990245 -1.21045726 -2.5684818208
$end

$rem
JOBTYPE                   OPT
METHOD                    B3LYP
DFT_D                     d3_op
BASIS                     STO-3G
GEOM_OPT_MAX_CYCLES       100
GEOM_OPT_TOL_GRADIENT     300
GEOM_OPT_TOL_DISPLACEMENT 1200
GEOM_OPT_TOL_ENERGY       100
SYMMETRY                  False
THRESH                    12
SCF_CONVERGENCE           8
MAX_SUB_FILE_NUM          128
MEM_STATIC                400
MEM_TOTAL                 4000
$end
--------------------------------------------------------------

   16   -1510.2763007813      5.91E-09 Convergence criterion met
 Total energy in the final basis set = -1510.27630078
   14   -1510.2803033802      2.55E-09 Convergence criterion met
 Total energy in the final basis set = -1510.28030338
   14   -1510.2839148884      2.88E-09 Convergence criterion met
 Total energy in the final basis set = -1510.28391489
   14   -1510.2843762024      5.01E-09 Convergence criterion met
 Total energy in the final basis set = -1510.28437620
   13   -1510.2890215044      8.63E-09 Convergence criterion met
 Total energy in the final basis set = -1510.28902150
   14   -1510.2902888090      2.00E-09 Convergence criterion met
 Total energy in the final basis set = -1510.29028881
   13   -1510.2916631991      3.10E-09 Convergence criterion met
 Total energy in the final basis set = -1510.29166320
   13   -1510.2925460818      6.05E-09 Convergence criterion met
   13   -1510.2936391996      6.62E-09 Convergence criterion met
 Total energy in the final basis set = -1510.29363920
   13   -1510.2940444823      3.06E-09 Convergence criterion met
 Total energy in the final basis set = -1510.29404448
   12   -1510.2940148837      6.17E-09 Convergence criterion met
 Total energy in the final basis set = -1510.29401488
   12   -1510.2940498580      5.45E-09 Convergence criterion met
 Total energy in the final basis set = -1510.29404986
   11   -1510.2940528579      9.17E-09 Convergence criterion met
 Total energy in the final basis set = -1510.29405286
   10   -1510.2940582143      8.53E-09 Convergence criterion met
 Total energy in the final basis set = -1510.29405821

             Standard Nuclear Orientation (Angstroms)
    I     Atom           X                Y                Z
 ----------------------------------------------------------------
    1      O      -3.2400843914     2.1305826703     1.4896779925
    2      C      -3.5631413663     1.8672362999     0.3125168495
    3      C      -4.5066580075     0.7070249500    -0.1828659016
    4      C      -3.7758861775    -0.4377735299    -0.9961892298
    5      C      -2.2247626862    -0.2534946565    -1.0347811248
    6      O      -1.6695602346    -1.1748875285    -1.9688784907
    7      C      -0.1919358885    -1.0452245547    -2.0215231853
    8      C       0.5077499430    -1.8343675425    -0.8576947691
    9      O       1.9514323346    -1.5634649463    -1.0384405994
   10      C       2.6960758677    -1.8228900788     0.1613804548
   11      C       4.1584465313    -1.3370919000    -0.1299370167
   12      C       4.2069628447     0.1742619135    -0.6149545056
   13      C       2.8028285255     0.8786750385    -0.6064109938
   14      O       2.2339819480     1.4591953757    -1.5576865513
   15      O      -3.2375870943     2.6808804529    -0.8248805757
   16      O       2.2765041593     0.7895760963     0.7193091338
   17      O       2.2247189295    -2.3423745662     1.1921132171
   18      C       1.0066402343     1.5463004742     0.8353315869
   19      C       5.0532072077    -1.2794188146     1.1744558130
   20      C       6.5646799935    -1.2009145030     0.7258318972
   21      C       6.6447792308     0.2805049943     0.2003052576
   22      C       5.1757498687     0.7905193825     0.4853603918
   23      O       4.7886999666     0.0724488295     1.7205997806
   24      H       4.5960324464    -2.0052607166    -0.8945402302
   25      H       4.6254407038     0.2618998568    -1.6327492737
   26      H       4.8080207397    -2.0557573303     1.9251237676
   27      H       7.2312536156    -1.3596573420     1.5883697861
   28      H       6.8085472113    -1.9428542176    -0.0513819927
   29      H       7.3759947688     0.8735076340     0.7723047997
   30      H       6.9023759025     0.3392941942    -0.8693013680
   31      H       5.0754713989     1.8842957754     0.6255351240
   32      O      -1.5548956496     0.5559830175    -0.3514844905
   33      C      -2.3008387799     3.7519707031    -0.4201988454
   34      C      -5.1023765023    -0.1176137840     1.0342223513
   35      C      -6.3682962449    -0.9095012344     0.5252388954
   36      C      -5.6903825691    -2.0328790124    -0.3438626750
   37      C      -4.1593445804    -1.7122308663    -0.1215921737
   38      O      -4.1003903549    -1.1875279575     1.2598911461
   39      H      -5.3064309692     1.1581746760    -0.7973556889
   40      H      -4.1507497101    -0.5263583969    -2.0313466213
   41      H      -1.3349475201     3.3297377346    -0.0750319458
   42      H      -5.2402989723     0.4786718850     1.9570063385
   43      H      -6.9211206118    -1.3381600597     1.3763508897
   44      H      -7.0533783284    -0.2731053839    -0.0575718432
   45      H      -5.9298554251    -3.0392566662     0.0345745253
   46      H      -5.9747230625    -1.9784756583    -1.4069322676
   47      H      -3.4734164434    -2.5728654130    -0.2464166354
   48      H      -2.7214764423     4.3808245215     0.3908674771
   49      H      -2.1323287769     4.3704186033    -1.3210194598
   50      H       0.7672896796     1.5612842311     1.9141550199
   51      H       0.1666485045     1.0677962766     0.2814842163
   52      H       1.1288310680     2.5862551112     0.4718046661
   53      H       0.1561494335    -1.4758502856     0.1335627587
   54      H       0.2910702410    -2.9226002633    -0.9331215726
   55      H       0.1224700753     0.0204045837    -1.9731883637
   56      H       0.1108169018    -1.4710091633    -2.9988258640
 ----------------------------------------------------------------

    9   -1510.2940586413      8.41E-09 Convergence criterion met
 Total energy in the final basis set = -1510.29405864
 Final energy is   -1510.29405864128
 **  OPTIMIZATION CONVERGED  **

                    Orbital Energies (a.u.)
 --------------------------------------------------------------

 Alpha MOs
 -- Occupied --
-18.953 -18.933 -18.923 -18.921 -18.898 -18.890 -18.884 -18.881
-18.863 -18.863 -10.118 -10.102 -10.092 -10.091 -10.080 -10.076
-10.065 -10.059 -10.057 -10.056 -10.055 -10.046 -10.039 -10.036
-10.036 -10.033 -10.023 -10.021 -10.018 -10.017  -1.030  -1.014
 -1.000  -0.999  -0.973  -0.966  -0.954  -0.940  -0.926  -0.925
 -0.767  -0.762  -0.731  -0.723  -0.713  -0.704  -0.698  -0.656
 -0.647  -0.621  -0.596  -0.583  -0.549  -0.545  -0.539  -0.535
 -0.516  -0.508  -0.487  -0.475  -0.467  -0.460  -0.457  -0.441
 -0.434  -0.432  -0.428  -0.413  -0.408  -0.405  -0.403  -0.400
 -0.394  -0.381  -0.371  -0.366  -0.362  -0.358  -0.353  -0.347
 -0.344  -0.341  -0.335  -0.331  -0.328  -0.327  -0.321  -0.315
 -0.309  -0.306  -0.305  -0.303  -0.291  -0.287  -0.280  -0.277
 -0.274  -0.263  -0.252  -0.246  -0.239  -0.237  -0.231  -0.195
 -0.179  -0.174  -0.166  -0.162  -0.157  -0.148  -0.144  -0.142
 -0.140

          Ground-State Mulliken Net Atomic Charges

     Atom                 Charge (a.u.)
  ----------------------------------------
      1 O                    -0.215729
      2 C                     0.215859
      3 C                    -0.081054
      4 C                    -0.077442
      5 C                     0.222709
      6 O                    -0.167379
      7 C                    -0.050112
      8 C                    -0.050522
      9 O                    -0.178535
     10 C                     0.217864
     11 C                    -0.077822
     12 C                    -0.078220
     13 C                     0.208906
     14 O                    -0.222946
     15 O                    -0.177188
     16 O                    -0.171235
     17 O                    -0.204975
     18 C                    -0.144720
     19 C                     0.024555
     20 C                    -0.143670
     21 C                    -0.144273
     22 C                     0.025957
     23 O                    -0.184254
     24 H                     0.083945
     25 H                     0.083245
     26 H                     0.089625
     27 H                     0.077976
     28 H                     0.072312
     29 H                     0.077568
     30 H                     0.073016
     31 H                     0.082514
     32 O                    -0.207390
     33 C                    -0.128703
     34 C                     0.024690
     35 C                    -0.143691
     36 C                    -0.143733
     37 C                     0.025283
     38 O                    -0.188505
     39 H                     0.084486
     40 H                     0.089206
     41 H                     0.090295
     42 H                     0.091028
     43 H                     0.078936
     44 H                     0.073830
     45 H                     0.079086
     46 H                     0.074115
     47 H                     0.083930
     48 H                     0.087257
     49 H                     0.087355
     50 H                     0.089459
     51 H                     0.105727
     52 H                     0.079124
     53 H                     0.097274
     54 H                     0.085076
     55 H                     0.104997
     56 H                     0.094892
  ----------------------------------------
  Sum of atomic charges =    -0.000000

                    Cartesian Multipole Moments
 -----------------------------------------------------------------
    Charge (ESU x 10^10)
                -0.0000
    Dipole Moment (Debye)
         X      -0.5814      Y      -0.8936      Z      -3.2132
       Tot       3.3854
    Quadrupole Moments (Debye-Ang)
        XX    -133.8129     XY      -0.0593     YY    -154.8728
        XZ       0.7858     YZ       4.2301     ZZ    -169.2271

 Total job time:  70.72s(wall), 3367.10s(cpu)
        *  Thank you very much for using Q-Chem.  Have a nice day.  *
