 Q-Chem 5.0, Q-Chem, Inc., Pleasanton, CA (2017)
 Q-Chem 5.0.1 for Intel X86 EM64T Linux

User input:
--------------------------------------------------------------
$molecule
0  1
O -3.94934 -3.66094 2.70899
C -3.26408 -4.56952 2.26188
C -3.36658 -6.02376 2.66595
C -2.45934 -6.50014 3.81217
C -1.68015 -5.43038 4.54467
O -0.41678 -5.87628 4.81017
C 0.34333 -4.96847 5.61476
C -0.55894 -4.2974 6.64516
O 0.1896 -3.32535 7.39195
C -0.49791 -2.68636 8.37081
C 0.40025 -2.0989 9.43329
C 1.45789 -1.1137 8.91458
C 1.24225 -0.59289 7.50782
O 1.93085 -0.86948 6.53628
O -2.22766 -4.26269 1.43809
O 0.10878 0.13142 7.29954
O -1.71912 -2.59532 8.40269
C -0.29346 0.6167 6.07299
C -0.29089 -1.2258 10.50254
C 0.55873 -1.20792 11.77339
C 1.73765 -0.36824 11.31791
C 1.2639 0.03631 9.91701
O -0.13916 0.09431 10.03798
H 0.8787 -2.97072 9.93485
H 2.47381 -1.56734 8.9361
H -1.32746 -1.54904 10.73976
H -0.01317 -0.63096 12.53539
H 0.81947 -2.20365 12.19216
H 1.81312 0.52042 11.98305
H 2.71289 -0.90028 11.27841
H 1.76641 0.9707 9.58267
O -1.88556 -4.24645 4.31901
C -1.9257 -2.98638 1.01168
C -4.74699 -6.31833 3.30197
C -5.05993 -7.8129 3.2225
C -4.11281 -8.35304 4.27072
C -3.50735 -7.0473 4.7932
O -4.55399 -6.11746 4.67938
H -3.29418 -6.63213 1.7367
H -1.75798 -7.29765 3.47496
H -1.69514 -2.33621 1.88271
H -5.57493 -5.73945 2.83595
H -6.10363 -7.95492 3.58421
H -4.95782 -8.26108 2.21082
H -4.71362 -8.84187 5.06985
H -3.33765 -9.05583 3.89564
H -3.09488 -7.19594 5.81635
H -2.7791 -2.56182 0.4409
H -1.03636 -3.02489 0.34986
H -1.24755 1.16892 6.19587
H -0.45556 -0.22362 5.36425
H 0.47274 1.31059 5.66601
H -1.43954 -3.73447 6.31439
H -0.93021 -5.08967 7.33417
H 0.77126 -4.18084 4.95646
H 1.18087 -5.5087 6.10431
$end

$opt
CONSTRAINT
tors           1           2           3           4     -91.887
tors           3           4           5           6    -139.528
tors           4           5           6           7    -174.378
tors           5           6           7           8     +36.351
tors           6           7           8           9    -176.305
tors           7           8           9          10    -178.120
tors           8           9          10          11    +158.103
tors           9          10          11          12     +56.997
tors          11          12          13          14    -110.636
ENDCONSTRAINT
$end

$rem
JOBTYPE                   OPT
METHOD                    B3LYP
DFT_D                     d3_op
BASIS                     STO-3G
GEOM_OPT_MAX_CYCLES       100
GEOM_OPT_TOL_GRADIENT     300
GEOM_OPT_TOL_DISPLACEMENT 1200
GEOM_OPT_TOL_ENERGY       100
SYMMETRY                  False
THRESH                    12
SCF_CONVERGENCE           8
MAX_SUB_FILE_NUM          128
MEM_STATIC                400
MEM_TOTAL                 4000
$end
--------------------------------------------------------------

   15   -1510.1205956756      4.44E-09 Convergence criterion met
 Total energy in the final basis set = -1510.12059568
   14   -1510.1944216088      2.55E-09 Convergence criterion met
 Total energy in the final basis set = -1510.19442161
   14   -1510.2347009635      1.89E-09 Convergence criterion met
 Total energy in the final basis set = -1510.23470096
   14   -1510.2564879436      6.29E-09 Convergence criterion met
 Total energy in the final basis set = -1510.25648794
   13   -1510.2662307873      9.62E-09 Convergence criterion met
 Total energy in the final basis set = -1510.26623079
   13   -1510.2707645650      6.22E-09 Convergence criterion met
 Total energy in the final basis set = -1510.27076457
   13   -1510.2731350394      3.34E-09 Convergence criterion met
 Total energy in the final basis set = -1510.27313504
   13   -1510.2742765243      3.62E-09 Convergence criterion met
   12   -1510.2762191509      3.71E-09 Convergence criterion met
 Total energy in the final basis set = -1510.27621915
   11   -1510.2762639529      5.46E-09 Convergence criterion met
 Total energy in the final basis set = -1510.27626395
   10   -1510.2762967267      8.20E-09 Convergence criterion met
 Total energy in the final basis set = -1510.27629673
   10   -1510.2763234462      9.94E-09 Convergence criterion met
 Total energy in the final basis set = -1510.27632345
   10   -1510.2763302388      9.87E-09 Convergence criterion met
 Total energy in the final basis set = -1510.27633024
    9   -1510.2763351125      7.89E-09 Convergence criterion met
 Total energy in the final basis set = -1510.27633511

             Standard Nuclear Orientation (Angstroms)
    I     Atom           X                Y                Z
 ----------------------------------------------------------------
    1      O      -4.0070381223     1.4106741433     2.1246528613
    2      C      -4.2226693530     1.4632649292     0.8961622343
    3      C      -4.9684158248     0.4056495082     0.0031096416
    4      C      -3.9984250972    -0.6707851536    -0.6452936457
    5      C      -2.4763935441    -0.3438476146    -0.4770591003
    6      O      -1.8446312806    -0.6786983799    -1.7152824312
    7      C      -0.3610746813    -0.5652736080    -1.7278354345
    8      C       0.4024994656    -0.9659806866    -0.4147921801
    9      O       1.8228165083    -0.6608219893    -0.7094168607
   10      C       2.6628426722    -1.0197491816     0.3979193108
   11      C       4.1249506081    -1.2137619213    -0.1451282772
   12      C       4.7031955395     0.0651410262    -0.8918938565
   13      C       3.6297784408     1.1859358294    -1.1078031027
   14      O       3.1228670570     1.5525823435    -2.1898534866
   15      O      -3.7693561239     2.5208589246     0.0393443428
   16      O       3.2443650232     1.6904439571     0.1773726281
   17      O       2.2492988387    -1.2407071181     1.5544750950
   18      C       2.1166246632     2.6375658660     0.0309012353
   19      C       5.1382254195    -1.3384554054     1.0626626654
   20      C       6.5315795225    -1.8369267062     0.5110625109
   21      C       7.0848560292    -0.5223362922    -0.1557628428
   22      C       5.8835472191     0.4721597751     0.0948870443
   23      O       5.3856150902     0.0757495069     1.4306056424
   24      H       4.1340635408    -2.1011664768    -0.8042567398
   25      H       5.0932709235    -0.2100228214    -1.8876699149
   26      H       4.7318682445    -1.8957612144     1.9290881427
   27      H       7.1773824179    -2.1751537678     1.3367297634
   28      H       6.4172787991    -2.6621719113    -0.2099233549
   29      H       7.9920608762    -0.1625406547     0.3552877730
   30      H       7.3083524874    -0.6472731937    -1.2274204468
   31      H       6.1464429023     1.5474883693     0.0812436697
   32      O      -1.9224039515     0.1721996319     0.5200899777
   33      C      -2.9377996140     3.4692764862     0.8141468823
   34      C      -5.8617510438    -0.5295634406     0.9215629112
   35      C      -6.8097317008    -1.4023007305     0.0075725789
   36      C      -5.8018878563    -2.4789593378    -0.5422105208
   37      C      -4.4536990533    -1.9928633682     0.1215109454
   38      O      -4.8796268935    -1.5059207226     1.4498194530
   39      H      -5.5522367318     0.9305305019    -0.7734932136
   40      H      -4.1898772914    -0.7707213782    -1.7281559022
   41      H      -2.0688776566     2.9561804322     1.2751085245
   42      H      -6.3607507751    -0.0010319961     1.7566553894
   43      H      -7.6084766764    -1.8642123420     0.6090376103
   44      H      -7.2718780729    -0.8052926671    -0.7949044468
   45      H      -6.0596637453    -3.4907174397    -0.1901752952
   46      H      -5.7448595505    -2.4901474082    -1.6422721167
   47      H      -3.6677399773    -2.7665538101     0.2218676335
   48      H      -3.5201336025     3.9658054462     1.6171880190
   49      H      -2.5838079045     4.2281182707     0.0920968483
   50      H       1.8624258179     2.9702317480     1.0540466664
   51      H       1.2350716844     2.1450745601    -0.4286673266
   52      H       2.3934825637     3.5151713554    -0.5883807797
   53      H       0.0025551333    -0.3707727535     0.4341751921
   54      H       0.2667137758    -2.0451391293    -0.1867899814
   55      H      -0.0820311899     0.4841784054    -1.9749779688
   56      H      -0.0332990245    -1.2104572600    -2.5684818208
 ----------------------------------------------------------------

    9   -1510.2763353394      4.04E-09 Convergence criterion met
 Total energy in the final basis set = -1510.27633534
 Final energy is   -1510.27633533944
 **  OPTIMIZATION CONVERGED  **

                    Orbital Energies (a.u.)
 --------------------------------------------------------------

 Alpha MOs
 -- Occupied --
-18.944 -18.930 -18.929 -18.926 -18.890 -18.886 -18.886 -18.880
-18.870 -18.869 -10.110 -10.101 -10.096 -10.093 -10.079 -10.069
-10.063 -10.060 -10.059 -10.059 -10.058 -10.056 -10.040 -10.038
-10.036 -10.035 -10.022 -10.021 -10.019 -10.018  -1.019  -1.014
 -1.004  -1.003  -0.971  -0.968  -0.947  -0.938  -0.932  -0.929
 -0.765  -0.762  -0.730  -0.723  -0.714  -0.705  -0.698  -0.658
 -0.657  -0.621  -0.597  -0.585  -0.548  -0.546  -0.539  -0.536
 -0.514  -0.511  -0.482  -0.470  -0.465  -0.462  -0.452  -0.445
 -0.436  -0.432  -0.429  -0.411  -0.410  -0.408  -0.407  -0.398
 -0.389  -0.382  -0.381  -0.367  -0.366  -0.357  -0.350  -0.349
 -0.345  -0.340  -0.335  -0.333  -0.329  -0.328  -0.325  -0.311
 -0.309  -0.306  -0.305  -0.302  -0.292  -0.289  -0.280  -0.278
 -0.275  -0.257  -0.250  -0.249  -0.247  -0.235  -0.232  -0.187
 -0.179  -0.173  -0.171  -0.157  -0.156  -0.147  -0.146  -0.144
 -0.141

          Ground-State Mulliken Net Atomic Charges

     Atom                 Charge (a.u.)
  ----------------------------------------
      1 O                    -0.205082
      2 C                     0.211789
      3 C                    -0.079504
      4 C                    -0.079367
      5 C                     0.212434
      6 O                    -0.169403
      7 C                    -0.049287
      8 C                    -0.059398
      9 O                    -0.182247
     10 C                     0.215565
     11 C                    -0.077332
     12 C                    -0.079803
     13 C                     0.211433
     14 O                    -0.215064
     15 O                    -0.175457
     16 O                    -0.167686
     17 O                    -0.203464
     18 C                    -0.127384
     19 C                     0.024341
     20 C                    -0.144704
     21 C                    -0.143377
     22 C                     0.026096
     23 O                    -0.185376
     24 H                     0.084061
     25 H                     0.083033
     26 H                     0.090264
     27 H                     0.078245
     28 H                     0.072397
     29 H                     0.077850
     30 H                     0.073123
     31 H                     0.083689
     32 O                    -0.209253
     33 C                    -0.129374
     34 C                     0.026313
     35 C                    -0.144871
     36 C                    -0.142785
     37 C                     0.026011
     38 O                    -0.184004
     39 H                     0.085085
     40 H                     0.087309
     41 H                     0.092853
     42 H                     0.087400
     43 H                     0.078613
     44 H                     0.073566
     45 H                     0.078429
     46 H                     0.073973
     47 H                     0.082540
     48 H                     0.087308
     49 H                     0.087109
     50 H                     0.092737
     51 H                     0.086243
     52 H                     0.087065
     53 H                     0.112883
     54 H                     0.081391
     55 H                     0.089908
     56 H                     0.093169
  ----------------------------------------
  Sum of atomic charges =    -0.000000

                    Cartesian Multipole Moments
 -----------------------------------------------------------------
    Charge (ESU x 10^10)
                 0.0000
    Dipole Moment (Debye)
         X      -0.2446      Y      -0.9149      Z      -3.4337
       Tot       3.5619
    Quadrupole Moments (Debye-Ang)
        XX    -139.1433     XY      -4.0328     YY    -148.7409
        XZ       3.4752     YZ       5.2870     ZZ    -174.6139

 Total job time:  55.48s(wall), 2635.84s(cpu)
        *  Thank you very much for using Q-Chem.  Have a nice day.  *
