 Q-Chem 5.0, Q-Chem, Inc., Pleasanton, CA (2017)
 Q-Chem 5.0.1 for Intel X86 EM64T Linux

User input:
--------------------------------------------------------------
$molecule
0  1
O -3.94934 -3.66094 2.70899
C -3.26408 -4.56952 2.26188
C -3.36658 -6.02376 2.66595
C -2.22837 -6.59569 3.5269
C -1.20495 -5.60513 4.0363
O -0.24748 -6.25766 4.75941
C 0.53719 -5.38113 5.57502
C -0.21006 -5.05253 6.86334
O 0.56386 -4.14116 7.65916
C 0.59695 -4.41055 8.98787
C 1.98963 -4.34113 9.56777
C 2.70442 -2.99558 9.37583
C 1.82362 -1.83171 8.96802
O 1.73937 -1.36775 7.8401
O -2.31199 -4.27921 1.33589
O 0.9285 -1.39926 9.89807
O -0.39799 -4.71188 9.63308
C -0.00795 -0.41029 9.68151
C 2.0974 -4.50012 11.09882
C 3.49447 -5.00387 11.46127
C 4.33003 -3.77462 11.15586
C 3.22574 -2.76999 10.80605
O 2.13131 -3.18261 11.59261
H 2.55632 -5.16629 9.07912
H 3.5053 -3.07358 8.60724
H 1.32357 -5.16965 11.53261
H 3.50069 -5.17159 12.56238
H 3.81815 -5.93596 10.95013
H 4.86202 -3.47252 12.08512
H 5.05414 -3.88791 10.32006
H 3.57596 -1.7258 10.96211
O -1.22092 -4.39166 3.86989
C -2.06392 -3.01364 0.84715
C -4.55685 -6.27574 3.62223
C -4.9721 -7.746 3.57031
C -3.82174 -8.39013 4.3125
C -3.0262 -7.14719 4.72084
O -4.00822 -6.16001 4.91193
H -3.54535 -6.60249 1.73206
H -1.66556 -7.37933 2.97189
H -1.76182 -2.3362 1.67432
H -5.43924 -5.63401 3.40682
H -5.89265 -7.85114 4.18837
H -5.16691 -8.14678 2.55236
H -4.22715 -8.90244 5.2134
H -3.20767 -9.09917 3.71602
H -2.38734 -7.37477 5.60229
H -2.97034 -2.61287 0.34506
H -1.23859 -3.06464 0.10779
H -0.59953 -0.26094 10.60785
H -0.69621 -0.70795 8.86171
H 0.49748 0.54421 9.42123
H -1.15655 -4.5388 6.59224
H -0.46923 -5.99421 7.40197
H 0.87274 -4.47056 5.02799
H 1.45988 -5.92455 5.86969
$end

$opt
CONSTRAINT
tors           1           2           3           4    -107.829
tors           3           4           5           6    -178.852
tors           4           5           6           7    -163.729
tors           5           6           7           8     +81.017
tors           6           7           8           9    -178.265
tors           7           8           9          10    -137.554
tors           8           9          10          11    +133.401
tors           9          10          11          12     +57.447
tors          11          12          13          14    -102.841
ENDCONSTRAINT
$end

$rem
JOBTYPE                   OPT
METHOD                    B3LYP
DFT_D                     d3_op
BASIS                     STO-3G
GEOM_OPT_MAX_CYCLES       100
GEOM_OPT_TOL_GRADIENT     300
GEOM_OPT_TOL_DISPLACEMENT 1200
GEOM_OPT_TOL_ENERGY       100
SYMMETRY                  False
THRESH                    12
SCF_CONVERGENCE           8
MAX_SUB_FILE_NUM          128
MEM_STATIC                400
MEM_TOTAL                 4000
$end
--------------------------------------------------------------

   15   -1510.1456267129      9.01E-09 Convergence criterion met
 Total energy in the final basis set = -1510.14562671
   13   -1510.2144174805      6.92E-09 Convergence criterion met
 Total energy in the final basis set = -1510.21441748
   13   -1510.2505896445      9.40E-09 Convergence criterion met
 Total energy in the final basis set = -1510.25058964
   13   -1510.2654293499      8.77E-09 Convergence criterion met
 Total energy in the final basis set = -1510.26542935
    2   -1510.2654293500      3.30E-09 Convergence criterion met
 Total energy in the final basis set = -1510.26542935
   13   -1510.2692580397      6.02E-09 Convergence criterion met
 Total energy in the final basis set = -1510.26925804
   13   -1510.2702533911      1.84E-09 Convergence criterion met
 Total energy in the final basis set = -1510.27025339
   13   -1510.2708188313      1.97E-09 Convergence criterion met
   12   -1510.2726866503      2.55E-09 Convergence criterion met
 Total energy in the final basis set = -1510.27268665
   11   -1510.2727615819      7.14E-09 Convergence criterion met
 Total energy in the final basis set = -1510.27276158
   10   -1510.2728041548      7.92E-09 Convergence criterion met
 Total energy in the final basis set = -1510.27280415
   10   -1510.2728416603      9.78E-09 Convergence criterion met
 Total energy in the final basis set = -1510.27284166
   10   -1510.2728551864      8.00E-09 Convergence criterion met
 Total energy in the final basis set = -1510.27285519
    9   -1510.2728504814      9.82E-09 Convergence criterion met
 Total energy in the final basis set = -1510.27285048

             Standard Nuclear Orientation (Angstroms)
    I     Atom           X                Y                Z
 ----------------------------------------------------------------
    1      O      -4.3680028068     2.0073276977     1.4230133018
    2      C      -4.6661856245     1.4846793935     0.3286858066
    3      C      -5.0507998269    -0.0190715769     0.0605287143
    4      C      -3.9437048331    -0.8594577116    -0.6970118273
    5      C      -2.6211641645    -0.0578375121    -0.9323955541
    6      O      -1.7015415173    -0.8960930073    -1.6446952400
    7      C      -0.3282538073    -0.3457000810    -1.5508487255
    8      C       0.3423613069    -0.7371044997    -0.1824842436
    9      O       1.6807189942    -0.1036424792    -0.1820521440
   10      C       2.6931156382    -0.9941868927     0.3299760174
   11      C       3.9478212962    -0.9725397156    -0.6224831023
   12      C       4.5844798993     0.4691450021    -0.8277353907
   13      C       3.6587603779     1.6227067643    -0.3123572215
   14      O       2.9503506539     2.3845013784    -1.0057339241
   15      O      -4.8628391514     2.2077316603    -0.8958645190
   16      O       3.6561318529     1.5936792182     1.1189012734
   17      O       2.5166122527    -1.7602846820     1.2997853972
   18      C       2.6339399036     2.5302070929     1.6387707673
   19      C       5.1486838532    -1.7240451570     0.0819838297
   20      C       6.3199612343    -1.9297019427    -0.9583772305
   21      C       6.9473972068    -0.4862820456    -1.0056838792
   22      C       5.9621634040     0.2989426074    -0.0524493165
   23      O       5.6662610967    -0.6894774070     1.0085113479
   24      H       3.6507001156    -1.4253883802    -1.5865478061
   25      H       4.7605007663     0.6550701859    -1.9022579632
   26      H       4.8389092416    -2.6249446489     0.6464776340
   27      H       7.0420535184    -2.6746380297    -0.5884070783
   28      H       5.9441447947    -2.2593634071    -1.9403116207
   29      H       7.9681636757    -0.4777406810    -0.5909623526
   30      H       6.9747556960    -0.0637055639    -2.0228271882
   31      H       6.3652218355     1.2316931946     0.3868642121
   32      O      -2.3493797731     1.0927312650    -0.5218733341
   33      C      -4.4509181445     3.6167940774    -0.7142874745
   34      C      -5.1798781770    -0.8402158609     1.4121967989
   35      C      -6.0042122388    -2.1526713882     1.1133925377
   36      C      -4.9420501851    -3.0022468130     0.3208886994
   37      C      -3.6945058718    -2.0341013676     0.3471263026
   38      O      -3.8057677865    -1.3438898074     1.6502873867
   39      H      -5.9959225348    -0.0298823399    -0.5110970930
   40      H      -4.3048809344    -1.2506881210    -1.6653453826
   41      H      -3.3638907128     3.6911221562    -0.5050365999
   42      H      -5.5229342957    -0.2387375140     2.2760293116
   43      H      -6.2973918218    -2.6481388048     2.0525456265
   44      H      -6.9110921281    -1.9468249653     0.5225399659
   45      H      -4.7072240227    -3.9447712614     0.8407257482
   46      H      -5.2631743636    -3.2361309494    -0.7067998494
   47      H      -2.7087077475    -2.5282252243     0.2441542745
   48      H      -5.0043167368     4.1027769205     0.1151811904
   49      H      -4.6804774222     4.1308677057    -1.6657992801
   50      H       2.6737782152     2.4451262552     2.7401660130
   51      H       1.6218445595     2.2525407669     1.2788387841
   52      H       2.8436146112     3.5769314547     1.3378069510
   53      H      -0.2760744301    -0.3452257252     0.6564279221
   54      H       0.4084666383    -1.8402459042    -0.0753501399
   55      H      -0.3368606779     0.7610237025    -1.6467400109
   56      H       0.2396430984    -0.7855419606    -2.3946852186
 ----------------------------------------------------------------

    9   -1510.2728502480      4.24E-09 Convergence criterion met
 Total energy in the final basis set = -1510.27285025
 Final energy is   -1510.27285024799
 **  OPTIMIZATION CONVERGED  **

                    Orbital Energies (a.u.)
 --------------------------------------------------------------

 Alpha MOs
 -- Occupied --
-18.943 -18.928 -18.922 -18.919 -18.892 -18.891 -18.888 -18.886
-18.869 -18.860 -10.110 -10.106 -10.094 -10.090 -10.078 -10.077
-10.063 -10.059 -10.058 -10.057 -10.056 -10.053 -10.042 -10.041
-10.036 -10.033 -10.022 -10.021 -10.020 -10.019  -1.023  -1.014
 -1.003  -0.997  -0.972  -0.969  -0.949  -0.940  -0.930  -0.924
 -0.765  -0.763  -0.729  -0.723  -0.713  -0.705  -0.699  -0.654
 -0.654  -0.619  -0.598  -0.584  -0.547  -0.546  -0.538  -0.537
 -0.514  -0.510  -0.489  -0.471  -0.466  -0.459  -0.455  -0.444
 -0.437  -0.431  -0.429  -0.411  -0.407  -0.406  -0.402  -0.400
 -0.394  -0.388  -0.373  -0.366  -0.363  -0.358  -0.352  -0.345
 -0.343  -0.339  -0.334  -0.332  -0.331  -0.327  -0.326  -0.314
 -0.309  -0.307  -0.306  -0.303  -0.296  -0.287  -0.279  -0.276
 -0.272  -0.260  -0.248  -0.244  -0.244  -0.236  -0.233  -0.193
 -0.172  -0.170  -0.164  -0.163  -0.160  -0.147  -0.146  -0.142
 -0.141

          Ground-State Mulliken Net Atomic Charges

     Atom                 Charge (a.u.)
  ----------------------------------------
      1 O                    -0.216578
      2 C                     0.215714
      3 C                    -0.081602
      4 C                    -0.077810
      5 C                     0.214975
      6 O                    -0.173265
      7 C                    -0.049504
      8 C                    -0.048317
      9 O                    -0.188266
     10 C                     0.218509
     11 C                    -0.076539
     12 C                    -0.080242
     13 C                     0.210897
     14 O                    -0.212732
     15 O                    -0.176516
     16 O                    -0.168721
     17 O                    -0.195789
     18 C                    -0.127987
     19 C                     0.023876
     20 C                    -0.145080
     21 C                    -0.142918
     22 C                     0.026043
     23 O                    -0.185849
     24 H                     0.082988
     25 H                     0.082434
     26 H                     0.089501
     27 H                     0.078399
     28 H                     0.072161
     29 H                     0.078015
     30 H                     0.073186
     31 H                     0.085296
     32 O                    -0.203218
     33 C                    -0.128562
     34 C                     0.024652
     35 C                    -0.143774
     36 C                    -0.143723
     37 C                     0.024816
     38 O                    -0.189861
     39 H                     0.083925
     40 H                     0.087754
     41 H                     0.091855
     42 H                     0.089998
     43 H                     0.078479
     44 H                     0.073584
     45 H                     0.078625
     46 H                     0.073857
     47 H                     0.083349
     48 H                     0.086888
     49 H                     0.086100
     50 H                     0.091593
     51 H                     0.092826
     52 H                     0.087249
     53 H                     0.089728
     54 H                     0.087390
     55 H                     0.102690
     56 H                     0.089501
  ----------------------------------------
  Sum of atomic charges =     0.000000

                    Cartesian Multipole Moments
 -----------------------------------------------------------------
    Charge (ESU x 10^10)
                 0.0000
    Dipole Moment (Debye)
         X      -0.4683      Y      -1.7296      Z      -3.3038
       Tot       3.7585
    Quadrupole Moments (Debye-Ang)
        XX    -142.6260     XY       4.4195     YY    -155.1275
        XZ      -4.8014     YZ       5.4928     ZZ    -165.4392

 Total job time:  53.47s(wall), 2534.28s(cpu)
        *  Thank you very much for using Q-Chem.  Have a nice day.  *
