 Q-Chem 5.0, Q-Chem, Inc., Pleasanton, CA (2017)
 Q-Chem 5.0.1 for Intel X86 EM64T Linux

User input:
--------------------------------------------------------------
$molecule
0  1
O -4.3680028068 2.0073276977 1.4230133018
C -4.6661856245 1.4846793935 0.3286858066
C -5.0507998269 -0.0190715769 0.0605287143
C -3.9437048331 -0.8594577116 -0.6970118273
C -2.6211641645 -0.0578375121 -0.9323955541
O -1.7015415173 -0.8960930073 -1.64469524
C -0.3282538073 -0.345700081 -1.5508487255
C 0.3423613069 -0.7371044997 -0.1824842436
O 1.6807189942 -0.1036424792 -0.182052144
C 2.6931156382 -0.9941868927 0.3299760174
C 3.9478212962 -0.9725397156 -0.6224831023
C 4.5844798993 0.4691450021 -0.8277353907
C 3.6587603779 1.6227067643 -0.3123572215
O 2.9503506539 2.3845013784 -1.0057339241
O -4.8628391514 2.2077316603 -0.895864519
O 3.6561318529 1.5936792182 1.1189012734
O 2.5166122527 -1.760284682 1.2997853972
C 2.6339399036 2.5302070929 1.6387707673
C 5.1486838532 -1.724045157 0.0819838297
C 6.3199612343 -1.9297019427 -0.9583772305
C 6.9473972068 -0.4862820456 -1.0056838792
C 5.962163404 0.2989426074 -0.0524493165
O 5.6662610967 -0.689477407 1.0085113479
H 3.6507001156 -1.4253883802 -1.5865478061
H 4.7605007663 0.6550701859 -1.9022579632
H 4.8389092416 -2.6249446489 0.646477634
H 7.0420535184 -2.6746380297 -0.5884070783
H 5.9441447947 -2.2593634071 -1.9403116207
H 7.9681636757 -0.477740681 -0.5909623526
H 6.974755696 -0.0637055639 -2.0228271882
H 6.3652218355 1.2316931946 0.3868642121
O -2.3493797731 1.092731265 -0.5218733341
C -4.4509181445 3.6167940774 -0.7142874745
C -5.179878177 -0.8402158609 1.4121967989
C -6.0042122388 -2.1526713882 1.1133925377
C -4.9420501851 -3.002246813 0.3208886994
C -3.6945058718 -2.0341013676 0.3471263026
O -3.8057677865 -1.3438898074 1.6502873867
H -5.9959225348 -0.0298823399 -0.511097093
H -4.3048809344 -1.250688121 -1.6653453826
H -3.3638907128 3.6911221562 -0.5050365999
H -5.5229342957 -0.238737514 2.2760293116
H -6.2973918218 -2.6481388048 2.0525456265
H -6.9110921281 -1.9468249653 0.5225399659
H -4.7072240227 -3.9447712614 0.8407257482
H -5.2631743636 -3.2361309494 -0.7067998494
H -2.7087077475 -2.5282252243 0.2441542745
H -5.0043167368 4.1027769205 0.1151811904
H -4.6804774222 4.1308677057 -1.6657992801
H 2.6737782152 2.4451262552 2.740166013
H 1.6218445595 2.2525407669 1.2788387841
H 2.8436146112 3.5769314547 1.337806951
H -0.2760744301 -0.3452257252 0.6564279221
H 0.4084666383 -1.8402459042 -0.0753501399
H -0.3368606779 0.7610237025 -1.6467400109
H 0.2396430984 -0.7855419606 -2.3946852186
$end

$rem
JOBTYPE                   OPT
METHOD                    B3LYP
DFT_D                     d3_op
BASIS                     STO-3G
GEOM_OPT_MAX_CYCLES       100
GEOM_OPT_TOL_GRADIENT     300
GEOM_OPT_TOL_DISPLACEMENT 1200
GEOM_OPT_TOL_ENERGY       100
SYMMETRY                  False
THRESH                    12
SCF_CONVERGENCE           8
MAX_SUB_FILE_NUM          128
MEM_STATIC                400
MEM_TOTAL                 4000
$end
--------------------------------------------------------------

   16   -1510.2727290880      5.02E-09 Convergence criterion met
 Total energy in the final basis set = -1510.27272909
   14   -1510.2778925162      2.34E-09 Convergence criterion met
 Total energy in the final basis set = -1510.27789252
   14   -1510.2823647525      1.95E-09 Convergence criterion met
 Total energy in the final basis set = -1510.28236475
   14   -1510.2854480053      2.79E-09 Convergence criterion met
 Total energy in the final basis set = -1510.28544801
   13   -1510.2868077297      7.56E-09 Convergence criterion met
 Total energy in the final basis set = -1510.28680773
   13   -1510.2875015821      7.40E-09 Convergence criterion met
 Total energy in the final basis set = -1510.28750158
   13   -1510.2875773555      7.50E-09 Convergence criterion met
 Total energy in the final basis set = -1510.28757736
   13   -1510.2879334392      5.41E-09 Convergence criterion met
    9   -1510.2970701990      6.94E-09 Convergence criterion met
 Total energy in the final basis set = -1510.29707020
    9   -1510.2970656123      6.05E-09 Convergence criterion met
 Total energy in the final basis set = -1510.29706561
   10   -1510.2970612617      7.68E-09 Convergence criterion met
 Total energy in the final basis set = -1510.29706126
   12   -1510.2970267075      5.29E-09 Convergence criterion met
 Total energy in the final basis set = -1510.29702671
   12   -1510.2970567094      4.98E-09 Convergence criterion met
 Total energy in the final basis set = -1510.29705671
    9   -1510.2970526334      7.04E-09 Convergence criterion met
 Total energy in the final basis set = -1510.29705263

             Standard Nuclear Orientation (Angstroms)
    I     Atom           X                Y                Z
 ----------------------------------------------------------------
    1      O      -2.1684900148     1.7549594100     1.5153167772
    2      C      -2.8375123932     1.5880456237     0.4722437459
    3      C      -3.9851145328     0.5273600310     0.2613650803
    4      C      -3.6181941946    -0.6762689583    -0.7028992822
    5      C      -2.1419561203    -0.6295766193    -1.2113777684
    6      O      -1.9293856327    -1.6902164981    -2.1434707534
    7      C      -0.5315250436    -1.6602795425    -2.6411181019
    8      C       0.5256804254    -2.1403070291    -1.5718866578
    9      O       1.6204731655    -1.1412240600    -1.6003744058
   10      C       2.7114764187    -1.5692589672    -0.7688931985
   11      C       3.8525986785    -0.4963933383    -0.8839168200
   12      C       3.4272469765     0.9633036394    -0.4312539647
   13      C       1.9611145465     1.0592855861     0.1122616051
   14      O       1.1155820354     1.9342377087    -0.1803754663
   15      O      -2.7557239570     2.4149166545    -0.6900629791
   16      O       1.7624757073    -0.0038903993     1.0395933015
   17      O       2.7387815702    -2.6528645756    -0.1497567142
   18      C       0.3821963232     0.0250994141     1.5822506739
   19      C       5.0341798235    -0.8034836771     0.1254068681
   20      C       6.3074208708     0.0023256431    -0.3432315871
   21      C       5.9018849709     1.4681968171     0.0634963863
   22      C       4.4878577047     1.2227347192     0.7266416659
   23      O       4.6230037833    -0.1044186286     1.3654933077
   24      H       4.2060733909    -0.4867315315    -1.9315900945
   25      H       3.5322423169     1.6922159529    -1.2535223486
   26      H       5.1851855121    -1.8827216419     0.3225943615
   27      H       7.2007343528    -0.3356763097     0.2055125732
   28      H       6.4936217914    -0.1041860264    -1.4239676203
   29      H       6.6039581645     1.8942198588     0.7977072605
   30      H       5.8399345555     2.1471828234    -0.8020152172
   31      H       4.1785485067     1.9824419436     1.4707544724
   32      O      -1.2439671908     0.1745818844    -0.8681478554
   33      C      -1.5948209930     3.3306837449    -0.5619426524
   34      C      -4.2822314752    -0.2496656005     1.6113455153
   35      C      -5.6977536649    -0.9366855489     1.4976825599
   36      C      -5.3804081546    -2.1160830224     0.5048155528
   37      C      -3.8309154585    -1.9150909968     0.2737641175
   38      O      -3.3412735574    -1.3954947774     1.5692977571
   39      H      -4.8804426694     1.0543744756    -0.1141380046
   40      H      -4.2909021432    -0.7293296662    -1.5777764052
   41      H      -0.6459595380     2.7652174696    -0.4092052124
   42      H      -4.1064775001     0.3545727291     2.5224265046
   43      H      -6.0229049716    -1.3143726162     2.4801805705
   44      H      -6.4655653861    -0.2478292938     1.1109332555
   45      H      -5.5748861098    -3.0975856467     0.9656789880
   46      H      -5.9520149290    -2.0485802810    -0.4347810301
   47      H      -3.2748761564    -2.8260673801    -0.0221959299
   48      H      -1.7345825164     4.0387372453     0.2800806349
   49      H      -1.5516591021     3.8953493382    -1.5110514748
   50      H       0.2578613118    -0.9155654891     2.1485785388
   51      H      -0.3618372273     0.0898467153     0.7578819524
   52      H       0.2352121949     0.8892851506     2.2606362089
   53      H       0.0614993771    -2.1888798461    -0.5622195835
   54      H       0.9109044596    -3.1539974095    -1.8143131973
   55      H      -0.2526476226    -0.6313014826    -2.9571927614
   56      H      -0.5289651922    -2.3288292570    -3.5240945276
 ----------------------------------------------------------------

    9   -1510.2970510361      4.85E-09 Convergence criterion met
 Total energy in the final basis set = -1510.29705104
 Final energy is   -1510.29705103608
 **  OPTIMIZATION CONVERGED  **

                    Orbital Energies (a.u.)
 --------------------------------------------------------------

 Alpha MOs
 -- Occupied --
-18.951 -18.929 -18.925 -18.913 -18.896 -18.888 -18.884 -18.872
-18.868 -18.854 -10.114 -10.098 -10.093 -10.086 -10.082 -10.075
-10.064 -10.057 -10.057 -10.054 -10.044 -10.034 -10.034 -10.032
-10.032 -10.032 -10.023 -10.020 -10.018 -10.017  -1.029  -1.010
 -0.999  -0.992  -0.972  -0.966  -0.951  -0.934  -0.927  -0.918
 -0.765  -0.760  -0.730  -0.721  -0.712  -0.703  -0.697  -0.644
 -0.642  -0.619  -0.594  -0.582  -0.546  -0.543  -0.537  -0.534
 -0.514  -0.506  -0.487  -0.471  -0.459  -0.455  -0.452  -0.445
 -0.432  -0.431  -0.423  -0.414  -0.406  -0.401  -0.400  -0.395
 -0.390  -0.381  -0.366  -0.361  -0.358  -0.355  -0.349  -0.345
 -0.342  -0.337  -0.332  -0.329  -0.326  -0.321  -0.320  -0.313
 -0.308  -0.305  -0.302  -0.299  -0.288  -0.288  -0.277  -0.273
 -0.270  -0.260  -0.252  -0.241  -0.236  -0.232  -0.230  -0.193
 -0.175  -0.168  -0.164  -0.157  -0.153  -0.147  -0.143  -0.139
 -0.137

          Ground-State Mulliken Net Atomic Charges

     Atom                 Charge (a.u.)
  ----------------------------------------
      1 O                    -0.220960
      2 C                     0.213469
      3 C                    -0.081912
      4 C                    -0.078313
      5 C                     0.218821
      6 O                    -0.168526
      7 C                    -0.049384
      8 C                    -0.048354
      9 O                    -0.176571
     10 C                     0.216986
     11 C                    -0.078256
     12 C                    -0.078843
     13 C                     0.218048
     14 O                    -0.214114
     15 O                    -0.177634
     16 O                    -0.168369
     17 O                    -0.211991
     18 C                    -0.141532
     19 C                     0.024707
     20 C                    -0.143953
     21 C                    -0.144060
     22 C                     0.025947
     23 O                    -0.185151
     24 H                     0.082304
     25 H                     0.083504
     26 H                     0.089781
     27 H                     0.077732
     28 H                     0.072082
     29 H                     0.077634
     30 H                     0.073081
     31 H                     0.082964
     32 O                    -0.204021
     33 C                    -0.141620
     34 C                     0.024430
     35 C                    -0.143936
     36 C                    -0.143638
     37 C                     0.024527
     38 O                    -0.190985
     39 H                     0.083676
     40 H                     0.088475
     41 H                     0.116942
     42 H                     0.090597
     43 H                     0.078529
     44 H                     0.073937
     45 H                     0.078689
     46 H                     0.073941
     47 H                     0.083910
     48 H                     0.078570
     49 H                     0.079533
     50 H                     0.086439
     51 H                     0.108331
     52 H                     0.090100
     53 H                     0.091331
     54 H                     0.088860
     55 H                     0.101984
     56 H                     0.092264
  ----------------------------------------
  Sum of atomic charges =    -0.000000

                    Cartesian Multipole Moments
 -----------------------------------------------------------------
    Charge (ESU x 10^10)
                -0.0000
    Dipole Moment (Debye)
         X      -1.0841      Y      -0.4806      Z      -3.1701
       Tot       3.3846
    Quadrupole Moments (Debye-Ang)
        XX    -138.5484     XY       8.5910     YY    -160.3703
        XZ      -6.4626     YZ       5.0269     ZZ    -159.5035

 Total job time:  118.15s(wall), 5625.55s(cpu)
        *  Thank you very much for using Q-Chem.  Have a nice day.  *
