 Q-Chem 5.0, Q-Chem, Inc., Pleasanton, CA (2017)
 Q-Chem 5.0.1 for Intel X86 EM64T Linux

User input:
--------------------------------------------------------------
$molecule
0  1
O -3.94934 -3.66094 2.70899
C -3.26408 -4.56952 2.26188
C -3.36658 -6.02376 2.66595
C -3.12392 -6.36045 4.14636
C -2.98134 -5.18707 5.09026
O -1.82033 -5.30132 5.80049
C -2.00729 -5.15646 7.21234
C -3.47559 -4.88491 7.52298
O -3.6436 -4.65505 8.93075
C -4.92573 -4.65515 9.37267
C -5.03829 -4.93914 10.85163
C -3.96269 -4.27335 11.72232
C -3.17155 -3.16267 11.06112
O -1.95297 -3.06447 11.05955
O -2.34444 -4.2812 1.30361
O -3.89343 -2.16833 10.47414
O -5.87559 -4.32294 8.67487
C -3.34326 -1.08374 9.82433
C -6.32414 -4.42946 11.53006
C -6.58643 -5.23607 12.80177
C -5.48149 -4.71724 13.70111
C -4.87054 -3.6418 12.79607
O -5.96673 -3.17139 12.04596
H -4.9768 -6.04684 10.94343
H -3.23552 -4.9965 12.15418
H -7.217 -4.45601 10.86881
H -7.56486 -4.8961 13.21094
H -6.60971 -6.33882 12.6664
H -5.94877 -4.25072 14.59675
H -4.72786 -5.47202 14.01393
H -4.33278 -2.87998 13.40306
O -3.66538 -4.17845 5.02533
C -2.1141 -3.01701 0.80271
C -4.80173 -6.54424 2.47826
C -4.79775 -8.06809 2.36384
C -4.50754 -8.45448 3.79771
C -4.45843 -7.07157 4.45556
O -5.40385 -6.32539 3.72889
H -2.67097 -6.59632 2.01075
H -2.27408 -7.06597 4.29547
H -1.78538 -2.33678 1.61738
H -5.31536 -6.09386 1.6002
H -5.83238 -8.39358 2.11191
H -4.08879 -8.47148 1.60908
H -5.37997 -9.02354 4.1901
H -3.57528 -9.03855 3.9557
H -4.65099 -7.17316 5.54378
H -3.03712 -2.61858 0.32976
H -1.31397 -3.06954 0.03621
H -4.15934 -0.43677 9.44258
H -2.72692 -1.42643 8.96562
H -2.7167 -0.49357 10.52666
H -3.83237 -3.91709 7.12701
H -4.10096 -5.75811 7.22893
H -1.38837 -4.30764 7.57343
H -1.67906 -6.0862 7.72353
$end

$opt
CONSTRAINT
tors           1           2           3           4     -59.757
tors           3           4           5           6    -126.581
tors           4           5           6           7    -129.325
tors           5           6           7           8      -1.061
tors           6           7           8           9    -176.305
tors           7           8           9          10    -167.919
tors           8           9          10          11    +158.008
tors           9          10          11          12     +39.796
tors          11          12          13          14    -130.834
ENDCONSTRAINT
$end

$rem
JOBTYPE                   OPT
METHOD                    B3LYP
DFT_D                     d3_op
BASIS                     STO-3G
GEOM_OPT_MAX_CYCLES       100
GEOM_OPT_TOL_GRADIENT     300
GEOM_OPT_TOL_DISPLACEMENT 1200
GEOM_OPT_TOL_ENERGY       100
SYMMETRY                  False
THRESH                    12
SCF_CONVERGENCE           8
MAX_SUB_FILE_NUM          128
MEM_STATIC                400
MEM_TOTAL                 4000
$end
--------------------------------------------------------------

   15   -1510.1159057371      6.48E-09 Convergence criterion met
 Total energy in the final basis set = -1510.11590574
   14   -1510.1897768464      7.78E-09 Convergence criterion met
 Total energy in the final basis set = -1510.18977685
   14   -1510.2294990061      9.34E-09 Convergence criterion met
 Total energy in the final basis set = -1510.22949901
   14   -1510.2496531861      7.53E-09 Convergence criterion met
 Total energy in the final basis set = -1510.24965319
   14   -1510.2565551798      3.13E-09 Convergence criterion met
 Total energy in the final basis set = -1510.25655518
   14   -1510.2588462265      2.10E-09 Convergence criterion met
 Total energy in the final basis set = -1510.25884623
   12   -1510.2593743020      6.86E-09 Convergence criterion met
 Total energy in the final basis set = -1510.25937430
   11   -1510.2594882916      9.33E-09 Convergence criterion met
   11   -1510.2596243912      1.61E-09 Convergence criterion met
 Total energy in the final basis set = -1510.25962439
    9   -1510.2596281917      8.15E-09 Convergence criterion met
 Total energy in the final basis set = -1510.25962819
   10   -1510.2596243612      6.53E-09 Convergence criterion met
 Total energy in the final basis set = -1510.25962436
   10   -1510.2596263491      5.64E-09 Convergence criterion met
 Total energy in the final basis set = -1510.25962635
   10   -1510.2596284587      7.15E-09 Convergence criterion met
 Total energy in the final basis set = -1510.25962846
    9   -1510.2596305966      5.37E-09 Convergence criterion met
 Total energy in the final basis set = -1510.25963060

             Standard Nuclear Orientation (Angstroms)
    I     Atom           X                Y                Z
 ----------------------------------------------------------------
    1      O      -4.5673566299     1.3121502892     1.6499057471
    2      C      -5.1364675301     1.0367006422     0.5729217743
    3      C      -5.0222477911    -0.2653546102    -0.2903433344
    4      C      -3.5631881541    -0.6133563543    -0.8156663186
    5      C      -2.3988377064     0.3419168167    -0.3711212646
    6      O      -1.6928838955     0.7947494992    -1.5492115791
    7      C      -0.2170081840     0.6321148319    -1.4977300261
    8      C       0.4137577631     0.0253233668    -0.1941062499
    9      O       1.8767672718     0.0850534850    -0.4297504080
   10      C       2.5820263529    -0.6888077608     0.5542331012
   11      C       3.9916664936    -1.0667127978    -0.0228288317
   12      C       4.7156383967     0.0755492709    -0.8503783768
   13      C       3.9754299551     1.4566116908    -0.8015707243
   14      O       3.6821621100     2.1905986527    -1.7696903927
   15      O      -6.0500211593     1.9199517340    -0.0968387558
   16      O       3.7329880253     1.7915880871     0.5717895299
   17      O       2.0838305026    -1.0761678463     1.6311378819
   18      C       2.9386884569     3.0370729842     0.6517411211
   19      C       5.0576981977    -1.3686614879     1.1088041109
   20      C       6.2083897284    -2.2396261403     0.4721018229
   21      C       6.9329352315    -1.1657593685    -0.4228302565
   22      C       6.1060075105     0.1370261157    -0.0750677475
   23      O       5.7112921328    -0.0592197728     1.3374599209
   24      H       3.8370246448    -1.9568813009    -0.6621437112
   25      H       4.8458489306    -0.2041744536    -1.9101212477
   26      H       4.6164325254    -1.7556099468     2.0482125405
   27      H       6.8772603808    -2.6260038495     1.2576042731
   28      H       5.8182004052    -3.0892428742    -0.1105848963
   29      H       7.9886047183    -1.0418365730    -0.1338183691
   30      H       6.8872203206    -1.4072325749    -1.4968491350
   31      H       6.6575514042     1.0897656569    -0.1953012975
   32      O      -2.0788979214     0.6405236731     0.7993831821
   33      C      -6.1989447883     3.1743088480     0.6762193831
   34      C      -5.3450504713    -1.5665818433     0.5701057973
   35      C      -5.6643748847    -2.7503229884    -0.4258361747
   36      C      -4.2247376222    -3.0968157615    -0.9579495268
   37      C      -3.3479988489    -2.0524146608    -0.1610313834
   38      O      -4.0328332618    -1.9386651943     1.1438420677
   39      H      -5.7223743730    -0.1641965456    -1.1380084542
   40      H      -3.5468979935    -0.6635465402    -1.9183473360
   41      H      -5.2307495461     3.7043243544     0.7856878021
   42      H      -6.0889815131    -1.4126283967     1.3753245477
   43      H      -6.1088249749    -3.5994510917     0.1174804016
   44      H      -6.3535916240    -2.4435604507    -1.2286464882
   45      H      -3.9309885601    -4.1251198404    -0.6929115709
   46      H      -4.1306810869    -2.9717187084    -2.0485389928
   47      H      -2.2880377940    -2.3387873399    -0.0171706990
   48      H      -6.6104459593     2.9843972398     1.6886172989
   49      H      -6.9031862239     3.8048799414     0.1029333399
   50      H       2.8466755692     3.2738331628     1.7275419048
   51      H       1.9279513821     2.8947420008     0.2164478073
   52      H       3.4350938874     3.8767459377     0.1240066777
   53      H       0.1099460996     0.6134222295     0.6988275554
   54      H       0.0825094710    -1.0239338393    -0.0383166150
   55      H       0.2469100150     1.6290332568    -1.6703626686
   56      H       0.0581973520    -0.0155859714    -2.3595411414
 ----------------------------------------------------------------

    9   -1510.2596319953      9.55E-09 Convergence criterion met
 Total energy in the final basis set = -1510.25963200
 Final energy is   -1510.25963199525
 **  OPTIMIZATION CONVERGED  **

                    Orbital Energies (a.u.)
 --------------------------------------------------------------

 Alpha MOs
 -- Occupied --
-18.932 -18.931 -18.927 -18.917 -18.894 -18.893 -18.887 -18.881
-18.874 -18.866 -10.105 -10.103 -10.095 -10.094 -10.077 -10.074
-10.066 -10.063 -10.062 -10.059 -10.058 -10.057 -10.040 -10.038
-10.038 -10.035 -10.025 -10.023 -10.020 -10.019  -1.016  -1.010
 -1.005  -1.001  -0.975  -0.969  -0.942  -0.937  -0.932  -0.929
 -0.765  -0.763  -0.729  -0.724  -0.713  -0.706  -0.700  -0.662
 -0.655  -0.618  -0.598  -0.587  -0.549  -0.546  -0.541  -0.537
 -0.515  -0.511  -0.483  -0.470  -0.464  -0.454  -0.453  -0.449
 -0.435  -0.434  -0.427  -0.412  -0.410  -0.408  -0.407  -0.399
 -0.391  -0.383  -0.375  -0.367  -0.365  -0.358  -0.355  -0.348
 -0.346  -0.340  -0.337  -0.336  -0.330  -0.328  -0.323  -0.312
 -0.310  -0.310  -0.305  -0.302  -0.294  -0.289  -0.282  -0.278
 -0.275  -0.253  -0.250  -0.247  -0.243  -0.238  -0.233  -0.182
 -0.175  -0.170  -0.166  -0.160  -0.157  -0.148  -0.145  -0.142
 -0.141

          Ground-State Mulliken Net Atomic Charges

     Atom                 Charge (a.u.)
  ----------------------------------------
      1 O                    -0.201230
      2 C                     0.204062
      3 C                    -0.079887
      4 C                    -0.079912
      5 C                     0.209270
      6 O                    -0.186956
      7 C                    -0.048279
      8 C                    -0.054037
      9 O                    -0.180076
     10 C                     0.217321
     11 C                    -0.077809
     12 C                    -0.079135
     13 C                     0.214228
     14 O                    -0.218307
     15 O                    -0.171824
     16 O                    -0.168008
     17 O                    -0.205788
     18 C                    -0.127314
     19 C                     0.024688
     20 C                    -0.143476
     21 C                    -0.144389
     22 C                     0.025997
     23 O                    -0.185264
     24 H                     0.082594
     25 H                     0.083781
     26 H                     0.090829
     27 H                     0.078436
     28 H                     0.072491
     29 H                     0.077948
     30 H                     0.073137
     31 H                     0.082786
     32 O                    -0.185301
     33 C                    -0.129517
     34 C                     0.026905
     35 C                    -0.143631
     36 C                    -0.143773
     37 C                     0.026900
     38 O                    -0.181788
     39 H                     0.086817
     40 H                     0.086867
     41 H                     0.089796
     42 H                     0.085206
     43 H                     0.078975
     44 H                     0.074793
     45 H                     0.078950
     46 H                     0.074389
     47 H                     0.080421
     48 H                     0.088487
     49 H                     0.089393
     50 H                     0.092123
     51 H                     0.085069
     52 H                     0.088684
     53 H                     0.106258
     54 H                     0.082061
     55 H                     0.090366
     56 H                     0.085678
  ----------------------------------------
  Sum of atomic charges =     0.000000

                    Cartesian Multipole Moments
 -----------------------------------------------------------------
    Charge (ESU x 10^10)
                 0.0000
    Dipole Moment (Debye)
         X      -0.9769      Y      -1.7732      Z      -3.2476
       Tot       3.8269
    Quadrupole Moments (Debye-Ang)
        XX    -139.6940     XY      -5.7347     YY    -149.9616
        XZ       0.8282     YZ       8.0792     ZZ    -171.2775

 Total job time:  60.14s(wall), 2859.11s(cpu)
        *  Thank you very much for using Q-Chem.  Have a nice day.  *
