 Q-Chem 5.0, Q-Chem, Inc., Pleasanton, CA (2017)
 Q-Chem 5.0.1 for Intel X86 EM64T Linux

User input:
--------------------------------------------------------------
$molecule
0  1
O -4.5673566299 1.3121502892 1.6499057471
C -5.1364675301 1.0367006422 0.5729217743
C -5.0222477911 -0.2653546102 -0.2903433344
C -3.5631881541 -0.6133563543 -0.8156663186
C -2.3988377064 0.3419168167 -0.3711212646
O -1.6928838955 0.7947494992 -1.5492115791
C -0.217008184 0.6321148319 -1.4977300261
C 0.4137577631 0.0253233668 -0.1941062499
O 1.8767672718 0.085053485 -0.429750408
C 2.5820263529 -0.6888077608 0.5542331012
C 3.9916664936 -1.0667127978 -0.0228288317
C 4.7156383967 0.0755492709 -0.8503783768
C 3.9754299551 1.4566116908 -0.8015707243
O 3.68216211 2.1905986527 -1.7696903927
O -6.0500211593 1.919951734 -0.0968387558
O 3.7329880253 1.7915880871 0.5717895299
O 2.0838305026 -1.0761678463 1.6311378819
C 2.9386884569 3.0370729842 0.6517411211
C 5.0576981977 -1.3686614879 1.1088041109
C 6.2083897284 -2.2396261403 0.4721018229
C 6.9329352315 -1.1657593685 -0.4228302565
C 6.1060075105 0.1370261157 -0.0750677475
O 5.7112921328 -0.0592197728 1.3374599209
H 3.8370246448 -1.9568813009 -0.6621437112
H 4.8458489306 -0.2041744536 -1.9101212477
H 4.6164325254 -1.7556099468 2.0482125405
H 6.8772603808 -2.6260038495 1.2576042731
H 5.8182004052 -3.0892428742 -0.1105848963
H 7.9886047183 -1.041836573 -0.1338183691
H 6.8872203206 -1.4072325749 -1.496849135
H 6.6575514042 1.0897656569 -0.1953012975
O -2.0788979214 0.6405236731 0.7993831821
C -6.1989447883 3.174308848 0.6762193831
C -5.3450504713 -1.5665818433 0.5701057973
C -5.6643748847 -2.7503229884 -0.4258361747
C -4.2247376222 -3.0968157615 -0.9579495268
C -3.3479988489 -2.0524146608 -0.1610313834
O -4.0328332618 -1.9386651943 1.1438420677
H -5.722374373 -0.1641965456 -1.1380084542
H -3.5468979935 -0.6635465402 -1.918347336
H -5.2307495461 3.7043243544 0.7856878021
H -6.0889815131 -1.4126283967 1.3753245477
H -6.1088249749 -3.5994510917 0.1174804016
H -6.353591624 -2.4435604507 -1.2286464882
H -3.9309885601 -4.1251198404 -0.6929115709
H -4.1306810869 -2.9717187084 -2.0485389928
H -2.288037794 -2.3387873399 -0.017170699
H -6.6104459593 2.9843972398 1.6886172989
H -6.9031862239 3.8048799414 0.1029333399
H 2.8466755692 3.2738331628 1.7275419048
H 1.9279513821 2.8947420008 0.2164478073
H 3.4350938874 3.8767459377 0.1240066777
H 0.1099460996 0.6134222295 0.6988275554
H 0.082509471 -1.0239338393 -0.038316615
H 0.246910015 1.6290332568 -1.6703626686
H 0.058197352 -0.0155859714 -2.3595411414
$end

$rem
JOBTYPE                   OPT
METHOD                    B3LYP
DFT_D                     d3_op
BASIS                     STO-3G
GEOM_OPT_MAX_CYCLES       100
GEOM_OPT_TOL_GRADIENT     300
GEOM_OPT_TOL_DISPLACEMENT 1200
GEOM_OPT_TOL_ENERGY       100
SYMMETRY                  False
THRESH                    12
SCF_CONVERGENCE           8
MAX_SUB_FILE_NUM          128
MEM_STATIC                400
MEM_TOTAL                 4000
$end
--------------------------------------------------------------

   16   -1510.2596289752      4.84E-09 Convergence criterion met
 Total energy in the final basis set = -1510.25962898
   15   -1510.2637766999      2.22E-09 Convergence criterion met
 Total energy in the final basis set = -1510.26377670
   15   -1510.2673657039      2.33E-09 Convergence criterion met
 Total energy in the final basis set = -1510.26736570
   15   -1510.2699551101      1.93E-09 Convergence criterion met
 Total energy in the final basis set = -1510.26995511
   15   -1510.2721583645      1.63E-09 Convergence criterion met
 Total energy in the final basis set = -1510.27215836
   14   -1510.2740402695      7.89E-09 Convergence criterion met
 Total energy in the final basis set = -1510.27404027
   14   -1510.2761727650      7.72E-09 Convergence criterion met
 Total energy in the final basis set = -1510.27617276
   14   -1510.2783053612      8.06E-09 Convergence criterion met
   11   -1510.2999083078      3.20E-09 Convergence criterion met
 Total energy in the final basis set = -1510.29990831
   11   -1510.2999080711      6.39E-09 Convergence criterion met
 Total energy in the final basis set = -1510.29990807
   11   -1510.2999123980      4.28E-09 Convergence criterion met
 Total energy in the final basis set = -1510.29991240
   11   -1510.2999157238      2.18E-09 Convergence criterion met
 Total energy in the final basis set = -1510.29991572
   11   -1510.2999179151      2.95E-09 Convergence criterion met
 Total energy in the final basis set = -1510.29991792
   11   -1510.2999127872      1.54E-09 Convergence criterion met
 Total energy in the final basis set = -1510.29991279

             Standard Nuclear Orientation (Angstroms)
    I     Atom           X                Y                Z
 ----------------------------------------------------------------
    1      O      -2.8915874223     2.0491110187     1.0731902881
    2      C      -3.1114141192     1.3860497755     0.0367949865
    3      C      -4.0569197617     0.1403436104    -0.1202550781
    4      C      -3.3232916788    -1.1302031377    -0.7331002019
    5      C      -1.8061426193    -0.8710762849    -1.0193528575
    6      O      -1.5758300987    -0.9347259878    -2.4282357180
    7      C      -0.1639194597    -0.5858827492    -2.7267715698
    8      C       0.8066498712    -1.8199312518    -2.5592019287
    9      O       2.1731887883    -1.3047404965    -2.3005669447
   10      C       2.4500659778    -1.3315515392    -0.8903341316
   11      C       3.7562037875    -0.5069074473    -0.6480163274
   12      C       3.4549548434     0.9650855700    -0.1126896585
   13      C       1.9181879927     1.2151087283     0.1206434721
   14      O       1.0765494709     1.4206995552    -0.7925563757
   15      O      -2.5404626414     1.6524794256    -1.2444224634
   16      O       1.6220432595     1.1586190472     1.4999559330
   17      O       1.7364346000    -1.9096389041    -0.0423725658
   18      C       0.1575392449     1.2567206724     1.7444741409
   19      C       4.6407917516    -1.0811522729     0.5396212487
   20      C       6.0901109302    -0.4712689792     0.4006665175
   21      C       5.8329709713     1.0127307798     0.8586743635
   22      C       4.2961820527     0.9623806221     1.2288507316
   23      O       4.1007048556    -0.4123742335     1.7438324152
   24      H       4.3176726323    -0.4672806248    -1.5977846202
   25      H       3.8150614271     1.7196022685    -0.8355184297
   26      H       4.5931299050    -2.1812609299     0.6550356267
   27      H       6.7894173610    -0.9871922477     1.0776667848
   28      H       6.4761967781    -0.5416625763    -0.6288130289
   29      H       6.4340382765     1.2733227103     1.7441977680
   30      H       6.0420681570     1.7453274227     0.0626658840
   31      H       3.9639770601     1.7065365925     1.9774133650
   32      O      -0.9005636657    -0.6665915387    -0.1790272465
   33      C      -1.5430192286     2.7493302954    -1.1665824257
   34      C      -4.5129746610    -0.4172744743     1.2884192930
   35      C      -5.7390087890    -1.3874142288     1.0727238023
   36      C      -5.0235089327    -2.6483443233     0.4591489481
   37      C      -3.5169075669    -2.1724875234     0.4513422861
   38      O      -3.4086543191    -1.3322280851     1.6645626886
   39      H      -4.9179837369     0.4314574017    -0.7495232070
   40      H      -3.8028025382    -1.4629102873    -1.6698007095
   41      H      -0.5326410448     2.3198179029    -0.9582813391
   42      H      -4.6430770226     0.3672001938     2.0590508827
   43      H      -6.2170667818    -1.6246152552     2.0363524224
   44      H      -6.4972668160    -0.9585983488     0.3981574260
   45      H      -5.1423154350    -3.5339716457     1.1034231378
   46      H      -5.3867598954    -2.8948643740    -0.5513954912
   47      H      -2.7643440342    -2.9845672532     0.4756866571
   48      H      -1.8186752096     3.4708988666    -0.3731547588
   49      H      -1.5457785832     3.2483417940    -2.1529464374
   50      H       0.0216417960     1.0267197360     2.8162566332
   51      H      -0.3934065366     0.5195808661     1.1141320341
   52      H      -0.2137316878     2.2803852198     1.5386532045
   53      H       0.4856211704    -2.4385314708    -1.6929925479
   54      H       0.8474904863    -2.4378811324    -3.4778369138
   55      H       0.1989117834     0.2246747810    -2.0483700831
   56      H      -0.1612251850    -0.2274957305    -3.7746673798
 ----------------------------------------------------------------

   10   -1510.2999132459      4.65E-09 Convergence criterion met
 Total energy in the final basis set = -1510.29991325
 Final energy is   -1510.29991324589
 **  OPTIMIZATION CONVERGED  **

                    Orbital Energies (a.u.)
 --------------------------------------------------------------

 Alpha MOs
 -- Occupied --
-18.941 -18.933 -18.928 -18.927 -18.886 -18.885 -18.878 -18.877
-18.874 -18.871 -10.107 -10.101 -10.097 -10.095 -10.062 -10.058
-10.058 -10.057 -10.056 -10.055 -10.039 -10.038 -10.038 -10.037
-10.036 -10.035 -10.019 -10.019 -10.018 -10.018  -1.015  -1.011
 -1.007  -1.003  -0.968  -0.967  -0.937  -0.937  -0.932  -0.931
 -0.763  -0.761  -0.725  -0.721  -0.709  -0.704  -0.691  -0.652
 -0.648  -0.615  -0.594  -0.577  -0.545  -0.543  -0.536  -0.534
 -0.511  -0.505  -0.479  -0.473  -0.462  -0.457  -0.450  -0.444
 -0.434  -0.430  -0.426  -0.422  -0.410  -0.404  -0.399  -0.392
 -0.382  -0.375  -0.371  -0.362  -0.357  -0.357  -0.353  -0.349
 -0.343  -0.338  -0.330  -0.329  -0.327  -0.323  -0.316  -0.308
 -0.307  -0.305  -0.302  -0.298  -0.286  -0.285  -0.284  -0.276
 -0.269  -0.259  -0.246  -0.241  -0.238  -0.232  -0.230  -0.187
 -0.176  -0.171  -0.161  -0.159  -0.154  -0.149  -0.148  -0.141
 -0.141

          Ground-State Mulliken Net Atomic Charges

     Atom                 Charge (a.u.)
  ----------------------------------------
      1 O                    -0.214497
      2 C                     0.210237
      3 C                    -0.078215
      4 C                    -0.078857
      5 C                     0.218595
      6 O                    -0.168285
      7 C                    -0.061805
      8 C                    -0.057781
      9 O                    -0.174227
     10 C                     0.206251
     11 C                    -0.078987
     12 C                    -0.076931
     13 C                     0.220772
     14 O                    -0.226369
     15 O                    -0.174828
     16 O                    -0.157289
     17 O                    -0.202210
     18 C                    -0.143443
     19 C                     0.025810
     20 C                    -0.143583
     21 C                    -0.144758
     22 C                     0.025937
     23 O                    -0.183553
     24 H                     0.086253
     25 H                     0.084426
     26 H                     0.085477
     27 H                     0.078157
     28 H                     0.073031
     29 H                     0.077997
     30 H                     0.072392
     31 H                     0.089870
     32 O                    -0.217222
     33 C                    -0.150735
     34 C                     0.023591
     35 C                    -0.143975
     36 C                    -0.143926
     37 C                     0.025532
     38 O                    -0.186880
     39 H                     0.084813
     40 H                     0.086641
     41 H                     0.110913
     42 H                     0.090044
     43 H                     0.078140
     44 H                     0.072862
     45 H                     0.078184
     46 H                     0.073200
     47 H                     0.084479
     48 H                     0.086369
     49 H                     0.081176
     50 H                     0.091195
     51 H                     0.121753
     52 H                     0.083582
     53 H                     0.099442
     54 H                     0.084000
     55 H                     0.112421
     56 H                     0.084814
  ----------------------------------------
  Sum of atomic charges =    -0.000000

                    Cartesian Multipole Moments
 -----------------------------------------------------------------
    Charge (ESU x 10^10)
                 0.0000
    Dipole Moment (Debye)
         X       0.2311      Y       0.2604      Z      -2.6218
       Tot       2.6448
    Quadrupole Moments (Debye-Ang)
        XX    -136.1912     XY       7.0296     YY    -154.7870
        XZ      -1.4675     YZ       3.2819     ZZ    -164.9372

 Total job time:  171.61s(wall), 8184.31s(cpu)
        *  Thank you very much for using Q-Chem.  Have a nice day.  *
