 Q-Chem 5.0, Q-Chem, Inc., Pleasanton, CA (2017)
 Q-Chem 5.0.1 for Intel X86 EM64T Linux

User input:
--------------------------------------------------------------
$molecule
0  1
O -3.94934 -3.66094 2.70899
C -3.26408 -4.56952 2.26188
C -3.36658 -6.02376 2.66595
C -3.01429 -6.37532 4.12065
C -2.7707 -5.21152 5.05571
O -1.71447 -5.48865 5.87608
C -1.50113 -4.48773 6.87703
C -2.60242 -4.55431 7.93006
O -2.43224 -3.49408 8.88391
C -3.33256 -3.47185 9.89785
C -3.0558 -2.38265 10.90666
C -2.05513 -1.31273 10.44599
C -1.75946 -1.28067 8.95997
O -0.79814 -1.80573 8.41705
O -2.37232 -4.2874 1.27577
O -2.68065 -0.66338 8.16676
O -4.19681 -4.32341 10.06525
C -2.59489 -0.53922 6.7964
C -4.27706 -1.49488 11.23256
C -4.09821 -0.8816 12.62087
C -2.96943 0.09593 12.35432
C -2.84196 -0.04432 10.83191
O -4.14459 -0.36574 10.40678
H -2.7442 -2.89719 11.84368
H -1.07884 -1.40312 10.97117
H -5.24695 -2.03484 11.17113
H -5.02611 -0.30364 12.83499
H -3.91815 -1.59751 13.45145
H -3.31328 1.1147 12.63977
H -2.00724 -0.14041 12.85836
H -2.3952 0.87256 10.38759
O -3.51892 -4.24785 5.1703
C -2.15423 -3.0259 0.76268
C -4.81859 -6.52143 2.58464
C -4.84895 -8.04679 2.48185
C -4.4763 -8.43037 3.89815
C -4.34136 -7.04521 4.53668
O -5.32145 -6.28207 3.87475
H -2.72451 -6.60222 1.96307
H -2.17665 -7.10582 4.20426
H -1.80105 -2.34278 1.56463
H -5.38533 -6.06583 1.74281
H -5.90097 -8.36029 2.29589
H -4.19199 -8.46218 1.68754
H -5.3402 -8.96234 4.35604
H -3.55778 -9.04765 4.00009
H -4.4487 -7.12254 5.64185
H -3.08963 -2.62767 0.31455
H -1.37644 -3.08339 -0.02614
H -3.47163 0.03274 6.42982
H -2.60678 -1.53765 6.31725
H -1.66881 0.00727 6.51784
H -3.61231 -4.45334 7.48579
H -2.54462 -5.54581 8.43325
H -1.42571 -3.48379 6.40862
H -0.53223 -4.68617 7.38229
$end

$opt
CONSTRAINT
tors           1           2           3           4     -64.516
tors           3           4           5           6    -139.528
tors           4           5           6           7    -174.378
tors           5           6           7           8     +71.740
tors           6           7           8           9    -176.305
tors           7           8           9          10    -178.120
tors           8           9          10          11    +176.833
tors           9          10          11          12     +14.190
tors          11          12          13          14     -97.333
ENDCONSTRAINT
$end

$rem
JOBTYPE                   OPT
METHOD                    B3LYP
DFT_D                     d3_op
BASIS                     STO-3G
GEOM_OPT_MAX_CYCLES       100
GEOM_OPT_TOL_GRADIENT     300
GEOM_OPT_TOL_DISPLACEMENT 1200
GEOM_OPT_TOL_ENERGY       100
SYMMETRY                  False
THRESH                    12
SCF_CONVERGENCE           8
MAX_SUB_FILE_NUM          128
MEM_STATIC                400
MEM_TOTAL                 4000
$end
--------------------------------------------------------------

   15   -1510.1451168162      5.40E-09 Convergence criterion met
 Total energy in the final basis set = -1510.14511682
   14   -1510.2142212529      7.64E-09 Convergence criterion met
 Total energy in the final basis set = -1510.21422125
   14   -1510.2497242006      4.23E-09 Convergence criterion met
 Total energy in the final basis set = -1510.24972420
   15   -1510.2675643220      1.44E-09 Convergence criterion met
 Total energy in the final basis set = -1510.26756432
   14   -1510.2727591216      3.83E-09 Convergence criterion met
 Total energy in the final basis set = -1510.27275912
    2   -1510.2727591217      1.36E-09 Convergence criterion met
 Total energy in the final basis set = -1510.27275912
   12   -1510.2743184117      5.82E-09 Convergence criterion met
 Total energy in the final basis set = -1510.27431841
   12   -1510.2750311181      8.45E-09 Convergence criterion met
   11   -1510.2757298114      6.06E-09 Convergence criterion met
 Total energy in the final basis set = -1510.27572981
   11   -1510.2757405078      3.14E-09 Convergence criterion met
 Total energy in the final basis set = -1510.27574051
   11   -1510.2757495672      2.60E-09 Convergence criterion met
 Total energy in the final basis set = -1510.27574957
   11   -1510.2757564576      2.63E-09 Convergence criterion met
 Total energy in the final basis set = -1510.27575646
   11   -1510.2757642124      4.93E-09 Convergence criterion met
 Total energy in the final basis set = -1510.27576421
   11   -1510.2757692702      3.36E-09 Convergence criterion met
 Total energy in the final basis set = -1510.27576927

             Standard Nuclear Orientation (Angstroms)
    I     Atom           X                Y                Z
 ----------------------------------------------------------------
    1      O      -3.6234552344     1.5724517298     1.6616258238
    2      C      -4.3764054591     1.4110159041     0.6787225654
    3      C      -4.8531908516     0.0728315331     0.0170976911
    4      C      -3.7228396056    -0.8208372535    -0.6530820897
    5      C      -2.2580570876    -0.2755642031    -0.5736432149
    6      O      -1.6401947825    -0.5399540813    -1.8470207620
    7      C      -0.2033794837    -0.1751658268    -1.8139780673
    8      C       0.6380859821    -1.1784114515    -0.9476780919
    9      O       2.0243689138    -0.6488668281    -0.9260567533
   10      C       2.8761498856    -1.5266998217    -0.1913291588
   11      C       4.3665065891    -1.0340834225    -0.2183129356
   12      C       4.6998673086     0.4442401468    -0.7009059157
   13      C       3.4771933150     1.3652227878    -1.0656177019
   14      O       3.0116145222     1.5876106605    -2.2044186032
   15      O      -4.9637577899     2.4931598000    -0.0621186862
   16      O       2.9875473861     1.9644179828     0.1400885159
   17      O       2.4727344355    -2.5669741638     0.3738485586
   18      C       1.8293209091     2.8370081905    -0.1483318859
   19      C       4.9940202871    -1.0287341899     1.2433719018
   20      C       6.5618674968    -1.1450911605     1.1011426290
   21      C       6.9243893987     0.3018400903     0.5995035781
   22      C       5.4983622726     0.9822038618     0.5650600256
   23      O       4.7886672596     0.3608909362     1.7072427271
   24      H       4.9113397844    -1.7562139161    -0.8555134077
   25      H       5.3430233838     0.4031679149    -1.5982290761
   26      H       4.5214962335    -1.7514216259     1.9371247944
   27      H       7.0240144193    -1.3637129918     2.0768577322
   28      H       6.8552999340    -1.9306534457     0.3865153767
   29      H       7.5792864150     0.8246699665     1.3144331247
   30      H       7.4104320201     0.3012096901    -0.3892144269
   31      H       5.5001571957     2.0844317874     0.6649631020
   32      O      -1.6620766913     0.2541204741     0.3875493922
   33      C      -4.5391887489     3.7886260086     0.5165902658
   34      C      -5.4084144936    -0.9357315950     1.1201993325
   35      C      -6.2873773754    -2.0292686750     0.3950628820
   36      C      -5.1736289952    -2.9126257394    -0.2799465829
   37      C      -3.8643376201    -2.1649678614     0.1930035745
   38      O      -4.2040502563    -1.6814574484     1.5475686382
   39      H      -5.6314787147     0.3234340030    -0.7246956540
   40      H      -3.9488954144    -1.0013777297    -1.7186976146
   41      H      -3.4378660037     3.9138276181     0.4729351585
   42      H      -5.8856482415    -0.4439553349     1.9899004793
   43      H      -6.8703621779    -2.6051231444     1.1313966435
   44      H      -6.9809450069    -1.5846740840    -0.3363637550
   45      H      -5.1864126146    -3.9450680077     0.1043848171
   46      H      -5.2604031004    -2.9426448981    -1.3778282329
   47      H      -2.9494609135    -2.7882162691     0.2189126325
   48      H      -4.8605614856     3.8899828251     1.5733495901
   49      H      -5.0252836809     4.5711784277    -0.0945473439
   50      H       1.6509870977     3.4262793931     0.7700412906
   51      H       0.9230889586     2.2391560471    -0.3766062912
   52      H       2.0282464298     3.5165508940    -1.0017628520
   53      H       0.2243226927    -1.2241474731     0.0828452313
   54      H       0.6095492057    -2.1995789852    -1.3852499124
   55      H      -0.0668554330     0.8495769685    -1.4081724630
   56      H       0.1401862766    -0.1948199142    -2.8672195005
 ----------------------------------------------------------------

   11   -1510.2757685870      2.75E-09 Convergence criterion met
 Total energy in the final basis set = -1510.27576859
 Final energy is   -1510.27576858702
 **  OPTIMIZATION CONVERGED  **

                    Orbital Energies (a.u.)
 --------------------------------------------------------------

 Alpha MOs
 -- Occupied --
-18.940 -18.935 -18.930 -18.925 -18.892 -18.885 -18.881 -18.874
-18.874 -18.861 -10.102 -10.101 -10.094 -10.093 -10.075 -10.073
-10.063 -10.062 -10.061 -10.057 -10.056 -10.056 -10.041 -10.038
-10.038 -10.033 -10.023 -10.021 -10.018 -10.017  -1.018  -1.014
 -1.006  -1.000  -0.973  -0.967  -0.942  -0.937  -0.931  -0.926
 -0.765  -0.760  -0.728  -0.721  -0.713  -0.705  -0.698  -0.662
 -0.655  -0.618  -0.596  -0.583  -0.547  -0.542  -0.540  -0.535
 -0.516  -0.511  -0.485  -0.469  -0.465  -0.463  -0.451  -0.440
 -0.433  -0.431  -0.428  -0.411  -0.410  -0.407  -0.406  -0.401
 -0.391  -0.386  -0.371  -0.369  -0.365  -0.355  -0.350  -0.343
 -0.340  -0.338  -0.335  -0.330  -0.329  -0.327  -0.324  -0.311
 -0.310  -0.308  -0.305  -0.302  -0.294  -0.289  -0.282  -0.275
 -0.271  -0.258  -0.250  -0.246  -0.242  -0.237  -0.231  -0.184
 -0.179  -0.175  -0.166  -0.160  -0.155  -0.147  -0.143  -0.141
 -0.139

          Ground-State Mulliken Net Atomic Charges

     Atom                 Charge (a.u.)
  ----------------------------------------
      1 O                    -0.199189
      2 C                     0.204858
      3 C                    -0.080001
      4 C                    -0.079243
      5 C                     0.204354
      6 O                    -0.173117
      7 C                    -0.047717
      8 C                    -0.049214
      9 O                    -0.169363
     10 C                     0.211439
     11 C                    -0.078418
     12 C                    -0.080166
     13 C                     0.215976
     14 O                    -0.220753
     15 O                    -0.172654
     16 O                    -0.167108
     17 O                    -0.214651
     18 C                    -0.127080
     19 C                     0.025030
     20 C                    -0.143584
     21 C                    -0.144940
     22 C                     0.026661
     23 O                    -0.185915
     24 H                     0.084580
     25 H                     0.082121
     26 H                     0.088679
     27 H                     0.078049
     28 H                     0.072729
     29 H                     0.077590
     30 H                     0.072657
     31 H                     0.085618
     32 O                    -0.202569
     33 C                    -0.129567
     34 C                     0.027045
     35 C                    -0.143963
     36 C                    -0.143570
     37 C                     0.026841
     38 O                    -0.183219
     39 H                     0.086328
     40 H                     0.087544
     41 H                     0.088869
     42 H                     0.084826
     43 H                     0.078723
     44 H                     0.074193
     45 H                     0.079008
     46 H                     0.074438
     47 H                     0.083527
     48 H                     0.088522
     49 H                     0.088965
     50 H                     0.091631
     51 H                     0.083634
     52 H                     0.088264
     53 H                     0.098117
     54 H                     0.088023
     55 H                     0.091486
     56 H                     0.095677
  ----------------------------------------
  Sum of atomic charges =     0.000000

                    Cartesian Multipole Moments
 -----------------------------------------------------------------
    Charge (ESU x 10^10)
                 0.0000
    Dipole Moment (Debye)
         X      -0.8124      Y       0.1067      Z      -2.5384
       Tot       2.6674
    Quadrupole Moments (Debye-Ang)
        XX    -131.0189     XY      -1.0084     YY    -151.7225
        XZ       1.6725     YZ       4.1699     ZZ    -170.1785

 Total job time:  53.38s(wall), 2537.24s(cpu)
        *  Thank you very much for using Q-Chem.  Have a nice day.  *
