 Q-Chem 5.0, Q-Chem, Inc., Pleasanton, CA (2017)
 Q-Chem 5.0.1 for Intel X86 EM64T Linux

User input:
--------------------------------------------------------------
$molecule
0  1
O -3.6234552344 1.5724517298 1.6616258238
C -4.3764054591 1.4110159041 0.6787225654
C -4.8531908516 0.0728315331 0.0170976911
C -3.7228396056 -0.8208372535 -0.6530820897
C -2.2580570876 -0.2755642031 -0.5736432149
O -1.6401947825 -0.5399540813 -1.847020762
C -0.2033794837 -0.1751658268 -1.8139780673
C 0.6380859821 -1.1784114515 -0.9476780919
O 2.0243689138 -0.6488668281 -0.9260567533
C 2.8761498856 -1.5266998217 -0.1913291588
C 4.3665065891 -1.0340834225 -0.2183129356
C 4.6998673086 0.4442401468 -0.7009059157
C 3.477193315 1.3652227878 -1.0656177019
O 3.0116145222 1.5876106605 -2.2044186032
O -4.9637577899 2.4931598 -0.0621186862
O 2.9875473861 1.9644179828 0.1400885159
O 2.4727344355 -2.5669741638 0.3738485586
C 1.8293209091 2.8370081905 -0.1483318859
C 4.9940202871 -1.0287341899 1.2433719018
C 6.5618674968 -1.1450911605 1.101142629
C 6.9243893987 0.3018400903 0.5995035781
C 5.4983622726 0.9822038618 0.5650600256
O 4.7886672596 0.3608909362 1.7072427271
H 4.9113397844 -1.7562139161 -0.8555134077
H 5.3430233838 0.4031679149 -1.5982290761
H 4.5214962335 -1.7514216259 1.9371247944
H 7.0240144193 -1.3637129918 2.0768577322
H 6.855299934 -1.9306534457 0.3865153767
H 7.579286415 0.8246699665 1.3144331247
H 7.4104320201 0.3012096901 -0.3892144269
H 5.5001571957 2.0844317874 0.664963102
O -1.6620766913 0.2541204741 0.3875493922
C -4.5391887489 3.7886260086 0.5165902658
C -5.4084144936 -0.935731595 1.1201993325
C -6.2873773754 -2.029268675 0.395062882
C -5.1736289952 -2.9126257394 -0.2799465829
C -3.8643376201 -2.1649678614 0.1930035745
O -4.2040502563 -1.6814574484 1.5475686382
H -5.6314787147 0.323434003 -0.724695654
H -3.9488954144 -1.0013777297 -1.7186976146
H -3.4378660037 3.9138276181 0.4729351585
H -5.8856482415 -0.4439553349 1.9899004793
H -6.8703621779 -2.6051231444 1.1313966435
H -6.9809450069 -1.584674084 -0.336363755
H -5.1864126146 -3.9450680077 0.1043848171
H -5.2604031004 -2.9426448981 -1.3778282329
H -2.9494609135 -2.7882162691 0.2189126325
H -4.8605614856 3.8899828251 1.5733495901
H -5.0252836809 4.5711784277 -0.0945473439
H 1.6509870977 3.4262793931 0.7700412906
H 0.9230889586 2.2391560471 -0.3766062912
H 2.0282464298 3.516550894 -1.001762852
H 0.2243226927 -1.2241474731 0.0828452313
H 0.6095492057 -2.1995789852 -1.3852499124
H -0.066855433 0.8495769685 -1.408172463
H 0.1401862766 -0.1948199142 -2.8672195005
$end

$rem
JOBTYPE                   OPT
METHOD                    B3LYP
DFT_D                     d3_op
BASIS                     STO-3G
GEOM_OPT_MAX_CYCLES       100
GEOM_OPT_TOL_GRADIENT     300
GEOM_OPT_TOL_DISPLACEMENT 1200
GEOM_OPT_TOL_ENERGY       100
SYMMETRY                  False
THRESH                    12
SCF_CONVERGENCE           8
MAX_SUB_FILE_NUM          128
MEM_STATIC                400
MEM_TOTAL                 4000
$end
--------------------------------------------------------------

   16   -1510.2757398894      5.70E-09 Convergence criterion met
 Total energy in the final basis set = -1510.27573989
   14   -1510.2772917168      8.96E-09 Convergence criterion met
 Total energy in the final basis set = -1510.27729172
   15   -1510.2797602147      4.00E-09 Convergence criterion met
 Total energy in the final basis set = -1510.27976021
   15   -1510.2812704933      3.93E-09 Convergence criterion met
 Total energy in the final basis set = -1510.28127049
   14   -1510.2826846805      5.94E-09 Convergence criterion met
 Total energy in the final basis set = -1510.28268468
   14   -1510.2832640887      6.48E-09 Convergence criterion met
 Total energy in the final basis set = -1510.28326409
   13   -1510.2849079945      9.41E-09 Convergence criterion met
 Total energy in the final basis set = -1510.28490799
   13   -1510.2864237580      8.70E-09 Convergence criterion met
   12   -1510.2971236012      3.90E-09 Convergence criterion met
 Total energy in the final basis set = -1510.29712360
   11   -1510.2971309099      5.99E-09 Convergence criterion met
 Total energy in the final basis set = -1510.29713091
    9   -1510.2971334782      9.40E-09 Convergence criterion met
 Total energy in the final basis set = -1510.29713348
    9   -1510.2971310422      1.00E-08 Convergence criterion met
 Total energy in the final basis set = -1510.29713104
   10   -1510.2971249633      6.63E-09 Convergence criterion met
 Total energy in the final basis set = -1510.29712496
   10   -1510.2971181325      7.72E-09 Convergence criterion met
 Total energy in the final basis set = -1510.29711813

             Standard Nuclear Orientation (Angstroms)
    I     Atom           X                Y                Z
 ----------------------------------------------------------------
    1      O      -2.3396466256     1.7640132263     1.4522898049
    2      C      -2.9054093236     1.6543082393     0.3427870171
    3      C      -4.0532064716     0.6367391217    -0.0243360331
    4      C      -3.5978790818    -0.5878971752    -0.9216598622
    5      C      -2.0752174654    -0.5683783706    -1.2689428237
    6      O      -1.7799923391    -1.6540261394    -2.1482013960
    7      C      -0.3446965911    -1.6326672926    -2.5243683290
    8      C       0.6209784412    -2.0845648687    -1.3606583084
    9      O       1.7337582031    -1.1052422020    -1.3551649274
   10      C       2.7559995918    -1.5089758470    -0.4295894647
   11      C       3.9171217576    -0.4548593494    -0.5158568185
   12      C       3.4827828634     1.0258840285    -0.1478283718
   13      C       1.9844144168     1.1597090510     0.2882976975
   14      O       1.1729095081     2.0324213895    -0.0949740447
   15      O      -2.6903182971     2.5208580741    -0.7725843846
   16      O       1.7062062873     0.1358932068     1.2387407046
   17      O       2.7215331471    -2.5623527230     0.2390911583
   18      C       0.2914836018     0.2004083544     1.6803407896
   19      C       5.0319056505    -0.7313218507     0.5741098459
   20      C       6.3378091190     0.0506180763     0.1562017629
   21      C       5.9230880913     1.5317603009     0.4917524781
   22      C       4.4669236937     1.3184561919     1.0689234679
   23      O       4.5498325357     0.0138760731     1.7608524495
   24      H       4.3321082767    -0.4908949502    -1.5401011792
   25      H       3.6547207588     1.7215751514    -0.9873499385
   26      H       5.1633753807    -1.8033237074     0.8186991661
   27      H       7.1942964856    -0.2762116002     0.7670570018
   28      H       6.5868506369    -0.0917491847    -0.9074974598
   29      H       6.5804656772     1.9732965054     1.2573707044
   30      H       5.9242166233     2.1850554182    -0.3954573954
   31      H       4.1155983343     2.1053490699     1.7644805267
   32      O      -1.2103267296     0.2411301803    -0.8598270773
   33      C      -1.5326993550     3.4072381708    -0.4962866524
   34      C      -4.5649288814    -0.1189583046     1.2715013957
   35      C      -5.9607317800    -0.7815101590     0.9506231786
   36      C      -5.5204614398    -1.9947216204     0.0489990779
   37      C      -3.9515077515    -1.8111329366     0.0364736543
   38      O      -3.6465903223    -1.2790816384     1.3811404183
   39      H      -4.8657203561     1.1946735647    -0.5230471089
   40      H      -4.1695512049    -0.6450471484    -1.8655351902
   41      H      -0.5997325720     2.8208777704    -0.3225438764
   42      H      -4.5193155045     0.4907082138     2.1944381860
   43      H      -6.4483201849    -1.1246538149     1.8769091728
   44      H      -6.6400202346    -0.0882241702     0.4292486347
   45      H      -5.7893704562    -2.9595525332     0.5076265956
   46      H      -5.9495512731    -1.9521575703    -0.9647792763
   47      H      -3.3687460795    -2.7308282000    -0.1671264306
   48      H      -1.7241657572     4.0539797866     0.3840568781
   49      H      -1.4181598509     4.0389198301    -1.3960071087
   50      H       0.1213839985    -0.7069394629     2.2875764418
   51      H      -0.3936959260     0.2212473786     0.8039569075
   52      H       0.1035161299     1.1010772223     2.2982801015
   53      H       0.0854877657    -2.0794477642    -0.3859532651
   54      H       1.0018254873    -3.1144897542    -1.5302088243
   55      H      -0.0405347739    -0.6102724019    -2.8387313931
   56      H      -0.2663493410    -2.3200515261    -3.3893116717
 ----------------------------------------------------------------

    9   -1510.2971176168      3.01E-09 Convergence criterion met
 Total energy in the final basis set = -1510.29711762
 Final energy is   -1510.29711761677
 **  OPTIMIZATION CONVERGED  **

                    Orbital Energies (a.u.)
 --------------------------------------------------------------

 Alpha MOs
 -- Occupied --
-18.951 -18.929 -18.927 -18.913 -18.896 -18.889 -18.884 -18.873
-18.869 -18.854 -10.115 -10.098 -10.094 -10.085 -10.082 -10.075
-10.064 -10.057 -10.057 -10.054 -10.044 -10.035 -10.035 -10.033
-10.032 -10.032 -10.022 -10.020 -10.018 -10.017  -1.029  -1.011
 -1.000  -0.992  -0.972  -0.966  -0.952  -0.935  -0.928  -0.918
 -0.765  -0.760  -0.730  -0.721  -0.712  -0.703  -0.697  -0.645
 -0.642  -0.619  -0.594  -0.582  -0.547  -0.543  -0.537  -0.534
 -0.515  -0.506  -0.488  -0.471  -0.458  -0.455  -0.453  -0.445
 -0.433  -0.431  -0.424  -0.414  -0.406  -0.401  -0.401  -0.394
 -0.390  -0.381  -0.366  -0.361  -0.359  -0.356  -0.349  -0.345
 -0.341  -0.337  -0.332  -0.329  -0.327  -0.322  -0.320  -0.314
 -0.308  -0.305  -0.303  -0.299  -0.289  -0.288  -0.277  -0.274
 -0.271  -0.260  -0.253  -0.242  -0.236  -0.232  -0.230  -0.193
 -0.176  -0.168  -0.165  -0.158  -0.153  -0.147  -0.143  -0.140
 -0.136

          Ground-State Mulliken Net Atomic Charges

     Atom                 Charge (a.u.)
  ----------------------------------------
      1 O                    -0.221788
      2 C                     0.213281
      3 C                    -0.081730
      4 C                    -0.078572
      5 C                     0.218803
      6 O                    -0.168507
      7 C                    -0.049342
      8 C                    -0.048438
      9 O                    -0.177105
     10 C                     0.217148
     11 C                    -0.078197
     12 C                    -0.078832
     13 C                     0.217875
     14 O                    -0.214342
     15 O                    -0.177293
     16 O                    -0.168153
     17 O                    -0.211614
     18 C                    -0.141437
     19 C                     0.024715
     20 C                    -0.144004
     21 C                    -0.144008
     22 C                     0.025985
     23 O                    -0.185059
     24 H                     0.082464
     25 H                     0.083718
     26 H                     0.089723
     27 H                     0.077778
     28 H                     0.072188
     29 H                     0.077772
     30 H                     0.073180
     31 H                     0.082981
     32 O                    -0.204414
     33 C                    -0.142021
     34 C                     0.024658
     35 C                    -0.144195
     36 C                    -0.143414
     37 C                     0.024913
     38 O                    -0.190043
     39 H                     0.083837
     40 H                     0.088297
     41 H                     0.116093
     42 H                     0.089976
     43 H                     0.078438
     44 H                     0.073880
     45 H                     0.078706
     46 H                     0.073825
     47 H                     0.084070
     48 H                     0.078642
     49 H                     0.079576
     50 H                     0.086843
     51 H                     0.108593
     52 H                     0.090204
     53 H                     0.091494
     54 H                     0.088838
     55 H                     0.101751
     56 H                     0.092261
  ----------------------------------------
  Sum of atomic charges =    -0.000000

                    Cartesian Multipole Moments
 -----------------------------------------------------------------
    Charge (ESU x 10^10)
                -0.0000
    Dipole Moment (Debye)
         X      -0.7530      Y      -0.4979      Z      -3.3386
       Tot       3.4585
    Quadrupole Moments (Debye-Ang)
        XX    -137.4679     XY       7.5493     YY    -160.1429
        XZ      -4.3606     YZ       5.8160     ZZ    -161.4646

 Total job time:  148.74s(wall), 7093.60s(cpu)
        *  Thank you very much for using Q-Chem.  Have a nice day.  *
