 Q-Chem 5.0, Q-Chem, Inc., Pleasanton, CA (2017)
 Q-Chem 5.0.1 for Intel X86 EM64T Linux

User input:
--------------------------------------------------------------
$molecule
0  1
O -3.94934 -3.66094 2.70899
C -3.26408 -4.56952 2.26188
C -3.36658 -6.02376 2.66595
C -2.31191 -6.55555 3.65019
C -1.37955 -5.5312 4.25807
O -0.20843 -5.49544 3.55619
C 0.77627 -4.64068 4.14696
C 1.34 -5.28293 5.41023
O 2.26349 -4.38491 6.04554
C 2.86444 -4.86153 7.16395
C 3.93262 -3.93686 7.69748
C 3.45472 -2.51344 8.01959
C 1.95358 -2.32405 8.10579
O 1.27112 -1.69828 7.30753
O -2.24041 -4.26583 1.42216
O 1.3112 -3.02672 9.07859
O 2.54815 -5.90998 7.71314
C -0.05655 -3.04605 9.25361
C 4.55663 -4.33148 9.05364
C 5.94932 -3.71239 9.17352
C 5.5972 -2.24614 9.34205
C 4.06855 -2.33636 9.41837
O 3.83258 -3.59391 10.0092
H 4.73408 -3.92747 6.92417
H 3.82698 -1.78497 7.26524
H 4.61078 -5.42966 9.21605
H 6.38555 -4.0836 10.12878
H 6.65068 -3.93901 8.34191
H 6.02283 -1.89184 10.30698
H 5.9229 -1.58098 8.51307
H 3.64516 -1.45674 9.95166
O -1.74325 -4.6597 5.04096
C -1.93703 -2.99001 0.99612
C -4.6441 -6.302 3.49536
C -5.01162 -7.78413 3.41581
C -3.92995 -8.38955 4.28399
C -3.21504 -7.12084 4.75799
O -4.23991 -6.16191 4.83479
H -3.43864 -6.61337 1.72463
H -1.68856 -7.3517 3.18253
H -1.68714 -2.34589 1.86629
H -5.51467 -5.68555 3.18046
H -5.98993 -7.91088 3.93277
H -5.08483 -8.19806 2.38717
H -4.41479 -8.90219 5.14452
H -3.23947 -9.08936 3.76533
H -2.65581 -7.31793 5.69961
H -2.79682 -2.55705 0.44144
H -1.05901 -3.03186 0.31953
H -0.30313 -3.6964 10.11765
H -0.55184 -3.4539 8.34627
H -0.43069 -2.02026 9.45846
H 0.51316 -5.50014 6.12181
H 1.84251 -6.23776 5.13568
H 0.36361 -3.62559 4.34755
H 1.61395 -4.51338 3.42901
$end

$opt
CONSTRAINT
tors           1           2           3           4    -101.363
tors           3           4           5           6     -96.733
tors           4           5           6           7    -174.378
tors           5           6           7           8     +72.794
tors           6           7           8           9    -176.305
tors           7           8           9          10    -178.120
tors           8           9          10          11    +173.627
tors           9          10          11          12     +56.997
tors          11          12          13          14    -110.636
ENDCONSTRAINT
$end

$rem
JOBTYPE                   OPT
METHOD                    B3LYP
DFT_D                     d3_op
BASIS                     STO-3G
GEOM_OPT_MAX_CYCLES       100
GEOM_OPT_TOL_GRADIENT     300
GEOM_OPT_TOL_DISPLACEMENT 1200
GEOM_OPT_TOL_ENERGY       100
SYMMETRY                  False
THRESH                    12
SCF_CONVERGENCE           8
MAX_SUB_FILE_NUM          128
MEM_STATIC                400
MEM_TOTAL                 4000
$end
--------------------------------------------------------------

   15   -1510.1521689815      5.73E-09 Convergence criterion met
 Total energy in the final basis set = -1510.15216898
   14   -1510.2211478901      8.06E-09 Convergence criterion met
 Total energy in the final basis set = -1510.22114789
   14   -1510.2580914698      9.51E-09 Convergence criterion met
 Total energy in the final basis set = -1510.25809147
   14   -1510.2743670513      9.04E-09 Convergence criterion met
 Total energy in the final basis set = -1510.27436705
   14   -1510.2800297331      6.17E-09 Convergence criterion met
 Total energy in the final basis set = -1510.28002973
   14   -1510.2823711724      4.17E-09 Convergence criterion met
 Total energy in the final basis set = -1510.28237117
   13   -1510.2834067702      5.53E-09 Convergence criterion met
 Total energy in the final basis set = -1510.28340677
   13   -1510.2840416401      2.91E-09 Convergence criterion met
   11   -1510.2860731523      3.35E-09 Convergence criterion met
 Total energy in the final basis set = -1510.28607315
   10   -1510.2860809906      6.43E-09 Convergence criterion met
 Total energy in the final basis set = -1510.28608099
   11   -1510.2860916036      2.32E-09 Convergence criterion met
 Total energy in the final basis set = -1510.28609160
   11   -1510.2861029385      6.01E-09 Convergence criterion met
 Total energy in the final basis set = -1510.28610294
   11   -1510.2861104820      4.45E-09 Convergence criterion met
 Total energy in the final basis set = -1510.28611048
   11   -1510.2861134340      2.47E-09 Convergence criterion met
 Total energy in the final basis set = -1510.28611343

             Standard Nuclear Orientation (Angstroms)
    I     Atom           X                Y                Z
 ----------------------------------------------------------------
    1      O      -4.2377765981     1.3845908387     1.9265506505
    2      C      -4.2976975951     1.2744193018     0.6840470471
    3      C      -4.8530347793     0.0630108434    -0.1479912657
    4      C      -3.6827672618    -0.8530495030    -0.7212967198
    5      C      -2.2628825330    -0.2470460915    -0.4648671843
    6      O      -1.8473475962     0.4595337540    -1.6441374925
    7      C      -0.4507181087     0.9258848663    -1.4727612050
    8      C       0.5755344378    -0.2568543714    -1.5619394906
    9      O       1.8891587932     0.3613009053    -1.2821368516
   10      C       2.9427572741    -0.6027973789    -1.3723372411
   11      C       4.2931756106     0.1796618077    -1.2242864119
   12      C       4.3584736837     1.0060765691     0.1346126010
   13      C       2.9857317591     1.1062487373     0.8948914649
   14      O       2.2859130822     2.1325035796     1.0408807855
   15      O      -3.7797066202     2.2425212032    -0.2368425642
   16      O       2.6400656739    -0.1879443281     1.4000830756
   17      O       2.7682209131    -1.8204496394    -1.5818633036
   18      C       1.3288411221    -0.1431283482     2.0927515339
   19      C       5.4753414275    -0.8472659777    -1.0057493552
   20      C       6.8529915931    -0.0799382889    -1.0793554581
   21      C       6.8833681744     0.6345621237     0.3229984558
   22      C       5.4851983200     0.1971115608     0.9140165671
   23      O       5.3349230519    -1.1933574834     0.4291644159
   24      H       4.4346791270     0.8320887348    -2.1050537457
   25      H       4.6856440814     2.0417407045    -0.0649000038
   26      H       5.3958256403    -1.7583809975    -1.6300586417
   27      H       7.6863098373    -0.7919106744    -1.1889442739
   28      H       6.8857639991     0.6325276162    -1.9193766573
   29      H       7.7019889824     0.2504420495     0.9522927449
   30      H       6.9810547751     1.7291586212     0.2439975246
   31      H       5.4018845607     0.2340684578     2.0172832608
   32      O      -1.5712832887    -0.3427937984     0.5744286424
   33      C      -3.1256117055     3.3459221100     0.5037259805
   34      C      -5.5871159301    -0.9650588463     0.8066319305
   35      C      -6.3510784264    -2.0306208544    -0.0744301284
   36      C      -5.1600918682    -2.9377658744    -0.5615874980
   37      C      -3.9290675819    -2.1949126266     0.0909884154
   38      O      -4.4607042137    -1.7306762656     1.3916980644
   39      H      -5.4984116385     0.4401680810    -0.9613215418
   40      H      -3.8007656870    -1.0004456673    -1.8093886153
   41      H      -2.2485175114     2.9825324156     1.0780258941
   42      H      -6.1842894056    -0.4898388565     1.6085050502
   43      H      -7.0664513083    -2.5988519806     0.5408901982
   44      H      -6.8974796998    -1.5626394482    -0.9089995350
   45      H      -5.2436486130    -3.9609093175    -0.1616030305
   46      H      -5.0839397844    -2.9921916683    -1.6593673416
   47      H      -3.0227954225    -2.8128282637     0.2424111917
   48      H      -3.8262154100     3.8400891485     1.2069486948
   49      H      -2.7916111998     4.0715192156    -0.2604606659
   50      H       1.2560971960    -1.0868911025     2.6637307087
   51      H       0.4756058967    -0.0856207519     1.3810874282
   52      H       1.2672222329     0.7180345734     2.7875724887
   53      H       0.3335786388    -1.0375721405    -0.8099034075
   54      H       0.5571234333    -0.7240057090    -2.5704333209
   55      H      -0.3177333699     1.4434446063    -0.4980728987
   56      H      -0.2704012149     1.6470953089    -2.2939956729
 ----------------------------------------------------------------

   10   -1510.2861142060      6.63E-09 Convergence criterion met
 Total energy in the final basis set = -1510.28611421
 Final energy is   -1510.28611420602
 **  OPTIMIZATION CONVERGED  **

                    Orbital Energies (a.u.)
 --------------------------------------------------------------

 Alpha MOs
 -- Occupied --
-18.943 -18.935 -18.934 -18.923 -18.889 -18.885 -18.884 -18.880
-18.878 -18.862 -10.107 -10.102 -10.099 -10.092 -10.078 -10.076
-10.064 -10.062 -10.060 -10.057 -10.056 -10.046 -10.042 -10.040
-10.038 -10.032 -10.022 -10.021 -10.019 -10.017  -1.022  -1.016
 -1.011  -0.998  -0.971  -0.967  -0.946  -0.940  -0.937  -0.925
 -0.767  -0.761  -0.730  -0.723  -0.712  -0.704  -0.699  -0.663
 -0.649  -0.620  -0.597  -0.584  -0.549  -0.545  -0.539  -0.535
 -0.514  -0.509  -0.486  -0.470  -0.467  -0.463  -0.457  -0.444
 -0.436  -0.430  -0.428  -0.415  -0.412  -0.404  -0.401  -0.399
 -0.394  -0.383  -0.374  -0.364  -0.363  -0.357  -0.354  -0.350
 -0.346  -0.341  -0.335  -0.332  -0.332  -0.328  -0.324  -0.312
 -0.307  -0.306  -0.305  -0.297  -0.292  -0.287  -0.284  -0.277
 -0.275  -0.261  -0.254  -0.251  -0.242  -0.235  -0.231  -0.187
 -0.179  -0.177  -0.168  -0.162  -0.157  -0.152  -0.145  -0.144
 -0.139

          Ground-State Mulliken Net Atomic Charges

     Atom                 Charge (a.u.)
  ----------------------------------------
      1 O                    -0.205092
      2 C                     0.206438
      3 C                    -0.077230
      4 C                    -0.078906
      5 C                     0.208257
      6 O                    -0.165792
      7 C                    -0.048864
      8 C                    -0.049624
      9 O                    -0.176811
     10 C                     0.217172
     11 C                    -0.077819
     12 C                    -0.079857
     13 C                     0.210794
     14 O                    -0.219903
     15 O                    -0.171482
     16 O                    -0.171967
     17 O                    -0.206969
     18 C                    -0.135849
     19 C                     0.024358
     20 C                    -0.144867
     21 C                    -0.143193
     22 C                     0.025691
     23 O                    -0.186000
     24 H                     0.084966
     25 H                     0.082372
     26 H                     0.088941
     27 H                     0.077920
     28 H                     0.072417
     29 H                     0.077626
     30 H                     0.073098
     31 H                     0.084457
     32 O                    -0.212762
     33 C                    -0.129554
     34 C                     0.025358
     35 C                    -0.144557
     36 C                    -0.143296
     37 C                     0.025614
     38 O                    -0.184341
     39 H                     0.086483
     40 H                     0.086995
     41 H                     0.090356
     42 H                     0.088519
     43 H                     0.078835
     44 H                     0.073299
     45 H                     0.079067
     46 H                     0.073402
     47 H                     0.085764
     48 H                     0.090280
     49 H                     0.090808
     50 H                     0.089227
     51 H                     0.096598
     52 H                     0.087693
     53 H                     0.093871
     54 H                     0.086643
     55 H                     0.098208
     56 H                     0.093205
  ----------------------------------------
  Sum of atomic charges =     0.000000

                    Cartesian Multipole Moments
 -----------------------------------------------------------------
    Charge (ESU x 10^10)
                 0.0000
    Dipole Moment (Debye)
         X      -0.5833      Y       1.2814      Z      -3.1426
       Tot       3.4436
    Quadrupole Moments (Debye-Ang)
        XX    -139.9776     XY       9.5795     YY    -161.1171
        XZ       4.5902     YZ       0.9728     ZZ    -161.5843

 Total job time:  66.72s(wall), 3174.15s(cpu)
        *  Thank you very much for using Q-Chem.  Have a nice day.  *
