 Q-Chem 5.0, Q-Chem, Inc., Pleasanton, CA (2017)
 Q-Chem 5.0.1 for Intel X86 EM64T Linux

User input:
--------------------------------------------------------------
$molecule
0  1
O -4.2377765981 1.3845908387 1.9265506505
C -4.2976975951 1.2744193018 0.6840470471
C -4.8530347793 0.0630108434 -0.1479912657
C -3.6827672618 -0.853049503 -0.7212967198
C -2.262882533 -0.2470460915 -0.4648671843
O -1.8473475962 0.459533754 -1.6441374925
C -0.4507181087 0.9258848663 -1.472761205
C 0.5755344378 -0.2568543714 -1.5619394906
O 1.8891587932 0.3613009053 -1.2821368516
C 2.9427572741 -0.6027973789 -1.3723372411
C 4.2931756106 0.1796618077 -1.2242864119
C 4.3584736837 1.0060765691 0.134612601
C 2.9857317591 1.1062487373 0.8948914649
O 2.2859130822 2.1325035796 1.0408807855
O -3.7797066202 2.2425212032 -0.2368425642
O 2.6400656739 -0.1879443281 1.4000830756
O 2.7682209131 -1.8204496394 -1.5818633036
C 1.3288411221 -0.1431283482 2.0927515339
C 5.4753414275 -0.8472659777 -1.0057493552
C 6.8529915931 -0.0799382889 -1.0793554581
C 6.8833681744 0.6345621237 0.3229984558
C 5.48519832 0.1971115608 0.9140165671
O 5.3349230519 -1.1933574834 0.4291644159
H 4.434679127 0.8320887348 -2.1050537457
H 4.6856440814 2.0417407045 -0.0649000038
H 5.3958256403 -1.7583809975 -1.6300586417
H 7.6863098373 -0.7919106744 -1.1889442739
H 6.8857639991 0.6325276162 -1.9193766573
H 7.7019889824 0.2504420495 0.9522927449
H 6.9810547751 1.7291586212 0.2439975246
H 5.4018845607 0.2340684578 2.0172832608
O -1.5712832887 -0.3427937984 0.5744286424
C -3.1256117055 3.34592211 0.5037259805
C -5.5871159301 -0.9650588463 0.8066319305
C -6.3510784264 -2.0306208544 -0.0744301284
C -5.1600918682 -2.9377658744 -0.561587498
C -3.9290675819 -2.1949126266 0.0909884154
O -4.4607042137 -1.7306762656 1.3916980644
H -5.4984116385 0.440168081 -0.9613215418
H -3.800765687 -1.0004456673 -1.8093886153
H -2.2485175114 2.9825324156 1.0780258941
H -6.1842894056 -0.4898388565 1.6085050502
H -7.0664513083 -2.5988519806 0.5408901982
H -6.8974796998 -1.5626394482 -0.908999535
H -5.243648613 -3.9609093175 -0.1616030305
H -5.0839397844 -2.9921916683 -1.6593673416
H -3.0227954225 -2.8128282637 0.2424111917
H -3.82621541 3.8400891485 1.2069486948
H -2.7916111998 4.0715192156 -0.2604606659
H 1.256097196 -1.0868911025 2.6637307087
H 0.4756058967 -0.0856207519 1.3810874282
H 1.2672222329 0.7180345734 2.7875724887
H 0.3335786388 -1.0375721405 -0.8099034075
H 0.5571234333 -0.724005709 -2.5704333209
H -0.3177333699 1.4434446063 -0.4980728987
H -0.2704012149 1.6470953089 -2.2939956729
$end

$rem
JOBTYPE                   OPT
METHOD                    B3LYP
DFT_D                     d3_op
BASIS                     STO-3G
GEOM_OPT_MAX_CYCLES       100
GEOM_OPT_TOL_GRADIENT     300
GEOM_OPT_TOL_DISPLACEMENT 1200
GEOM_OPT_TOL_ENERGY       100
SYMMETRY                  False
THRESH                    12
SCF_CONVERGENCE           8
MAX_SUB_FILE_NUM          128
MEM_STATIC                400
MEM_TOTAL                 4000
$end
--------------------------------------------------------------

   16   -1510.2861961430      5.20E-09 Convergence criterion met
 Total energy in the final basis set = -1510.28619614
   14   -1510.2763467256      4.55E-09 Convergence criterion met
 Total energy in the final basis set = -1510.27634673
   15   -1510.2879924761      2.55E-09 Convergence criterion met
 Total energy in the final basis set = -1510.28799248
   13   -1510.2888504209      8.66E-09 Convergence criterion met
 Total energy in the final basis set = -1510.28885042
   13   -1510.2900856654      7.67E-09 Convergence criterion met
 Total energy in the final basis set = -1510.29008567
   13   -1510.2911310098      8.48E-09 Convergence criterion met
 Total energy in the final basis set = -1510.29113101
   13   -1510.2922892630      6.18E-09 Convergence criterion met
 Total energy in the final basis set = -1510.29228926
   14   -1510.2924725748      6.69E-09 Convergence criterion met
   11   -1510.2998557287      2.02E-09 Convergence criterion met
 Total energy in the final basis set = -1510.29985573
   10   -1510.2998551256      9.75E-09 Convergence criterion met
 Total energy in the final basis set = -1510.29985513
   10   -1510.2998557877      8.01E-09 Convergence criterion met
 Total energy in the final basis set = -1510.29985579
    9   -1510.2998554923      7.29E-09 Convergence criterion met
 Total energy in the final basis set = -1510.29985549
    9   -1510.2998556615      7.21E-09 Convergence criterion met
 Total energy in the final basis set = -1510.29985566
    9   -1510.2998551196      8.39E-09 Convergence criterion met
 Total energy in the final basis set = -1510.29985512

             Standard Nuclear Orientation (Angstroms)
    I     Atom           X                Y                Z
 ----------------------------------------------------------------
    1      O      -2.7924332351     2.0876676937     1.5135065699
    2      C      -3.0462804274     1.5440592109     0.4171563112
    3      C      -3.9977825360     0.3213266971     0.1532054889
    4      C      -3.3221313955    -0.8279158849    -0.7115721190
    5      C      -1.8218358245    -0.5290179770    -1.0456940138
    6      O      -1.6654013157    -0.3836870830    -2.4591076247
    7      C      -0.2623654421    -0.0125405088    -2.7732764184
    8      C       0.6908495175    -1.2703763345    -2.8386210085
    9      O       2.0713135052    -0.8278574386    -2.5267140655
   10      C       2.3701770230    -1.0909020986    -1.1456010766
   11      C       3.7083994912    -0.3607698689    -0.7969022404
   12      C       3.4744408532     0.9768922826     0.0397826237
   13      C       1.9489691361     1.2449669427     0.3254440610
   14      O       1.1107320104     1.6138593650    -0.5380229394
   15      O      -2.5174157103     1.9552464351    -0.8437379035
   16      O       1.6618869554     0.9998667519     1.6864801368
   17      O       1.6536346411    -1.7815490919    -0.3891861545
   18      C       0.2032013923     1.0974860329     1.9617975848
   19      C       4.6032582200    -1.1910321254     0.2179609100
   20      C       6.0625157695    -0.5889111369     0.1883285039
   21      C       5.8511323015     0.7511129696     0.9860868787
   22      C       4.3145966999     0.6574970893     1.3448769756
   23      O       4.0895508538    -0.7924780781     1.5471750882
   24      H       4.2401331481    -0.1463518844    -1.7405846012
   25      H       3.8747833952     1.8478707789    -0.5101243354
   26      H       4.5374626182    -2.2890814540     0.0922493414
   27      H       6.7654782225    -1.2602718729     0.7066465637
   28      H       6.4244976734    -0.4220774636    -0.8388189218
   29      H       6.4583951796     0.7734016599     1.9046932726
   30      H       6.0845461341     1.6457451396     0.3868266861
   31      H       3.9994225377     1.2262187395     2.2399867860
   32      O      -0.8683247406    -0.4637185887    -0.2363870350
   33      C      -1.4982643386     3.0212267563    -0.6739103588
   34      C      -4.3271504662    -0.4542156432     1.4936558399
   35      C      -5.5815712389    -1.3783098848     1.2440484549
   36      C      -4.9484305441    -2.5138466344     0.3565712493
   37      C      -3.4390375747    -2.0510439212     0.2962769839
   38      O      -3.2089713309    -1.4194111068     1.6153559696
   39      H      -4.9133855398     0.6928432521    -0.3428245007
   40      H      -3.8658412967    -1.0008241174    -1.6566664813
   41      H      -0.4902598433     2.5545070330    -0.5500509954
   42      H      -4.3739045429     0.1986009030     2.3869797776
   43      H      -5.9598690446    -1.7774280899     2.1986699867
   44      H      -6.3999299613    -0.8439667216     0.7355185039
   45      H      -5.0299129177    -3.4996929977     0.8411539127
   46      H      -5.4035182520    -2.5743834760    -0.6450086324
   47      H      -2.7025667002    -2.8592197525     0.1216766371
   48      H      -1.7348632982     3.6506466821     0.2060056313
   49      H      -1.5229042047     3.6308305099    -1.5956539076
   50      H       0.0727299487     0.7226820583     2.9926359050
   51      H      -0.3693441278     0.4673582965     1.2404661273
   52      H      -0.1462739764     2.1476155933     1.9059093133
   53      H       0.3734524787    -2.0222627158    -2.0836972348
   54      H       0.7033985302    -1.7239079147    -3.8493913383
   55      H       0.1481736840     0.6789627558    -1.9982676828
   56      H      -0.3013199630     0.5002446091    -3.7538880915
 ----------------------------------------------------------------

   10   -1510.2998544517      3.51E-09 Convergence criterion met
 Total energy in the final basis set = -1510.29985445
 Final energy is   -1510.29985445168
 **  OPTIMIZATION CONVERGED  **

                    Orbital Energies (a.u.)
 --------------------------------------------------------------

 Alpha MOs
 -- Occupied --
-18.939 -18.932 -18.928 -18.927 -18.885 -18.885 -18.876 -18.876
-18.873 -18.873 -10.105 -10.100 -10.096 -10.096 -10.062 -10.058
-10.058 -10.056 -10.056 -10.056 -10.039 -10.038 -10.036 -10.036
-10.036 -10.035 -10.019 -10.019 -10.018 -10.018  -1.015  -1.010
 -1.006  -1.003  -0.968  -0.967  -0.936  -0.936  -0.932  -0.931
 -0.762  -0.761  -0.724  -0.721  -0.709  -0.703  -0.690  -0.652
 -0.647  -0.615  -0.594  -0.577  -0.544  -0.543  -0.535  -0.534
 -0.510  -0.505  -0.478  -0.473  -0.461  -0.458  -0.450  -0.444
 -0.434  -0.430  -0.426  -0.422  -0.410  -0.404  -0.398  -0.392
 -0.382  -0.375  -0.371  -0.362  -0.358  -0.356  -0.353  -0.348
 -0.343  -0.338  -0.330  -0.328  -0.327  -0.322  -0.316  -0.309
 -0.307  -0.304  -0.302  -0.297  -0.286  -0.284  -0.283  -0.275
 -0.269  -0.259  -0.246  -0.241  -0.238  -0.232  -0.230  -0.186
 -0.175  -0.171  -0.160  -0.158  -0.154  -0.149  -0.148  -0.141
 -0.140

          Ground-State Mulliken Net Atomic Charges

     Atom                 Charge (a.u.)
  ----------------------------------------
      1 O                    -0.214443
      2 C                     0.210863
      3 C                    -0.078523
      4 C                    -0.078611
      5 C                     0.219239
      6 O                    -0.168425
      7 C                    -0.061019
      8 C                    -0.057476
      9 O                    -0.174059
     10 C                     0.206668
     11 C                    -0.078860
     12 C                    -0.077067
     13 C                     0.220923
     14 O                    -0.226352
     15 O                    -0.174316
     16 O                    -0.158731
     17 O                    -0.202217
     18 C                    -0.144117
     19 C                     0.025891
     20 C                    -0.143868
     21 C                    -0.144641
     22 C                     0.025516
     23 O                    -0.183860
     24 H                     0.086034
     25 H                     0.083980
     26 H                     0.084885
     27 H                     0.077940
     28 H                     0.072910
     29 H                     0.077934
     30 H                     0.072332
     31 H                     0.090939
     32 O                    -0.217320
     33 C                    -0.150528
     34 C                     0.023520
     35 C                    -0.143720
     36 C                    -0.144172
     37 C                     0.025462
     38 O                    -0.186913
     39 H                     0.084863
     40 H                     0.086566
     41 H                     0.111368
     42 H                     0.090142
     43 H                     0.078237
     44 H                     0.072885
     45 H                     0.078294
     46 H                     0.073296
     47 H                     0.084688
     48 H                     0.086753
     49 H                     0.081547
     50 H                     0.090334
     51 H                     0.121850
     52 H                     0.083196
     53 H                     0.099302
     54 H                     0.083927
     55 H                     0.112021
     56 H                     0.084934
  ----------------------------------------
  Sum of atomic charges =    -0.000000

                    Cartesian Multipole Moments
 -----------------------------------------------------------------
    Charge (ESU x 10^10)
                 0.0000
    Dipole Moment (Debye)
         X       0.0459      Y       0.6235      Z      -2.4416
       Tot       2.5203
    Quadrupole Moments (Debye-Ang)
        XX    -136.1018     XY       7.1097     YY    -156.6048
        XZ      -1.3853     YZ       4.0393     ZZ    -163.3088

 Total job time:  160.36s(wall), 7652.25s(cpu)
        *  Thank you very much for using Q-Chem.  Have a nice day.  *
