 Q-Chem 5.0, Q-Chem, Inc., Pleasanton, CA (2017)
 Q-Chem 5.0.1 for Intel X86 EM64T Linux

User input:
--------------------------------------------------------------
$molecule
0  1
O -3.94934 -3.66094 2.70899
C -3.26408 -4.56952 2.26188
C -3.36658 -6.02376 2.66595
C -2.16345 -6.63473 3.40287
C -1.06543 -5.67763 3.81078
O -0.06645 -5.69347 2.87953
C 1.17332 -5.17679 3.37478
C 2.25923 -6.24434 3.28945
O 3.49787 -5.72419 3.79747
C 4.56432 -5.84377 2.96829
C 5.1373 -4.51039 2.55064
C 5.0017 -3.39207 3.59431
C 4.65305 -3.83872 4.99989
O 3.5876 -3.63631 5.56416
O -2.31594 -4.2805 1.33276
O 5.56293 -4.63304 5.62898
O 4.76668 -6.85565 2.31012
C 5.38675 -5.18238 6.88159
C 6.67186 -4.501 2.35813
C 7.05282 -3.37412 1.39798
C 6.76842 -2.15799 2.26028
C 6.43565 -2.84009 3.59329
O 7.19871 -4.02291 3.57202
H 4.6676 -4.25846 1.57275
H 4.22512 -2.65685 3.28744
H 7.07938 -5.46978 1.99596
H 8.15326 -3.44877 1.24192
H 6.54641 -3.38234 0.40891
H 7.70032 -1.55508 2.33504
H 5.92465 -1.5203 1.91781
H 6.61869 -2.15444 4.44995
O -1.20724 -4.79384 4.64832
C -2.05391 -3.01297 0.85753
C -4.47146 -6.26982 3.7178
C -4.90805 -7.7352 3.6903
C -3.71116 -8.39889 4.33706
C -2.85749 -7.17131 4.66638
O -3.80464 -6.1711 4.95208
H -3.6204 -6.58377 1.73811
H -1.69912 -7.4588 2.8139
H -1.73565 -2.35088 1.69105
H -5.35931 -5.61355 3.58572
H -5.7806 -7.83968 4.37431
H -5.18101 -8.12045 2.68433
H -4.0465 -8.8888 5.27841
H -3.17144 -9.1328 3.70029
H -2.13442 -7.40853 5.47814
H -2.95811 -2.59315 0.36715
H -1.23453 -3.06669 0.11174
H 6.28267 -5.78088 7.14516
H 4.49768 -5.84872 6.88509
H 5.25774 -4.37822 7.63714
H 1.95415 -7.10333 3.92445
H 2.32744 -6.59986 2.23488
H 1.13834 -4.82564 4.43245
H 1.46989 -4.31039 2.74584
$end

$opt
CONSTRAINT
tors           1           2           3           4    -113.921
tors           3           4           5           6     -96.733
tors           4           5           6           7    -160.818
tors           5           6           7           8    +119.995
tors           6           7           8           9    -179.536
tors           7           8           9          10    -126.872
tors           8           9          10          11    +117.320
tors           9          10          11          12     +31.327
tors          11          12          13          14    -110.636
ENDCONSTRAINT
$end

$rem
JOBTYPE                   OPT
METHOD                    B3LYP
DFT_D                     d3_op
BASIS                     STO-3G
GEOM_OPT_MAX_CYCLES       100
GEOM_OPT_TOL_GRADIENT     300
GEOM_OPT_TOL_DISPLACEMENT 1200
GEOM_OPT_TOL_ENERGY       100
SYMMETRY                  False
THRESH                    12
SCF_CONVERGENCE           8
MAX_SUB_FILE_NUM          128
MEM_STATIC                400
MEM_TOTAL                 4000
$end
--------------------------------------------------------------

   15   -1510.1265096792      7.73E-09 Convergence criterion met
 Total energy in the final basis set = -1510.12650968
   13   -1510.1965690973      9.80E-09 Convergence criterion met
 Total energy in the final basis set = -1510.19656910
   14   -1510.2340398468      8.86E-09 Convergence criterion met
 Total energy in the final basis set = -1510.23403985
   14   -1510.2508576232      6.97E-09 Convergence criterion met
 Total energy in the final basis set = -1510.25085762
   14   -1510.2572114385      4.39E-09 Convergence criterion met
 Total energy in the final basis set = -1510.25721144
   13   -1510.2600302888      4.12E-09 Convergence criterion met
 Total energy in the final basis set = -1510.26003029
   13   -1510.2613660787      5.76E-09 Convergence criterion met
 Total energy in the final basis set = -1510.26136608
   12   -1510.2619769238      8.41E-09 Convergence criterion met
   11   -1510.2638700532      6.00E-09 Convergence criterion met
 Total energy in the final basis set = -1510.26387005
   11   -1510.2638855962      2.78E-09 Convergence criterion met
 Total energy in the final basis set = -1510.26388560
   10   -1510.2638972999      7.88E-09 Convergence criterion met
 Total energy in the final basis set = -1510.26389730
   11   -1510.2639074358      2.26E-09 Convergence criterion met
 Total energy in the final basis set = -1510.26390744
   11   -1510.2639178675      3.05E-09 Convergence criterion met
 Total energy in the final basis set = -1510.26391787
   11   -1510.2639219062      3.79E-09 Convergence criterion met
 Total energy in the final basis set = -1510.26392191

             Standard Nuclear Orientation (Angstroms)
    I     Atom           X                Y                Z
 ----------------------------------------------------------------
    1      O      -5.0940855823     1.7995002509     1.7330482413
    2      C      -4.4929225612     1.6014810676     0.6565848812
    3      C      -4.8783609334     0.5899132820    -0.4827321097
    4      C      -3.8070751032    -0.5752545252    -0.6476632686
    5      C      -2.4797466384    -0.3377789830     0.1508535983
    6      O      -1.5102940176     0.2309391781    -0.7466071474
    7      C      -0.1401849552     0.0569909346    -0.2114784233
    8      C       0.6992871226    -0.7858293532    -1.2399957541
    9      O       2.0535137632    -0.9438430713    -0.6603102498
   10      C       3.0882527554    -0.5216834273    -1.5796024309
   11      C       3.9111809390     0.6994916039    -1.0164030353
   12      C       4.0729924861     0.7743117552     0.5588611535
   13      C       3.2709844943    -0.3107236931     1.3605431950
   14      O       2.2769971349    -0.1139511181     2.0933110632
   15      O      -3.2700345786     2.2485349326     0.2850135791
   16      O       3.9107160167    -1.5791011436     1.1754105212
   17      O       3.2398393774    -1.0208995288    -2.7136489412
   18      C       3.1164386117    -2.6401479343     1.8325755372
   19      C       5.4246988793     0.6113215185    -1.4759989382
   20      C       6.1120107101     2.0151563444    -1.2502986164
   21      C       6.3046181440     2.0133718736     0.3119354561
   22      C       5.6516558914     0.6268664887     0.6959077149
   23      O       6.0290611093    -0.2516526532    -0.4344689678
   24      H       3.4165087658     1.6106168216    -1.4041737590
   25      H       3.7335739272     1.7580820714     0.9286861144
   26      H       5.5581010807     0.1648079692    -2.4808870288
   27      H       7.0777182057     2.0620059993    -1.7781453476
   28      H       5.4785154282     2.8462252077    -1.5996765218
   29      H       7.3715005896     2.0242596379     0.5866475750
   30      H       5.8035430252     2.8615148524     0.8054564849
   31      H       5.9913516330     0.1906897971     1.6549593311
   32      O      -2.2396749921    -0.6457232467     1.3383795902
   33      C      -2.7912090424     3.1065425233     1.3930146014
   34      C      -6.1475686996    -0.2428933972    -0.0355891530
   35      C      -6.6661573295    -1.0999064896    -1.2561409213
   36      C      -5.6108827446    -2.2682833535    -1.2847007225
   37      C      -4.6399890449    -1.8228002897    -0.1216333808
   38      O      -5.5599485105    -1.2463608289     0.8840982753
   39      H      -5.0259734517     1.1368224768    -1.4316423112
   40      H      -3.5364176333    -0.6920380192    -1.7117895287
   41      H      -2.5197211825     2.4997488747     2.2813681401
   42      H      -6.9137314637     0.3571969721     0.4922575601
   43      H      -7.6821634813    -1.4771622844    -1.0599157810
   44      H      -6.6801594313    -0.5187359745    -2.1920703737
   45      H      -6.0767061003    -3.2370229445    -1.0431702151
   46      H      -5.0938861075    -2.3552105450    -2.2537414105
   47      H      -4.0287257607    -2.6279569638     0.3299885186
   48      H      -3.5547331498     3.8523019750     1.6938417457
   49      H      -1.8927702650     3.6250620044     1.0111267153
   50      H       3.6769555643    -3.5810298489     1.6817879329
   51      H       2.1117159348    -2.7279090191     1.3703787736
   52      H       2.9918574010    -2.4495499808     2.9182710367
   53      H       0.2298789604    -1.7861897969    -1.3740919903
   54      H       0.7213647200    -0.2817133957    -2.2288565759
   55      H      -0.1803634024    -0.4470407199     0.7782079911
   56      H       0.3272882865     1.0557186731    -0.0799595810
 ----------------------------------------------------------------

   10   -1510.2639234464      9.12E-09 Convergence criterion met
 Total energy in the final basis set = -1510.26392345
 Final energy is   -1510.26392344642
 **  OPTIMIZATION CONVERGED  **

                    Orbital Energies (a.u.)
 --------------------------------------------------------------

 Alpha MOs
 -- Occupied --
-18.935 -18.930 -18.924 -18.921 -18.903 -18.888 -18.887 -18.879
-18.878 -18.861 -10.114 -10.101 -10.099 -10.094 -10.080 -10.068
-10.063 -10.060 -10.060 -10.060 -10.058 -10.055 -10.043 -10.040
-10.038 -10.036 -10.022 -10.021 -10.020 -10.020  -1.018  -1.014
 -1.008  -1.000  -0.970  -0.970  -0.947  -0.937  -0.936  -0.926
 -0.765  -0.764  -0.727  -0.724  -0.711  -0.706  -0.699  -0.662
 -0.654  -0.616  -0.600  -0.584  -0.548  -0.546  -0.539  -0.538
 -0.515  -0.510  -0.489  -0.472  -0.468  -0.460  -0.454  -0.447
 -0.435  -0.430  -0.428  -0.414  -0.412  -0.407  -0.407  -0.403
 -0.396  -0.384  -0.372  -0.371  -0.365  -0.360  -0.352  -0.346
 -0.342  -0.340  -0.334  -0.332  -0.331  -0.329  -0.328  -0.314
 -0.310  -0.308  -0.306  -0.301  -0.295  -0.289  -0.283  -0.280
 -0.274  -0.253  -0.250  -0.245  -0.239  -0.235  -0.234  -0.183
 -0.178  -0.170  -0.167  -0.162  -0.160  -0.151  -0.146  -0.144
 -0.141

          Ground-State Mulliken Net Atomic Charges

     Atom                 Charge (a.u.)
  ----------------------------------------
      1 O                    -0.205682
      2 C                     0.209902
      3 C                    -0.077123
      4 C                    -0.079470
      5 C                     0.210785
      6 O                    -0.175033
      7 C                    -0.053767
      8 C                    -0.044837
      9 O                    -0.190606
     10 C                     0.224425
     11 C                    -0.078736
     12 C                    -0.081745
     13 C                     0.215936
     14 O                    -0.223126
     15 O                    -0.170677
     16 O                    -0.169785
     17 O                    -0.188149
     18 C                    -0.126868
     19 C                     0.023822
     20 C                    -0.144516
     21 C                    -0.143662
     22 C                     0.026547
     23 O                    -0.186468
     24 H                     0.083236
     25 H                     0.081280
     26 H                     0.089124
     27 H                     0.078630
     28 H                     0.072279
     29 H                     0.078181
     30 H                     0.073180
     31 H                     0.085422
     32 O                    -0.209536
     33 C                    -0.128908
     34 C                     0.024812
     35 C                    -0.144925
     36 C                    -0.143006
     37 C                     0.024978
     38 O                    -0.185673
     39 H                     0.085529
     40 H                     0.084951
     41 H                     0.093089
     42 H                     0.089571
     43 H                     0.078652
     44 H                     0.073008
     45 H                     0.078573
     46 H                     0.072856
     47 H                     0.085963
     48 H                     0.090303
     49 H                     0.089696
     50 H                     0.089141
     51 H                     0.088905
     52 H                     0.087210
     53 H                     0.083843
     54 H                     0.087284
     55 H                     0.107472
     56 H                     0.083710
  ----------------------------------------
  Sum of atomic charges =     0.000000

                    Cartesian Multipole Moments
 -----------------------------------------------------------------
    Charge (ESU x 10^10)
                 0.0000
    Dipole Moment (Debye)
         X       0.2370      Y       1.9388      Z      -2.5304
       Tot       3.1966
    Quadrupole Moments (Debye-Ang)
        XX    -162.5090     XY      10.9829     YY    -150.7909
        XZ      18.2962     YZ      -1.4899     ZZ    -166.7437

 Total job time:  63.54s(wall), 3020.09s(cpu)
        *  Thank you very much for using Q-Chem.  Have a nice day.  *
