 Q-Chem 5.0, Q-Chem, Inc., Pleasanton, CA (2017)
 Q-Chem 5.0.1 for Intel X86 EM64T Linux

User input:
--------------------------------------------------------------
$molecule
0  1
O -5.0940855823 1.7995002509 1.7330482413
C -4.4929225612 1.6014810676 0.6565848812
C -4.8783609334 0.589913282 -0.4827321097
C -3.8070751032 -0.5752545252 -0.6476632686
C -2.4797466384 -0.337778983 0.1508535983
O -1.5102940176 0.2309391781 -0.7466071474
C -0.1401849552 0.0569909346 -0.2114784233
C 0.6992871226 -0.7858293532 -1.2399957541
O 2.0535137632 -0.9438430713 -0.6603102498
C 3.0882527554 -0.5216834273 -1.5796024309
C 3.911180939 0.6994916039 -1.0164030353
C 4.0729924861 0.7743117552 0.5588611535
C 3.2709844943 -0.3107236931 1.360543195
O 2.2769971349 -0.1139511181 2.0933110632
O -3.2700345786 2.2485349326 0.2850135791
O 3.9107160167 -1.5791011436 1.1754105212
O 3.2398393774 -1.0208995288 -2.7136489412
C 3.1164386117 -2.6401479343 1.8325755372
C 5.4246988793 0.6113215185 -1.4759989382
C 6.1120107101 2.0151563444 -1.2502986164
C 6.304618144 2.0133718736 0.3119354561
C 5.6516558914 0.6268664887 0.6959077149
O 6.0290611093 -0.2516526532 -0.4344689678
H 3.4165087658 1.6106168216 -1.404173759
H 3.7335739272 1.7580820714 0.9286861144
H 5.5581010807 0.1648079692 -2.4808870288
H 7.0777182057 2.0620059993 -1.7781453476
H 5.4785154282 2.8462252077 -1.5996765218
H 7.3715005896 2.0242596379 0.586647575
H 5.8035430252 2.8615148524 0.8054564849
H 5.991351633 0.1906897971 1.6549593311
O -2.2396749921 -0.6457232467 1.3383795902
C -2.7912090424 3.1065425233 1.3930146014
C -6.1475686996 -0.2428933972 -0.035589153
C -6.6661573295 -1.0999064896 -1.2561409213
C -5.6108827446 -2.2682833535 -1.2847007225
C -4.6399890449 -1.8228002897 -0.1216333808
O -5.5599485105 -1.2463608289 0.8840982753
H -5.0259734517 1.1368224768 -1.4316423112
H -3.5364176333 -0.6920380192 -1.7117895287
H -2.5197211825 2.4997488747 2.2813681401
H -6.9137314637 0.3571969721 0.4922575601
H -7.6821634813 -1.4771622844 -1.059915781
H -6.6801594313 -0.5187359745 -2.1920703737
H -6.0767061003 -3.2370229445 -1.0431702151
H -5.0938861075 -2.355210545 -2.2537414105
H -4.0287257607 -2.6279569638 0.3299885186
H -3.5547331498 3.852301975 1.6938417457
H -1.892770265 3.6250620044 1.0111267153
H 3.6769555643 -3.5810298489 1.6817879329
H 2.1117159348 -2.7279090191 1.3703787736
H 2.991857401 -2.4495499808 2.9182710367
H 0.2298789604 -1.7861897969 -1.3740919903
H 0.72136472 -0.2817133957 -2.2288565759
H -0.1803634024 -0.4470407199 0.7782079911
H 0.3272882865 1.0557186731 -0.079959581
$end

$rem
JOBTYPE                   OPT
METHOD                    B3LYP
DFT_D                     d3_op
BASIS                     STO-3G
GEOM_OPT_MAX_CYCLES       100
GEOM_OPT_TOL_GRADIENT     300
GEOM_OPT_TOL_DISPLACEMENT 1200
GEOM_OPT_TOL_ENERGY       100
SYMMETRY                  False
THRESH                    12
SCF_CONVERGENCE           8
MAX_SUB_FILE_NUM          128
MEM_STATIC                400
MEM_TOTAL                 4000
$end
--------------------------------------------------------------

   16   -1510.2638391569      5.11E-09 Convergence criterion met
 Total energy in the final basis set = -1510.26383916
   13   -1510.2681887631      8.88E-09 Convergence criterion met
 Total energy in the final basis set = -1510.26818876
   14   -1510.2722846139      3.44E-09 Convergence criterion met
 Total energy in the final basis set = -1510.27228461
   14   -1510.2761946979      5.49E-09 Convergence criterion met
 Total energy in the final basis set = -1510.27619470
   14   -1510.2797530638      6.98E-09 Convergence criterion met
 Total energy in the final basis set = -1510.27975306
   14   -1510.2823690483      7.02E-09 Convergence criterion met
 Total energy in the final basis set = -1510.28236905
   14   -1510.2834822882      3.14E-09 Convergence criterion met
 Total energy in the final basis set = -1510.28348229
   14   -1510.2842446915      6.16E-09 Convergence criterion met
   12   -1510.2894486172      8.18E-09 Convergence criterion met
 Total energy in the final basis set = -1510.28944862
   10   -1510.2894518720      4.73E-09 Convergence criterion met
 Total energy in the final basis set = -1510.28945187
   13   -1510.2893545358      3.27E-09 Convergence criterion met
 Total energy in the final basis set = -1510.28935454
   13   -1510.2894567224      1.70E-09 Convergence criterion met
 Total energy in the final basis set = -1510.28945672
    9   -1510.2894583806      5.91E-09 Convergence criterion met
 Total energy in the final basis set = -1510.28945838
   10   -1510.2894599310      4.06E-09 Convergence criterion met
 Total energy in the final basis set = -1510.28945993

             Standard Nuclear Orientation (Angstroms)
    I     Atom           X                Y                Z
 ----------------------------------------------------------------
    1      O      -4.4439123588     1.9793436005     1.4487661424
    2      C      -4.6186524000     1.7234161672     0.2388605929
    3      C      -5.0509815086     0.3467112237    -0.3927261831
    4      C      -3.8992457535    -0.4264875579    -1.1555885636
    5      C      -2.5095063355     0.2808006148    -1.0305864347
    6      O      -1.5491090544    -0.4626542340    -1.7848801330
    7      C      -0.2080297779     0.1644475034    -1.6826716521
    8      C       0.4783171172    -0.1567007569    -0.3003619003
    9      O       1.7831967268     0.5330479410    -0.1782747647
   10      C       2.8066601256    -0.1958463462    -0.8777571235
   11      C       4.1631031414     0.5661077231    -0.6755718100
   12      C       4.5681164823     0.7610569238     0.8458773856
   13      C       3.5439932599     0.1449406272     1.8565774483
   14      O       3.0473752488     0.6890919410     2.8655281159
   15      O      -4.6064799029     2.7017368207    -0.8123280067
   16      O       3.2711632537    -1.2044993594     1.4524327996
   17      O       2.5992413782    -1.2213835724    -1.5590253104
   18      C       2.2878146963    -1.8232121227     2.3691824823
   19      C       5.3830484704    -0.2866311713    -1.2155219507
   20      C       6.6287086155     0.6709753877    -1.3696966225
   21      C       7.0383729517     0.8770749641     0.1365683946
   22      C       5.9598909153    -0.0136862511     0.8722927192
   23      O       5.7425642701    -1.1409923825    -0.0598014034
   24      H       4.0869386192     1.5438910876    -1.1862514282
   25      H       4.6907829576     1.8281106769     1.1002017035
   26      H       5.1376010738    -0.9121556006    -2.0958364332
   27      H       7.4289563706     0.1754662573    -1.9420880199
   28      H       6.3664822949     1.6155086508    -1.8726470766
   29      H       8.0522616299     0.4950728436     0.3353710478
   30      H       6.9891128862     1.9317708104     0.4508800906
   31      H       6.2589648516    -0.3869635013     1.8710244671
   32      O      -2.2427306881     1.3164313502    -0.3795879377
   33      C      -4.1550269566     4.0032768873    -0.2735211208
   34      C      -5.4367717734    -0.7107098963     0.7253854045
   35      C      -6.3039958534    -1.8437644368     0.0527839688
   36      C      -5.2051292842    -2.6104392385    -0.7736568056
   37      C      -3.9025677135    -1.8109591245    -0.3712471130
   38      O      -4.1555947233    -1.3937133897     1.0252059768
   39      H      -5.8971063357     0.5389072661    -1.0762808562
   40      H      -4.1306566393    -0.5696808479    -2.2264811928
   41      H      -3.1075516417     3.9448016277     0.0874294544
   42      H      -5.8552853582    -0.2609900871     1.6465676031
   43      H      -6.7547272245    -2.4922935782     0.8207478547
   44      H      -7.1063938449    -1.4335975620    -0.5808428524
   45      H      -5.1225380199    -3.6633754832    -0.4605624704
   46      H      -5.3888811247    -2.5785991086    -1.8595387209
   47      H      -2.9550367437    -2.3791531950    -0.4493136414
   48      H      -4.7977067263     4.3459420396     0.5630847074
   49      H      -4.2189695372     4.7229662045    -1.1103484567
   50      H       2.0181068809    -2.7954176699     1.9172102162
   51      H       1.3804953080    -1.1957140716     2.4806721432
   52      H       2.7231660600    -1.9926764971     3.3753513343
   53      H      -0.1499781935     0.2370491197     0.5236685325
   54      H       0.5973878856    -1.2556129009    -0.1941154181
   55      H      -0.2760941008     1.2657524775    -1.8113370015
   56      H       0.3898297370    -0.2744172479    -2.5061289546
 ----------------------------------------------------------------

    9   -1510.2894608333      2.99E-09 Convergence criterion met
 Total energy in the final basis set = -1510.28946083
 Final energy is   -1510.28946083328
 **  OPTIMIZATION CONVERGED  **

                    Orbital Energies (a.u.)
 --------------------------------------------------------------

 Alpha MOs
 -- Occupied --
-18.945 -18.935 -18.933 -18.918 -18.889 -18.888 -18.887 -18.878
-18.874 -18.859 -10.109 -10.103 -10.098 -10.089 -10.076 -10.073
-10.062 -10.062 -10.061 -10.058 -10.057 -10.053 -10.042 -10.039
-10.037 -10.033 -10.021 -10.021 -10.020 -10.019  -1.023  -1.017
 -1.005  -0.997  -0.971  -0.970  -0.947  -0.939  -0.934  -0.923
 -0.765  -0.763  -0.729  -0.723  -0.712  -0.706  -0.697  -0.659
 -0.654  -0.622  -0.598  -0.585  -0.546  -0.546  -0.538  -0.537
 -0.513  -0.511  -0.487  -0.477  -0.467  -0.456  -0.454  -0.444
 -0.435  -0.431  -0.427  -0.415  -0.410  -0.407  -0.402  -0.397
 -0.391  -0.386  -0.371  -0.366  -0.364  -0.357  -0.357  -0.347
 -0.343  -0.342  -0.333  -0.332  -0.331  -0.326  -0.325  -0.315
 -0.310  -0.307  -0.306  -0.303  -0.294  -0.292  -0.277  -0.276
 -0.273  -0.265  -0.251  -0.249  -0.243  -0.235  -0.234  -0.196
 -0.175  -0.172  -0.163  -0.163  -0.158  -0.149  -0.145  -0.144
 -0.140

          Ground-State Mulliken Net Atomic Charges

     Atom                 Charge (a.u.)
  ----------------------------------------
      1 O                    -0.216998
      2 C                     0.215634
      3 C                    -0.081755
      4 C                    -0.077803
      5 C                     0.214513
      6 O                    -0.169702
      7 C                    -0.052328
      8 C                    -0.053178
      9 O                    -0.174740
     10 C                     0.216396
     11 C                    -0.078200
     12 C                    -0.078889
     13 C                     0.212149
     14 O                    -0.210991
     15 O                    -0.176807
     16 O                    -0.169054
     17 O                    -0.213044
     18 C                    -0.128743
     19 C                     0.024805
     20 C                    -0.144026
     21 C                    -0.143823
     22 C                     0.026105
     23 O                    -0.185775
     24 H                     0.084496
     25 H                     0.085924
     26 H                     0.089927
     27 H                     0.078272
     28 H                     0.072925
     29 H                     0.078296
     30 H                     0.074121
     31 H                     0.082994
     32 O                    -0.206681
     33 C                    -0.128562
     34 C                     0.024726
     35 C                    -0.143827
     36 C                    -0.143816
     37 C                     0.024735
     38 O                    -0.190204
     39 H                     0.083712
     40 H                     0.087752
     41 H                     0.091510
     42 H                     0.089701
     43 H                     0.078237
     44 H                     0.073582
     45 H                     0.078308
     46 H                     0.073810
     47 H                     0.084719
     48 H                     0.086890
     49 H                     0.085539
     50 H                     0.091351
     51 H                     0.090804
     52 H                     0.088113
     53 H                     0.097426
     54 H                     0.092482
     55 H                     0.092764
     56 H                     0.096228
  ----------------------------------------
  Sum of atomic charges =    -0.000000

                    Cartesian Multipole Moments
 -----------------------------------------------------------------
    Charge (ESU x 10^10)
                -0.0000
    Dipole Moment (Debye)
         X      -0.0993      Y       0.3351      Z      -2.5276
       Tot       2.5517
    Quadrupole Moments (Debye-Ang)
        XX    -142.0567     XY      12.3944     YY    -157.6059
        XZ       6.1101     YZ      -7.4151     ZZ    -164.2485

 Total job time:  165.42s(wall), 7882.21s(cpu)
        *  Thank you very much for using Q-Chem.  Have a nice day.  *
