 Q-Chem 5.0, Q-Chem, Inc., Pleasanton, CA (2017)
 Q-Chem 5.0.1 for Intel X86 EM64T Linux

User input:
--------------------------------------------------------------
$molecule
0  1
O -3.94934 -3.66094 2.70899
C -3.26408 -4.56952 2.26188
C -3.36658 -6.02376 2.66595
C -2.17509 -6.627 3.42772
C -1.09079 -5.66323 3.85614
O -0.34316 -5.29509 2.77405
C 0.78076 -4.47785 3.11785
C 1.94364 -5.35036 3.57891
O 3.03786 -4.52282 4.00403
C 4.1829 -5.18197 4.30992
C 5.31082 -4.25447 4.69489
C 5.07158 -3.44096 5.97522
C 3.93693 -3.91842 6.85913
O 2.78036 -3.52652 6.80143
O -2.34275 -4.28022 1.30633
O 4.22905 -4.87852 7.78046
O 4.29992 -6.40093 4.26611
C 3.31193 -5.43822 8.64532
C 6.64494 -4.95226 5.03577
C 7.80151 -3.97786 4.81676
C 7.57988 -3.01477 5.96484
C 6.41855 -3.71101 6.68471
O 6.63144 -5.07953 6.43394
H 5.47741 -3.59738 3.81129
H 4.91961 -2.35373 5.7967
H 6.82076 -5.88576 4.45843
H 8.74165 -4.54481 5.00496
H 7.85365 -3.5109 3.80974
H 8.49415 -3.00951 6.59892
H 7.31203 -1.97683 5.67077
H 6.39353 -3.40943 7.75541
O -0.85322 -5.3481 5.01817
C -2.0936 -3.01298 0.82294
C -4.49816 -6.26443 3.68955
C -4.94004 -7.72689 3.65068
C -3.75863 -8.39376 4.31804
C -2.91268 -7.16699 4.67241
O -3.86235 -6.16571 4.93828
H -3.60274 -6.58626 1.73504
H -1.67872 -7.45999 2.88115
H -1.75168 -2.35082 1.64705
H -5.38112 -5.60612 3.53573
H -5.82574 -7.82739 4.3183
H -5.19584 -8.11114 2.63982
H -4.11538 -8.89124 5.24755
H -3.20359 -9.1221 3.68812
H -2.22055 -7.41931 5.50591
H -3.01071 -2.5929 0.35746
H -1.29487 -3.06766 0.05518
H 3.82329 -6.19 9.28071
H 2.50511 -5.94321 8.07209
H 2.87476 -4.65406 9.29967
H 1.62742 -5.98925 4.43251
H 2.24395 -6.00293 2.72776
H 0.51505 -3.70088 3.87149
H 1.11065 -3.93088 2.20914
$end

$opt
CONSTRAINT
tors           1           2           3           4    -112.726
tors           3           4           5           6     -74.459
tors           4           5           6           7    -174.632
tors           5           6           7           8     +82.550
tors           6           7           8           9    -176.305
tors           7           8           9          10    -173.581
tors           8           9          10          11    +177.653
tors           9          10          11          12     +64.071
tors          11          12          13          14     -91.958
ENDCONSTRAINT
$end

$rem
JOBTYPE                   OPT
METHOD                    B3LYP
DFT_D                     d3_op
BASIS                     STO-3G
GEOM_OPT_MAX_CYCLES       100
GEOM_OPT_TOL_GRADIENT     300
GEOM_OPT_TOL_DISPLACEMENT 1200
GEOM_OPT_TOL_ENERGY       100
SYMMETRY                  False
THRESH                    12
SCF_CONVERGENCE           8
MAX_SUB_FILE_NUM          128
MEM_STATIC                400
MEM_TOTAL                 4000
$end
--------------------------------------------------------------

   15   -1510.1540641551      6.24E-09 Convergence criterion met
 Total energy in the final basis set = -1510.15406416
   14   -1510.2226458779      5.29E-09 Convergence criterion met
 Total energy in the final basis set = -1510.22264588
   14   -1510.2587251393      7.26E-09 Convergence criterion met
 Total energy in the final basis set = -1510.25872514
    2   -1510.2587251394      1.55E-09 Convergence criterion met
 Total energy in the final basis set = -1510.25872514
   14   -1510.2732106207      6.62E-09 Convergence criterion met
 Total energy in the final basis set = -1510.27321062
   14   -1510.2765796554      4.19E-09 Convergence criterion met
 Total energy in the final basis set = -1510.27657966
   12   -1510.2775684150      8.62E-09 Convergence criterion met
 Total energy in the final basis set = -1510.27756841
   12   -1510.2780853148      9.50E-09 Convergence criterion met
   11   -1510.2814715746      5.38E-09 Convergence criterion met
 Total energy in the final basis set = -1510.28147157
   11   -1510.2814930180      6.14E-09 Convergence criterion met
 Total energy in the final basis set = -1510.28149302
   11   -1510.2814999129      3.09E-09 Convergence criterion met
 Total energy in the final basis set = -1510.28149991
   10   -1510.2815039576      5.80E-09 Convergence criterion met
 Total energy in the final basis set = -1510.28150396
    9   -1510.2815054629      4.68E-09 Convergence criterion met
 Total energy in the final basis set = -1510.28150546
   10   -1510.2815070733      8.07E-09 Convergence criterion met
 Total energy in the final basis set = -1510.28150707

             Standard Nuclear Orientation (Angstroms)
    I     Atom           X                Y                Z
 ----------------------------------------------------------------
    1      O      -4.8867313553     1.0712723961     2.0383378384
    2      C      -4.5684800022     1.1446192499     0.8316141499
    3      C      -4.8535286345     0.0816616437    -0.2899381070
    4      C      -3.5710766274    -0.6532842860    -0.8862615438
    5      C      -2.1984655498    -0.2295463956    -0.2569577452
    6      O      -1.8365474203     1.0696674389    -0.7454097198
    7      C      -0.4813762065     1.4179782872    -0.2560547902
    8      C       0.6224278389     0.7756804091    -1.1637286248
    9      O       1.9060275591     1.1237686779    -0.5154193885
   10      C       3.0150268353     0.7229481086    -1.3229723665
   11      C       4.3232011479     1.1851752126    -0.5871973277
   12      C       4.5073056330     0.4462720040     0.8113889963
   13      C       3.1736886654    -0.1363962409     1.4052026924
   14      O       2.3980323071     0.4479148381     2.1933816604
   15      O      -3.9596568806     2.2918317994     0.2328603534
   16      O       2.9123293977    -1.4187267840     0.8262159835
   17      O       2.9089352980     0.1391401979    -2.4211205129
   18      C       1.6153668411    -1.9476737475     1.3157734982
   19      C       5.5578547892     0.5922551250    -1.3791025580
   20      C       6.9058978043     1.1124926207    -0.7391400904
   21      C       7.0273485058     0.1855328000     0.5272986234
   22      C       5.6559070243    -0.5934854004     0.4557160637
   23      O       5.4997533117    -0.8403148419    -0.9961198035
   24      H       4.3323263062     2.2845436073    -0.4799197420
   25      H       4.8721524333     1.1771501974     1.5560025168
   26      H       5.4746524778     0.6962563068    -2.4782844580
   27      H       7.7484478030     0.9658719196    -1.4329247415
   28      H       6.8470699791     2.1809009443    -0.4758678429
   29      H       7.8695035852    -0.5180855687     0.4286250760
   30      H       7.1462448615     0.7518396160     1.4649030449
   31      H       5.6131562210    -1.5451325773     1.0192367175
   32      O      -1.4842163525    -0.9077299168     0.5159121523
   33      C      -3.6586256707     3.3050467159     1.2702327919
   34      C      -5.6548338561    -1.1530501571     0.2989308620
   35      C      -6.3031116243    -1.9542005213    -0.8963694792
   36      C      -5.0390255894    -2.6719135016    -1.5010616534
   37      C      -3.9037597100    -2.1618611800    -0.5298149024
   38      O      -4.5837617469    -2.0565901741     0.7814436271
   39      H      -5.4077741431     0.5875317380    -1.1017697822
   40      H      -3.5095056418    -0.4853350882    -1.9769769064
   41      H      -2.8838458236     2.9428971165     1.9769841906
   42      H      -6.3362410035    -0.8877458233     1.1304935173
   43      H      -7.0365084793    -2.6830805189    -0.5162091468
   44      H      -6.8051300122    -1.2923149660    -1.6200205342
   45      H      -5.1307927639    -3.7681300611    -1.4436335989
   46      H      -4.8479889917    -2.3887162128    -2.5485444507
   47      H      -3.0105407008    -2.8110624067    -0.4495906110
   48      H      -4.5632447854     3.5785850826     1.8504614897
   49      H      -3.2787433471     4.1913767669     0.7298664878
   50      H       1.5138878010    -2.9526822271     0.8667533555
   51      H       0.7529547542    -1.3189626902     1.0048376804
   52      H       1.6035047453    -2.0348727084     2.4209914533
   53      H       0.4901553099    -0.3271392885    -1.2118109172
   54      H       0.5708411940     1.1765181277    -2.1991004613
   55      H      -0.3356472882     1.0711930854     0.7891724243
   56      H      -0.4132334180     2.5230614481    -0.2947283227
 ----------------------------------------------------------------

   11   -1510.2815080403      1.70E-09 Convergence criterion met
 Total energy in the final basis set = -1510.28150804
 Final energy is   -1510.28150804033
 **  OPTIMIZATION CONVERGED  **

                    Orbital Energies (a.u.)
 --------------------------------------------------------------

 Alpha MOs
 -- Occupied --
-18.942 -18.936 -18.936 -18.926 -18.887 -18.884 -18.883 -18.879
-18.876 -18.865 -10.106 -10.101 -10.099 -10.093 -10.076 -10.075
-10.065 -10.059 -10.058 -10.057 -10.056 -10.051 -10.042 -10.040
-10.039 -10.033 -10.021 -10.020 -10.019 -10.018  -1.021  -1.016
 -1.011  -1.001  -0.970  -0.967  -0.945  -0.939  -0.936  -0.927
 -0.765  -0.761  -0.729  -0.723  -0.711  -0.704  -0.699  -0.664
 -0.652  -0.619  -0.597  -0.584  -0.547  -0.545  -0.538  -0.535
 -0.513  -0.509  -0.486  -0.469  -0.467  -0.463  -0.456  -0.442
 -0.439  -0.429  -0.429  -0.414  -0.412  -0.405  -0.403  -0.400
 -0.396  -0.383  -0.373  -0.366  -0.365  -0.356  -0.351  -0.348
 -0.344  -0.340  -0.336  -0.333  -0.331  -0.328  -0.327  -0.312
 -0.307  -0.306  -0.305  -0.296  -0.292  -0.286  -0.284  -0.275
 -0.275  -0.261  -0.253  -0.248  -0.245  -0.234  -0.231  -0.189
 -0.180  -0.173  -0.169  -0.163  -0.157  -0.152  -0.146  -0.144
 -0.139

          Ground-State Mulliken Net Atomic Charges

     Atom                 Charge (a.u.)
  ----------------------------------------
      1 O                    -0.210030
      2 C                     0.205937
      3 C                    -0.077829
      4 C                    -0.077828
      5 C                     0.207339
      6 O                    -0.164269
      7 C                    -0.050082
      8 C                    -0.048437
      9 O                    -0.175360
     10 C                     0.213481
     11 C                    -0.077032
     12 C                    -0.080395
     13 C                     0.208631
     14 O                    -0.215442
     15 O                    -0.165636
     16 O                    -0.171216
     17 O                    -0.207008
     18 C                    -0.133134
     19 C                     0.024499
     20 C                    -0.145491
     21 C                    -0.142330
     22 C                     0.024655
     23 O                    -0.186796
     24 H                     0.086142
     25 H                     0.082107
     26 H                     0.088087
     27 H                     0.077948
     28 H                     0.072594
     29 H                     0.077675
     30 H                     0.073081
     31 H                     0.086652
     32 O                    -0.212826
     33 C                    -0.128435
     34 C                     0.024186
     35 C                    -0.144069
     36 C                    -0.144233
     37 C                     0.024689
     38 O                    -0.187137
     39 H                     0.085825
     40 H                     0.086163
     41 H                     0.088179
     42 H                     0.089852
     43 H                     0.078694
     44 H                     0.072992
     45 H                     0.078662
     46 H                     0.072883
     47 H                     0.087865
     48 H                     0.090764
     49 H                     0.090199
     50 H                     0.088603
     51 H                     0.096985
     52 H                     0.087226
     53 H                     0.089111
     54 H                     0.089155
     55 H                     0.102219
     56 H                     0.091934
  ----------------------------------------
  Sum of atomic charges =     0.000000

                    Cartesian Multipole Moments
 -----------------------------------------------------------------
    Charge (ESU x 10^10)
                 0.0000
    Dipole Moment (Debye)
         X      -0.2700      Y       2.1231      Z      -1.5854
       Tot       2.6635
    Quadrupole Moments (Debye-Ang)
        XX    -144.6446     XY       6.1865     YY    -153.4569
        XZ      15.7105     YZ       0.1375     ZZ    -167.7789

 Total job time:  68.08s(wall), 3237.49s(cpu)
        *  Thank you very much for using Q-Chem.  Have a nice day.  *
