 Q-Chem 5.0, Q-Chem, Inc., Pleasanton, CA (2017)
 Q-Chem 5.0.1 for Intel X86 EM64T Linux

User input:
--------------------------------------------------------------
$molecule
0  1
O -4.8867313553 1.0712723961 2.0383378384
C -4.5684800022 1.1446192499 0.8316141499
C -4.8535286345 0.0816616437 -0.289938107
C -3.5710766274 -0.653284286 -0.8862615438
C -2.1984655498 -0.2295463956 -0.2569577452
O -1.8365474203 1.0696674389 -0.7454097198
C -0.4813762065 1.4179782872 -0.2560547902
C 0.6224278389 0.7756804091 -1.1637286248
O 1.9060275591 1.1237686779 -0.5154193885
C 3.0150268353 0.7229481086 -1.3229723665
C 4.3232011479 1.1851752126 -0.5871973277
C 4.507305633 0.446272004 0.8113889963
C 3.1736886654 -0.1363962409 1.4052026924
O 2.3980323071 0.4479148381 2.1933816604
O -3.9596568806 2.2918317994 0.2328603534
O 2.9123293977 -1.418726784 0.8262159835
O 2.908935298 0.1391401979 -2.4211205129
C 1.6153668411 -1.9476737475 1.3157734982
C 5.5578547892 0.592255125 -1.379102558
C 6.9058978043 1.1124926207 -0.7391400904
C 7.0273485058 0.1855328 0.5272986234
C 5.6559070243 -0.5934854004 0.4557160637
O 5.4997533117 -0.8403148419 -0.9961198035
H 4.3323263062 2.2845436073 -0.479919742
H 4.8721524333 1.1771501974 1.5560025168
H 5.4746524778 0.6962563068 -2.478284458
H 7.748447803 0.9658719196 -1.4329247415
H 6.8470699791 2.1809009443 -0.4758678429
H 7.8695035852 -0.5180855687 0.428625076
H 7.1462448615 0.751839616 1.4649030449
H 5.613156221 -1.5451325773 1.0192367175
O -1.4842163525 -0.9077299168 0.5159121523
C -3.6586256707 3.3050467159 1.2702327919
C -5.6548338561 -1.1530501571 0.298930862
C -6.3031116243 -1.9542005213 -0.8963694792
C -5.0390255894 -2.6719135016 -1.5010616534
C -3.90375971 -2.16186118 -0.5298149024
O -4.5837617469 -2.0565901741 0.7814436271
H -5.4077741431 0.587531738 -1.1017697822
H -3.5095056418 -0.4853350882 -1.9769769064
H -2.8838458236 2.9428971165 1.9769841906
H -6.3362410035 -0.8877458233 1.1304935173
H -7.0365084793 -2.6830805189 -0.5162091468
H -6.8051300122 -1.292314966 -1.6200205342
H -5.1307927639 -3.7681300611 -1.4436335989
H -4.8479889917 -2.3887162128 -2.5485444507
H -3.0105407008 -2.8110624067 -0.449590611
H -4.5632447854 3.5785850826 1.8504614897
H -3.2787433471 4.1913767669 0.7298664878
H 1.513887801 -2.9526822271 0.8667533555
H 0.7529547542 -1.3189626902 1.0048376804
H 1.6035047453 -2.0348727084 2.4209914533
H 0.4901553099 -0.3271392885 -1.2118109172
H 0.570841194 1.1765181277 -2.1991004613
H -0.3356472882 1.0711930854 0.7891724243
H -0.413233418 2.5230614481 -0.2947283227
$end

$rem
JOBTYPE                   OPT
METHOD                    B3LYP
DFT_D                     d3_op
BASIS                     STO-3G
GEOM_OPT_MAX_CYCLES       100
GEOM_OPT_TOL_GRADIENT     300
GEOM_OPT_TOL_DISPLACEMENT 1200
GEOM_OPT_TOL_ENERGY       100
SYMMETRY                  False
THRESH                    12
SCF_CONVERGENCE           8
MAX_SUB_FILE_NUM          128
MEM_STATIC                400
MEM_TOTAL                 4000
$end
--------------------------------------------------------------

   16   -1510.2815477918      5.80E-09 Convergence criterion met
 Total energy in the final basis set = -1510.28154779
   15   -1510.2782610645      3.55E-09 Convergence criterion met
 Total energy in the final basis set = -1510.27826106
   14   -1510.2841637121      6.00E-09 Convergence criterion met
 Total energy in the final basis set = -1510.28416371
   13   -1510.2853635687      5.86E-09 Convergence criterion met
 Total energy in the final basis set = -1510.28536357
   14   -1510.2868634347      1.38E-09 Convergence criterion met
 Total energy in the final basis set = -1510.28686343
   13   -1510.2878966759      8.80E-09 Convergence criterion met
 Total energy in the final basis set = -1510.28789668
   13   -1510.2885220872      7.83E-09 Convergence criterion met
 Total energy in the final basis set = -1510.28852209
   13   -1510.2888485517      4.36E-09 Convergence criterion met
   11   -1510.2997587241      5.47E-09 Convergence criterion met
 Total energy in the final basis set = -1510.29975872
   12   -1510.2997579340      3.27E-09 Convergence criterion met
 Total energy in the final basis set = -1510.29975793
   11   -1510.2997571553      6.34E-09 Convergence criterion met
 Total energy in the final basis set = -1510.29975716
   11   -1510.2997624195      4.32E-09 Convergence criterion met
 Total energy in the final basis set = -1510.29976242
   11   -1510.2997575809      3.05E-09 Convergence criterion met
 Total energy in the final basis set = -1510.29975758
   10   -1510.2997605434      8.58E-09 Convergence criterion met
 Total energy in the final basis set = -1510.29976054

             Standard Nuclear Orientation (Angstroms)
    I     Atom           X                Y                Z
 ----------------------------------------------------------------
    1      O      -2.7960954751     0.6108549179     2.4239205728
    2      C      -3.0749089552     0.8522625540     1.2296559298
    3      C      -4.0158210105     0.0224357620     0.2835810858
    4      C      -3.3140828103    -0.4219338293    -1.0729528814
    5      C      -1.8230832195     0.0459569422    -1.1595997338
    6      O      -1.6873825128     1.0220366804    -2.1942803446
    7      C      -0.3009525355     1.5535763746    -2.2067533554
    8      C       0.6923341742     0.6262101566    -3.0115533376
    9      O       2.0654510095     0.8668248918    -2.5046230072
   10      C       2.4198473047    -0.1457566758    -1.5477239802
   11      C       3.7288696357     0.3127345563    -0.8249445303
   12      C       3.4473708793     0.8685838179     0.6432879870
   13      C       1.9201025520     0.8145131991     1.0225043835
   14      O       1.0368992969     1.5762682944     0.5496403676
   15      O      -2.5832040286     1.9649584609     0.4828134828
   16      O       1.6860985629    -0.2165132375     1.9587912891
   17      O       1.7606492828    -1.1892888452    -1.3497728531
   18      C       0.2321638003    -0.3884347703     2.2248334087
   19      C       4.7017490864    -0.8991078513    -0.5000523044
   20      C       6.1232415810    -0.3035077408    -0.1538653739
   21      C       5.8622053714     0.2822833452     1.2830434807
   22      C       4.3470569062    -0.1095702198     1.5055667014
   23      O       4.2116557760    -1.4053410221     0.8011040379
   24      H       4.2156853460     1.0818986688    -1.4498226842
   25      H       3.7786470287     1.9198884119     0.7248041699
   26      H       4.6946319395    -1.7078756045    -1.2563429967
   27      H       6.8799453577    -1.1039729713    -0.1327545466
   28      H       6.4408995639     0.4651800391    -0.8764825092
   29      H       6.4999303295    -0.2019034879     2.0393816274
   30      H       6.0192122713     1.3715543355     1.3338230654
   31      H       4.0307187713    -0.2079944553     2.5611513760
   32      O      -0.8626457939    -0.3663660727    -0.4696973157
   33      C      -1.5870910319     2.7335786760     1.2708471124
   34      C      -4.3675734121    -1.3829623285     0.9218913025
   35      C      -5.5962400568    -1.9938829057     0.1427140452
   36      C      -4.9118231609    -2.4307020657    -1.2065172430
   37      C      -3.4140646267    -2.0033914758    -0.9434589050
   38      O      -3.2303959019    -2.2381549812     0.5062085765
   39      H      -4.9215838663     0.6208520748     0.0740370230
   40      H      -3.8567045194    -0.0367881491    -1.9536420201
   41      H      -0.5722751414     2.2899640652     1.1227693196
   42      H      -4.4518317694    -1.3631827296     2.0259028054
   43      H      -6.0068762251    -2.8598207026     0.6858480476
   44      H      -6.4001098134    -1.2558522509    -0.0074607315
   45      H      -4.9796661147    -3.5193862014    -1.3606215959
   46      H      -5.3394918063    -1.9217732320    -2.0851652444
   47      H      -2.6530699311    -2.5600556447    -1.5239878852
   48      H      -1.8500792773     2.7313529984     2.3465936239
   49      H      -1.6077827330     3.7662018272     0.8771293522
   50      H       0.1489132401    -1.3177940846     2.8160246487
   51      H      -0.3298529663    -0.4829090853     1.2657536388
   52      H      -0.1716693188     0.4590581927     2.8139888464
   53      H       0.4275379859    -0.4407956295    -2.8467058531
   54      H       0.6873665487     0.8600474918    -4.0944491988
   55      H       0.0975418103     1.6480948626    -1.1673667014
   56      H      -0.3693029564     2.5538785085    -2.6767507039
 ----------------------------------------------------------------

    9   -1510.2997604205      5.52E-09 Convergence criterion met
 Total energy in the final basis set = -1510.29976042
 Final energy is   -1510.29976042053
 **  OPTIMIZATION CONVERGED  **

                    Orbital Energies (a.u.)
 --------------------------------------------------------------

 Alpha MOs
 -- Occupied --
-18.940 -18.933 -18.928 -18.927 -18.885 -18.885 -18.877 -18.876
-18.874 -18.871 -10.106 -10.101 -10.096 -10.095 -10.062 -10.058
-10.058 -10.057 -10.056 -10.055 -10.039 -10.039 -10.037 -10.037
-10.036 -10.035 -10.019 -10.019 -10.018 -10.018  -1.015  -1.011
 -1.007  -1.003  -0.968  -0.967  -0.936  -0.936  -0.931  -0.931
 -0.763  -0.761  -0.724  -0.721  -0.709  -0.704  -0.691  -0.652
 -0.648  -0.615  -0.594  -0.577  -0.545  -0.543  -0.535  -0.534
 -0.511  -0.505  -0.478  -0.473  -0.462  -0.458  -0.450  -0.444
 -0.434  -0.430  -0.426  -0.422  -0.410  -0.404  -0.398  -0.392
 -0.382  -0.375  -0.370  -0.362  -0.358  -0.356  -0.353  -0.349
 -0.343  -0.338  -0.330  -0.329  -0.327  -0.322  -0.316  -0.309
 -0.307  -0.304  -0.302  -0.298  -0.286  -0.284  -0.283  -0.276
 -0.269  -0.259  -0.246  -0.241  -0.238  -0.232  -0.230  -0.187
 -0.175  -0.171  -0.161  -0.159  -0.154  -0.149  -0.148  -0.141
 -0.141

          Ground-State Mulliken Net Atomic Charges

     Atom                 Charge (a.u.)
  ----------------------------------------
      1 O                    -0.214671
      2 C                     0.209907
      3 C                    -0.078258
      4 C                    -0.078827
      5 C                     0.218411
      6 O                    -0.168014
      7 C                    -0.061488
      8 C                    -0.057643
      9 O                    -0.174099
     10 C                     0.206399
     11 C                    -0.078876
     12 C                    -0.077084
     13 C                     0.221122
     14 O                    -0.226609
     15 O                    -0.174470
     16 O                    -0.158374
     17 O                    -0.202352
     18 C                    -0.144126
     19 C                     0.025977
     20 C                    -0.143754
     21 C                    -0.144655
     22 C                     0.025557
     23 O                    -0.183794
     24 H                     0.086176
     25 H                     0.084094
     26 H                     0.084994
     27 H                     0.078000
     28 H                     0.072961
     29 H                     0.077987
     30 H                     0.072354
     31 H                     0.090902
     32 O                    -0.216581
     33 C                    -0.149966
     34 C                     0.023598
     35 C                    -0.143969
     36 C                    -0.143920
     37 C                     0.025430
     38 O                    -0.186919
     39 H                     0.084707
     40 H                     0.086497
     41 H                     0.111071
     42 H                     0.090082
     43 H                     0.078171
     44 H                     0.072891
     45 H                     0.078225
     46 H                     0.073208
     47 H                     0.084831
     48 H                     0.085887
     49 H                     0.081570
     50 H                     0.090515
     51 H                     0.122009
     52 H                     0.084021
     53 H                     0.099499
     54 H                     0.083999
     55 H                     0.112503
     56 H                     0.084893
  ----------------------------------------
  Sum of atomic charges =    -0.000000

                    Cartesian Multipole Moments
 -----------------------------------------------------------------
    Charge (ESU x 10^10)
                 0.0000
    Dipole Moment (Debye)
         X       0.0068      Y       2.0368      Z      -1.5943
       Tot       2.5865
    Quadrupole Moments (Debye-Ang)
        XX    -136.6902     XY       7.6345     YY    -162.5049
        XZ       3.1546     YZ       4.8395     ZZ    -157.1069

 Total job time:  195.92s(wall), 9328.71s(cpu)
        *  Thank you very much for using Q-Chem.  Have a nice day.  *
