 Q-Chem 5.0, Q-Chem, Inc., Pleasanton, CA (2017)
 Q-Chem 5.0.1 for Intel X86 EM64T Linux

User input:
--------------------------------------------------------------
$molecule
0  1
O -3.94934 -3.66094 2.70899
C -3.26408 -4.56952 2.26188
C -3.36658 -6.02376 2.66595
C -2.63709 -6.4491 3.95078
C -2.03486 -5.33906 4.78336
O -0.67575 -5.34286 4.64835
C -0.022 -4.40162 5.50622
C 0.27844 -5.04229 6.8573
O 0.85562 -4.06968 7.74261
C 1.18446 -4.52675 8.97635
C 2.01331 -3.54247 9.76682
C 1.28998 -2.24043 10.1407
C -0.21828 -2.2568 9.99379
O -0.85576 -1.63361 9.15723
O -2.42356 -4.30175 1.22815
O -0.89292 -3.14201 10.77751
O 0.89175 -5.64239 9.38959
C -2.25599 -3.34584 10.73067
C 2.45514 -4.01353 11.17227
C 3.71238 -3.25198 11.59295
C 3.1415 -1.86604 11.82713
C 1.64698 -2.14835 11.63287
O 1.49487 -3.48376 12.0541
H 2.93012 -3.3567 9.16213
H 1.66231 -1.3885 9.52949
H 2.63335 -5.10862 11.23928
H 4.02926 -3.6746 12.57364
H 4.56775 -3.29898 10.88519
H 3.36003 -1.56917 12.8768
H 3.49723 -1.08107 11.12494
H 1.02697 -1.39297 12.16433
O -2.69005 -4.46581 5.34191
C -2.22644 -3.04666 0.69155
C -4.80909 -6.43169 3.02473
C -4.97814 -7.9449 2.8854
C -4.20018 -8.42939 4.09187
C -3.80118 -7.09191 4.72308
O -4.88303 -6.24388 4.41792
H -3.02071 -6.62474 1.79383
H -1.83466 -7.1878 3.72054
H -1.82989 -2.35747 1.46764
H -5.57454 -5.90245 2.41558
H -6.05548 -8.17777 3.04391
H -4.65139 -8.36265 1.90888
H -4.89961 -8.97244 4.76595
H -3.32007 -9.06929 3.86534
H -3.56969 -7.22456 5.80322
H -3.18148 -2.64821 0.28723
H -1.48984 -3.11594 -0.13495
H -2.53356 -4.11892 11.47609
H -2.5551 -3.69915 9.72058
H -2.79211 -2.40386 10.9746
H -0.67779 -5.40655 7.29575
H 0.96696 -5.90447 6.70899
H -0.59007 -3.45052 5.62238
H 0.9464 -4.11787 5.0424
$end

$opt
CONSTRAINT
tors           1           2           3           4     -82.192
tors           3           4           5           6    -106.481
tors           4           5           6           7    -174.378
tors           5           6           7           8     +88.277
tors           6           7           8           9    -176.305
tors           7           8           9          10    -179.165
tors           8           9          10          11    +169.296
tors           9          10          11          12     +65.773
tors          11          12          13          14    -110.636
ENDCONSTRAINT
$end

$rem
JOBTYPE                   OPT
METHOD                    B3LYP
DFT_D                     d3_op
BASIS                     STO-3G
GEOM_OPT_MAX_CYCLES       100
GEOM_OPT_TOL_GRADIENT     300
GEOM_OPT_TOL_DISPLACEMENT 1200
GEOM_OPT_TOL_ENERGY       100
SYMMETRY                  False
THRESH                    12
SCF_CONVERGENCE           8
MAX_SUB_FILE_NUM          128
MEM_STATIC                400
MEM_TOTAL                 4000
$end
--------------------------------------------------------------

   15   -1510.1527851045      5.45E-09 Convergence criterion met
 Total energy in the final basis set = -1510.15278510
   13   -1510.2214386051      9.09E-09 Convergence criterion met
 Total energy in the final basis set = -1510.22143861
   14   -1510.2578560396      8.83E-09 Convergence criterion met
 Total energy in the final basis set = -1510.25785604
   14   -1510.2730558995      8.18E-09 Convergence criterion met
 Total energy in the final basis set = -1510.27305590
   13   -1510.2774351827      8.13E-09 Convergence criterion met
 Total energy in the final basis set = -1510.27743518
   13   -1510.2789371550      4.79E-09 Convergence criterion met
 Total energy in the final basis set = -1510.27893715
   14   -1510.2799457198      3.91E-09 Convergence criterion met
 Total energy in the final basis set = -1510.27994572
   13   -1510.2806567378      4.55E-09 Convergence criterion met
   11   -1510.2826123468      8.33E-09 Convergence criterion met
 Total energy in the final basis set = -1510.28261235
   11   -1510.2826428194      3.15E-09 Convergence criterion met
 Total energy in the final basis set = -1510.28264282
   10   -1510.2826650310      8.38E-09 Convergence criterion met
 Total energy in the final basis set = -1510.28266503
    9   -1510.2826682822      9.77E-09 Convergence criterion met
 Total energy in the final basis set = -1510.28266828
    9   -1510.2826695373      3.05E-09 Convergence criterion met
 Total energy in the final basis set = -1510.28266954
    9   -1510.2826706682      5.20E-09 Convergence criterion met
 Total energy in the final basis set = -1510.28267067

             Standard Nuclear Orientation (Angstroms)
    I     Atom           X                Y                Z
 ----------------------------------------------------------------
    1      O      -4.2591638055     1.1187020980     1.9421060965
    2      C      -4.6163719099     1.1291458803     0.7451174087
    3      C      -4.9589050977    -0.0949059689    -0.1729964394
    4      C      -3.6703295834    -0.7867031651    -0.8050143490
    5      C      -2.3227585292    -0.1189872791    -0.3728874206
    6      O      -1.8064852949     0.6264339438    -1.4904034538
    7      C      -0.4645858555     1.1562763371    -1.1498791404
    8      C       0.6431900920     0.1099324482    -1.5150223918
    9      O       1.9191754936     0.7019235658    -1.0523001788
   10      C       3.0152969360    -0.1717282826    -1.3561225870
   11      C       4.3453498453     0.6212850629    -1.0979203875
   12      C       4.5394808179     0.9768901830     0.4402244406
   13      C       3.2321765604     0.7893804701     1.2858798120
   14      O       2.5398760410     1.6918680524     1.8043525439
   15      O      -4.7392598481     2.3192513672    -0.0457455493
   16      O       2.9004430080    -0.6036964831     1.3216700055
   17      O       2.8857874519    -1.3228315217    -1.8206154625
   18      C       1.6052265192    -0.8036844705     2.0147120290
   19      C       5.5703259909    -0.3523722516    -1.3289398524
   20      C       6.9173696769     0.4699676999    -1.2566960574
   21      C       7.0730556319     0.6708961664     0.2973237013
   22      C       5.7402756517     0.0034607096     0.8198172800
   23      O       5.5713914390    -1.1560938342    -0.0832243937
   24      H       4.3660199669     1.5234346646    -1.7351974247
   25      H       4.8411626567     2.0330987325     0.5545179327
   26      H       5.4545857488    -1.0136824615    -2.2093648021
   27      H       7.7513350243    -0.1149594303    -1.6756083322
   28      H       6.8467177328     1.4241043265    -1.8032725131
   29      H       7.9493460902     0.1279890823     0.6861940083
   30      H       7.1553494758     1.7305144158     0.5871246379
   31      H       5.7540900766    -0.3261625413     1.8766364447
   32      O      -1.7338616464    -0.2211565226     0.7255755099
   33      C      -4.3600768371     3.5031235776     0.7598287792
   34      C      -5.5617283365    -1.3029229003     0.6633369923
   35      C      -6.2317677010    -2.3198487029    -0.3419223402
   36      C      -4.9626167699    -2.9972957121    -0.9799705855
   37      C      -3.8005803738    -2.2537522674    -0.2099895396
   38      O      -4.3609878927    -2.0265842320     1.1398422322
   39      H      -5.6439742454     0.2480714549    -0.9683646132
   40      H      -3.7199680475    -0.7751196416    -1.9080587943
   41      H      -3.3250984499     3.4169450615     1.1491942928
   42      H      -6.1902805678    -0.9953064893     1.5211931234
   43      H      -6.8465914670    -3.0512945901     0.2063728656
   44      H      -6.8665723167    -1.8135649672    -1.0865529604
   45      H      -4.9323559699    -4.0783731799    -0.7708190433
   46      H      -4.9012751878    -2.8461771597    -2.0695816450
   47      H      -2.8441882359    -2.8074920045    -0.1433039814
   48      H      -5.0464634476     3.6501276300     1.6187290678
   49      H      -4.4296324597     4.3711078518     0.0787548393
   50      H       1.4322283197    -1.8953924256     2.0224999078
   51      H       0.7679036553    -0.3024669134     1.4850930526
   52      H       1.6372467906    -0.4265520587     3.0569951686
   53      H       0.4426909503    -0.8566635059    -1.0029075960
   54      H       0.6638954428    -0.0782205035    -2.6103853244
   55      H      -0.4013613955     1.3891824896    -0.0656338758
   56      H      -0.3280815513     2.0827125808    -1.7424913753
 ----------------------------------------------------------------

    9   -1510.2826705185      4.58E-09 Convergence criterion met
 Total energy in the final basis set = -1510.28267052
 Final energy is   -1510.28267051855
 **  OPTIMIZATION CONVERGED  **

                    Orbital Energies (a.u.)
 --------------------------------------------------------------

 Alpha MOs
 -- Occupied --
-18.938 -18.933 -18.932 -18.927 -18.890 -18.885 -18.883 -18.877
-18.876 -18.868 -10.103 -10.100 -10.097 -10.093 -10.075 -10.074
-10.064 -10.063 -10.061 -10.058 -10.056 -10.053 -10.042 -10.039
-10.038 -10.034 -10.022 -10.021 -10.019 -10.018  -1.019  -1.014
 -1.009  -1.001  -0.972  -0.967  -0.943  -0.937  -0.935  -0.929
 -0.766  -0.762  -0.729  -0.723  -0.712  -0.704  -0.699  -0.663
 -0.652  -0.618  -0.597  -0.582  -0.549  -0.545  -0.539  -0.536
 -0.514  -0.509  -0.485  -0.469  -0.466  -0.463  -0.454  -0.442
 -0.438  -0.431  -0.428  -0.413  -0.412  -0.405  -0.404  -0.400
 -0.394  -0.380  -0.372  -0.364  -0.364  -0.358  -0.353  -0.348
 -0.346  -0.340  -0.336  -0.333  -0.330  -0.329  -0.326  -0.311
 -0.308  -0.306  -0.305  -0.300  -0.291  -0.288  -0.281  -0.276
 -0.273  -0.259  -0.253  -0.251  -0.246  -0.235  -0.231  -0.183
 -0.178  -0.177  -0.170  -0.162  -0.155  -0.149  -0.146  -0.145
 -0.140

          Ground-State Mulliken Net Atomic Charges

     Atom                 Charge (a.u.)
  ----------------------------------------
      1 O                    -0.204329
      2 C                     0.204122
      3 C                    -0.078407
      4 C                    -0.078513
      5 C                     0.204125
      6 O                    -0.170954
      7 C                    -0.051886
      8 C                    -0.048317
      9 O                    -0.178808
     10 C                     0.215508
     11 C                    -0.077805
     12 C                    -0.080148
     13 C                     0.209547
     14 O                    -0.213408
     15 O                    -0.171160
     16 O                    -0.169907
     17 O                    -0.207632
     18 C                    -0.130240
     19 C                     0.024930
     20 C                    -0.145107
     21 C                    -0.142884
     22 C                     0.025859
     23 O                    -0.185561
     24 H                     0.085159
     25 H                     0.083129
     26 H                     0.088578
     27 H                     0.077984
     28 H                     0.072614
     29 H                     0.077824
     30 H                     0.073449
     31 H                     0.084452
     32 O                    -0.207025
     33 C                    -0.129390
     34 C                     0.026274
     35 C                    -0.143969
     36 C                    -0.143908
     37 C                     0.026588
     38 O                    -0.182730
     39 H                     0.086526
     40 H                     0.087293
     41 H                     0.090353
     42 H                     0.086517
     43 H                     0.078766
     44 H                     0.073737
     45 H                     0.078979
     46 H                     0.073790
     47 H                     0.084758
     48 H                     0.088609
     49 H                     0.090056
     50 H                     0.091232
     51 H                     0.094151
     52 H                     0.088892
     53 H                     0.089331
     54 H                     0.086290
     55 H                     0.101613
     56 H                     0.091054
  ----------------------------------------
  Sum of atomic charges =     0.000000

                    Cartesian Multipole Moments
 -----------------------------------------------------------------
    Charge (ESU x 10^10)
                 0.0000
    Dipole Moment (Debye)
         X      -0.8135      Y       1.6276      Z      -2.8047
       Tot       3.3432
    Quadrupole Moments (Debye-Ang)
        XX    -138.4843     XY       9.1381     YY    -158.2669
        XZ       5.6810     YZ      -1.1407     ZZ    -162.7306

 Total job time:  56.48s(wall), 2686.24s(cpu)
        *  Thank you very much for using Q-Chem.  Have a nice day.  *
