 Q-Chem 5.0, Q-Chem, Inc., Pleasanton, CA (2017)
 Q-Chem 5.0.1 for Intel X86 EM64T Linux

User input:
--------------------------------------------------------------
$molecule
0  1
O -4.2591638055 1.118702098 1.9421060965
C -4.6163719099 1.1291458803 0.7451174087
C -4.9589050977 -0.0949059689 -0.1729964394
C -3.6703295834 -0.7867031651 -0.805014349
C -2.3227585292 -0.1189872791 -0.3728874206
O -1.8064852949 0.6264339438 -1.4904034538
C -0.4645858555 1.1562763371 -1.1498791404
C 0.643190092 0.1099324482 -1.5150223918
O 1.9191754936 0.7019235658 -1.0523001788
C 3.015296936 -0.1717282826 -1.356122587
C 4.3453498453 0.6212850629 -1.0979203875
C 4.5394808179 0.976890183 0.4402244406
C 3.2321765604 0.7893804701 1.285879812
O 2.539876041 1.6918680524 1.8043525439
O -4.7392598481 2.3192513672 -0.0457455493
O 2.900443008 -0.6036964831 1.3216700055
O 2.8857874519 -1.3228315217 -1.8206154625
C 1.6052265192 -0.8036844705 2.014712029
C 5.5703259909 -0.3523722516 -1.3289398524
C 6.9173696769 0.4699676999 -1.2566960574
C 7.0730556319 0.6708961664 0.2973237013
C 5.7402756517 0.0034607096 0.81981728
O 5.571391439 -1.1560938342 -0.0832243937
H 4.3660199669 1.5234346646 -1.7351974247
H 4.8411626567 2.0330987325 0.5545179327
H 5.4545857488 -1.0136824615 -2.2093648021
H 7.7513350243 -0.1149594303 -1.6756083322
H 6.8467177328 1.4241043265 -1.8032725131
H 7.9493460902 0.1279890823 0.6861940083
H 7.1553494758 1.7305144158 0.5871246379
H 5.7540900766 -0.3261625413 1.8766364447
O -1.7338616464 -0.2211565226 0.7255755099
C -4.3600768371 3.5031235776 0.7598287792
C -5.5617283365 -1.3029229003 0.6633369923
C -6.231767701 -2.3198487029 -0.3419223402
C -4.9626167699 -2.9972957121 -0.9799705855
C -3.8005803738 -2.2537522674 -0.2099895396
O -4.3609878927 -2.026584232 1.1398422322
H -5.6439742454 0.2480714549 -0.9683646132
H -3.7199680475 -0.7751196416 -1.9080587943
H -3.3250984499 3.4169450615 1.1491942928
H -6.1902805678 -0.9953064893 1.5211931234
H -6.846591467 -3.0512945901 0.2063728656
H -6.8665723167 -1.8135649672 -1.0865529604
H -4.9323559699 -4.0783731799 -0.7708190433
H -4.9012751878 -2.8461771597 -2.069581645
H -2.8441882359 -2.8074920045 -0.1433039814
H -5.0464634476 3.65012763 1.6187290678
H -4.4296324597 4.3711078518 0.0787548393
H 1.4322283197 -1.8953924256 2.0224999078
H 0.7679036553 -0.3024669134 1.4850930526
H 1.6372467906 -0.4265520587 3.0569951686
H 0.4426909503 -0.8566635059 -1.002907596
H 0.6638954428 -0.0782205035 -2.6103853244
H -0.4013613955 1.3891824896 -0.0656338758
H -0.3280815513 2.0827125808 -1.7424913753
$end

$rem
JOBTYPE                   OPT
METHOD                    B3LYP
DFT_D                     d3_op
BASIS                     STO-3G
GEOM_OPT_MAX_CYCLES       100
GEOM_OPT_TOL_GRADIENT     300
GEOM_OPT_TOL_DISPLACEMENT 1200
GEOM_OPT_TOL_ENERGY       100
SYMMETRY                  False
THRESH                    12
SCF_CONVERGENCE           8
MAX_SUB_FILE_NUM          128
MEM_STATIC                400
MEM_TOTAL                 4000
$end
--------------------------------------------------------------

   16   -1510.2827617481      5.60E-09 Convergence criterion met
 Total energy in the final basis set = -1510.28276175
   14   -1510.2832652587      3.41E-09 Convergence criterion met
 Total energy in the final basis set = -1510.28326526
   14   -1510.2867581121      3.85E-09 Convergence criterion met
 Total energy in the final basis set = -1510.28675811
   13   -1510.2875842561      6.68E-09 Convergence criterion met
 Total energy in the final basis set = -1510.28758426
   14   -1510.2882933467      4.94E-09 Convergence criterion met
 Total energy in the final basis set = -1510.28829335
   13   -1510.2891226372      5.35E-09 Convergence criterion met
 Total energy in the final basis set = -1510.28912264
   14   -1510.2896750760      3.50E-09 Convergence criterion met
 Total energy in the final basis set = -1510.28967508
   13   -1510.2906004173      9.98E-09 Convergence criterion met
   10   -1510.2998116798      7.99E-09 Convergence criterion met
 Total energy in the final basis set = -1510.29981168
   11   -1510.2998177424      3.78E-09 Convergence criterion met
 Total energy in the final basis set = -1510.29981774
   11   -1510.2998208601      1.73E-09 Convergence criterion met
 Total energy in the final basis set = -1510.29982086
    9   -1510.2998235166      9.13E-09 Convergence criterion met
 Total energy in the final basis set = -1510.29982352
    9   -1510.2998253382      7.68E-09 Convergence criterion met
 Total energy in the final basis set = -1510.29982534
    9   -1510.2998277987      6.32E-09 Convergence criterion met
 Total energy in the final basis set = -1510.29982780

             Standard Nuclear Orientation (Angstroms)
    I     Atom           X                Y                Z
 ----------------------------------------------------------------
    1      O      -2.8709644297     1.6221895279     1.9172199166
    2      C      -3.1223349786     1.2897420610     0.7388704882
    3      C      -4.0282790237     0.0999840558     0.2550610207
    4      C      -3.3017013961    -0.8698981800    -0.7741254147
    5      C      -1.8273056642    -0.4427473281    -1.0777784860
    6      O      -1.7290403967    -0.0113608592    -2.4366506923
    7      C      -0.3587620227     0.4909861018    -2.7083918781
    8      C       0.6450873859    -0.6735800641    -3.0711760320
    9      O       2.0157203269    -0.2416243058    -2.7039733391
   10      C       2.3655324759    -0.7625156710    -1.4107723145
   11      C       3.6817895399    -0.0540172995    -0.9501955883
   12      C       3.4185260356     1.0997747485     0.1192879692
   13      C       1.8948962456     1.2315799007     0.4969583526
   14      O       1.0076761980     1.7115356676    -0.2555682907
   15      O      -2.6262009291     1.9541356527    -0.4234711466
   16      O       1.6709357167     0.7237532537     1.7958240699
   17      O       1.7026405878    -1.6253059105    -0.7955709761
   18      C       0.2204543479     0.6969618520     2.1260636350
   19      C       4.6325554560    -1.0166834820    -0.1189278951
   20      C       6.0702785776    -0.3649511921    -0.0775197367
   21      C       5.8362598884     0.8128486605     0.9395243325
   22      C       4.3181863298     0.5959804372     1.3213620539
   23      O       4.1490376474    -0.8749639813     1.2729481976
   24      H       4.1845918264     0.3517449501    -1.8455741506
   25      H       3.7536161433     2.0754813910    -0.2774333746
   26      H       4.5975780006    -2.0777184100    -0.4333558346
   27      H       6.8081643045    -1.0883962283     0.3044632254
   28      H       6.3982695553    -0.0143702848    -1.0692229030
   29      H       6.4748452081     0.7107807191     1.8312229071
   30      H       6.0140643835     1.8033359129     0.4907393996
   31      H       4.0168632983     0.9878248489     2.3111212491
   32      O      -0.8504177497    -0.4906731501    -0.2956162286
   33      C      -1.6514643255     3.0126260379    -0.0574108509
   34      C      -4.3431288273    -0.8959604869     1.4445776318
   35      C      -5.5410295628    -1.8289741194     1.0154163868
   36      C      -4.8246746957    -2.7917626864    -0.0038533264
   37      C      -3.3460209037    -2.2368795870     0.0376235790
   38      O      -3.1725050547    -1.8046327700     1.4423025452
   39      H      -4.9500715353     0.5187007986    -0.1893678748
   40      H      -3.8522769123    -0.9307906374    -1.7289494534
   41      H      -0.6217562392     2.5789392791    -0.0455971846
   42      H      -4.4423279580    -0.3974279591     2.4284246545
   43      H      -5.9316504590    -2.3808033187     1.8850237145
   44      H      -6.3660419693    -1.2607726354     0.5569891096
   45      H      -4.8522555352    -3.8378705515     0.3407019642
   46      H      -5.2577647826    -2.7416863706    -1.0156355944
   47      H      -2.5584745104    -2.9628724559    -0.2431036538
   48      H      -1.8952677169     3.4386567252     0.9351519916
   49      H      -1.7245295448     3.7935584814    -0.8363980704
   50      H       0.1434080454     0.1313772504     3.0717037489
   51      H      -0.3502444758     0.1847249007     1.3155321888
   52      H      -0.1753458377     1.7210092322     2.2773302323
   53      H       0.3851443659    -1.5866541022    -2.4928201641
   54      H       0.6438373270    -0.8948355115    -4.1566736616
   55      H       0.0546077902     1.0213509341    -1.8166549457
   56      H      -0.4614874338     1.1979062706    -3.5545082241
 ----------------------------------------------------------------

    9   -1510.2998284089      5.61E-09 Convergence criterion met
 Total energy in the final basis set = -1510.29982841
 Final energy is   -1510.29982840890
 **  OPTIMIZATION CONVERGED  **

                    Orbital Energies (a.u.)
 --------------------------------------------------------------

 Alpha MOs
 -- Occupied --
-18.940 -18.932 -18.928 -18.927 -18.885 -18.885 -18.877 -18.876
-18.874 -18.872 -10.106 -10.100 -10.096 -10.096 -10.062 -10.058
-10.058 -10.057 -10.056 -10.055 -10.038 -10.038 -10.037 -10.036
-10.036 -10.035 -10.019 -10.019 -10.018 -10.018  -1.015  -1.011
 -1.007  -1.003  -0.968  -0.967  -0.936  -0.936  -0.932  -0.931
 -0.762  -0.761  -0.724  -0.721  -0.709  -0.703  -0.690  -0.652
 -0.648  -0.615  -0.594  -0.577  -0.544  -0.543  -0.535  -0.534
 -0.510  -0.505  -0.478  -0.473  -0.462  -0.458  -0.450  -0.443
 -0.434  -0.430  -0.426  -0.422  -0.410  -0.404  -0.398  -0.392
 -0.382  -0.375  -0.370  -0.362  -0.358  -0.356  -0.353  -0.348
 -0.343  -0.338  -0.330  -0.329  -0.327  -0.322  -0.316  -0.309
 -0.307  -0.304  -0.302  -0.297  -0.286  -0.284  -0.283  -0.275
 -0.269  -0.259  -0.246  -0.241  -0.238  -0.232  -0.230  -0.187
 -0.175  -0.171  -0.160  -0.159  -0.154  -0.149  -0.148  -0.142
 -0.140

          Ground-State Mulliken Net Atomic Charges

     Atom                 Charge (a.u.)
  ----------------------------------------
      1 O                    -0.214458
      2 C                     0.210216
      3 C                    -0.078122
      4 C                    -0.079005
      5 C                     0.218907
      6 O                    -0.168305
      7 C                    -0.061880
      8 C                    -0.057306
      9 O                    -0.174077
     10 C                     0.206469
     11 C                    -0.078937
     12 C                    -0.076920
     13 C                     0.221322
     14 O                    -0.226292
     15 O                    -0.174257
     16 O                    -0.158370
     17 O                    -0.202314
     18 C                    -0.143823
     19 C                     0.025690
     20 C                    -0.143659
     21 C                    -0.144728
     22 C                     0.025530
     23 O                    -0.183830
     24 H                     0.085978
     25 H                     0.084126
     26 H                     0.085128
     27 H                     0.077983
     28 H                     0.072903
     29 H                     0.077955
     30 H                     0.072342
     31 H                     0.090765
     32 O                    -0.216894
     33 C                    -0.150588
     34 C                     0.023682
     35 C                    -0.144087
     36 C                    -0.143872
     37 C                     0.025390
     38 O                    -0.187152
     39 H                     0.084827
     40 H                     0.086416
     41 H                     0.110994
     42 H                     0.090034
     43 H                     0.078201
     44 H                     0.072928
     45 H                     0.078184
     46 H                     0.073201
     47 H                     0.085179
     48 H                     0.087064
     49 H                     0.081405
     50 H                     0.090653
     51 H                     0.121718
     52 H                     0.083143
     53 H                     0.098708
     54 H                     0.084140
     55 H                     0.112921
     56 H                     0.084770
  ----------------------------------------
  Sum of atomic charges =    -0.000000

                    Cartesian Multipole Moments
 -----------------------------------------------------------------
    Charge (ESU x 10^10)
                 0.0000
    Dipole Moment (Debye)
         X       0.0156      Y       1.0617      Z      -2.3207
       Tot       2.5521
    Quadrupole Moments (Debye-Ang)
        XX    -137.0064     XY       8.3079     YY    -157.4556
        XZ      -0.5444     YZ       4.8104     ZZ    -161.7269

 Total job time:  166.12s(wall), 7926.88s(cpu)
        *  Thank you very much for using Q-Chem.  Have a nice day.  *
