 Q-Chem 5.0, Q-Chem, Inc., Pleasanton, CA (2017)
 Q-Chem 5.0.1 for Intel X86 EM64T Linux

User input:
--------------------------------------------------------------
$molecule
0  1
O -3.94934 -3.66094 2.70899
C -3.26408 -4.56952 2.26188
C -3.36658 -6.02376 2.66595
C -2.57692 -6.4649 3.9092
C -1.9155 -5.36712 4.71264
O -0.60542 -5.24822 4.34526
C 0.09241 -4.22975 5.06983
C 0.77067 -4.82902 6.29742
O 1.46025 -3.80127 7.02618
C 2.13924 -4.21971 8.123
C 2.89553 -3.1059 8.8072
C 2.03438 -1.91177 9.24394
C 0.53762 -2.14849 9.26334
O -0.26587 -1.6704 8.47568
O -2.22938 -4.26258 1.437
O 0.08709 -3.08959 10.1375
O 2.10191 -5.36716 8.5507
C -1.22488 -3.50411 10.23079
C 3.56759 -3.46616 10.15004
C 4.73192 -2.51013 10.41
C 3.98483 -1.22263 10.70415
C 2.53887 -1.73217 10.68549
O 2.64336 -3.06452 11.13279
H 3.68438 -2.79257 8.0861
H 2.2103 -1.0307 8.58742
H 3.91805 -4.51953 10.204
H 5.22736 -2.85367 11.34657
H 5.49106 -2.44356 9.60124
H 4.27097 -0.87568 11.72177
H 4.1359 -0.40619 9.96501
H 1.87539 -1.06584 11.27979
O -2.539 -4.5402 5.37004
C -1.92615 -2.98589 1.01303
C -4.79715 -6.38204 3.13237
C -5.03307 -7.88683 2.99983
C -4.17997 -8.40677 4.13716
C -3.70389 -7.08634 4.75089
O -4.77419 -6.20261 4.52697
H -3.1504 -6.63086 1.75795
H -1.79721 -7.21604 3.64673
H -1.69176 -2.3388 1.88531
H -5.58774 -5.82651 2.58116
H -6.10257 -8.07575 3.24651
H -4.80711 -8.31583 1.99998
H -4.83853 -8.94956 4.8513
H -3.32976 -9.05627 3.83584
H -3.40466 -7.23581 5.81213
H -2.78032 -2.55819 0.44566
H -1.03888 -3.02448 0.34842
H -1.3068 -4.27511 11.02399
H -1.55485 -3.94687 9.26643
H -1.87939 -2.6463 10.49523
H -0.00771 -5.28543 6.94935
H 1.48283 -5.61753 5.96461
H -0.5434 -3.36035 5.35249
H 0.8811 -3.81513 4.40685
$end

$opt
CONSTRAINT
tors           1           2           3           4     -85.328
tors           3           4           5           6     -96.733
tors           4           5           6           7    -179.693
tors           5           6           7           8     +92.676
tors           6           7           8           9    -179.546
tors           7           8           9          10    -178.120
tors           8           9          10          11    +177.258
tors           9          10          11          12     +56.997
tors          11          12          13          14    -108.826
ENDCONSTRAINT
$end

$rem
JOBTYPE                   OPT
METHOD                    B3LYP
DFT_D                     d3_op
BASIS                     STO-3G
GEOM_OPT_MAX_CYCLES       100
GEOM_OPT_TOL_GRADIENT     300
GEOM_OPT_TOL_DISPLACEMENT 1200
GEOM_OPT_TOL_ENERGY       100
SYMMETRY                  False
THRESH                    12
SCF_CONVERGENCE           8
MAX_SUB_FILE_NUM          128
MEM_STATIC                400
MEM_TOTAL                 4000
$end
--------------------------------------------------------------

   15   -1510.1522866769      5.47E-09 Convergence criterion met
 Total energy in the final basis set = -1510.15228668
   13   -1510.2210851830      8.51E-09 Convergence criterion met
 Total energy in the final basis set = -1510.22108518
   14   -1510.2578580570      8.40E-09 Convergence criterion met
 Total energy in the final basis set = -1510.25785806
   14   -1510.2738914967      7.63E-09 Convergence criterion met
 Total energy in the final basis set = -1510.27389150
   13   -1510.2792276051      8.00E-09 Convergence criterion met
 Total energy in the final basis set = -1510.27922761
    2   -1510.2792276051      9.80E-09 Convergence criterion met
 Total energy in the final basis set = -1510.27922761
   13   -1510.2813446997      5.21E-09 Convergence criterion met
 Total energy in the final basis set = -1510.28134470
   13   -1510.2824360642      6.33E-09 Convergence criterion met
   10   -1510.2849256981      9.43E-09 Convergence criterion met
 Total energy in the final basis set = -1510.28492570
   10   -1510.2849486740      9.52E-09 Convergence criterion met
 Total energy in the final basis set = -1510.28494867
   10   -1510.2849515842      8.52E-09 Convergence criterion met
 Total energy in the final basis set = -1510.28495158
    9   -1510.2849548132      7.56E-09 Convergence criterion met
 Total energy in the final basis set = -1510.28495481
    9   -1510.2849562087      5.59E-09 Convergence criterion met
 Total energy in the final basis set = -1510.28495621
    9   -1510.2849574550      4.66E-09 Convergence criterion met
 Total energy in the final basis set = -1510.28495745

             Standard Nuclear Orientation (Angstroms)
    I     Atom           X                Y                Z
 ----------------------------------------------------------------
    1      O      -4.0558423864     1.1479178964     1.9617121945
    2      C      -4.3685892427     1.2298680275     0.7549644965
    3      C      -4.8843254384     0.0885685712    -0.1884074152
    4      C      -3.6959676428    -0.7464414296    -0.8456575866
    5      C      -2.2845929840    -0.2619880062    -0.3751265268
    6      O      -1.7629834294     0.6428649037    -1.3643126950
    7      C      -0.4217947722     1.1073968983    -0.9394983144
    8      C       0.6952180642     0.1918800639    -1.5448188536
    9      O       1.9663380786     0.7549182362    -1.0376968168
   10      C       3.0906544244     0.0347165097    -1.5516507240
   11      C       4.3808101946     0.7483120966    -1.0160967704
   12      C       4.4085781193     0.8285195798     0.5732653440
   13      C       3.0396947945     0.4883239524     1.2671362726
   14      O       2.2764561923     1.2929837638     1.8446266417
   15      O      -4.2512060025     2.4266811319    -0.0257984770
   16      O       2.7797997619    -0.9136028148     1.1310761509
   17      O       3.0079315650    -0.9522318121    -2.3108046464
   18      C       1.4873922993    -1.2605766228     1.7709568262
   19      C       5.6346281793    -0.1771758670    -1.2878407243
   20      C       6.9551634067     0.6178345508    -0.9459040128
   21      C       6.9532191307     0.5567869035     0.6270018941
   22      C       5.5879811390    -0.1903513500     0.8967759892
   23      O       5.5248287952    -1.1802281200    -0.2017534024
   24      H       4.4642693186     1.7496517292    -1.4762339438
   25      H       4.6743580595     1.8512537988     0.8950277004
   26      H       5.6127472089    -0.6774080561    -2.2754662411
   27      H       7.8351333816     0.1100571304    -1.3713369965
   28      H       6.9240806149     1.6506468935    -1.3283188682
   29      H       7.7972994561    -0.0407688443     1.0069574859
   30      H       6.9870373213     1.5538004494     1.0942286734
   31      H       5.5070794945    -0.6956839681     1.8784275355
   32      O      -1.6649847935    -0.5918351151     0.6605606683
   33      C      -3.6665228129     3.5113531319     0.7964209436
   34      C      -5.6356547277    -1.0521933255     0.6196990852
   35      C      -6.4411872943    -1.9361551022    -0.4118686334
   36      C      -5.2769495732    -2.7560047442    -1.0825579888
   37      C      -4.0220051530    -2.2010999397    -0.2999401674
   38      O      -4.5402204642    -1.9447653930     1.0623073399
   39      H      -5.5241183691     0.5374532495    -0.9684707240
   40      H      -3.7358523562    -0.6872357594    -1.9476233174
   41      H      -2.6468643366     3.2498789904     1.1467194037
   42      H      -6.2124457647    -0.6896553890     1.4922613654
   43      H      -7.1471794232    -2.5965678713     0.1164012594
   44      H      -7.0026484708    -1.3235488325    -1.1352280426
   45      H      -5.3906898626    -3.8377754732    -0.9082315160
   46      H      -5.2014414141    -2.5786927354    -2.1673850297
   47      H      -3.1480125747    -2.8794422252    -0.2589345710
   48      H      -4.2940575272     3.7390221885     1.6821373843
   49      H      -3.6157091756     4.3992279962     0.1398518416
   50      H       1.4013981613    -2.3601657289     1.6967511026
   51      H       0.6186094428    -0.7915839682     1.2610411470
   52      H       1.4690765961    -0.9597264603     2.8378600344
   53      H       0.5624178605    -0.8598886231    -1.2095403209
   54      H       0.6632264990     0.2082783963    -2.6558644126
   55      H      -0.3392366329     1.1022537490     0.1677950493
   56      H      -0.3073145559     2.1421891350    -1.3200874386
 ----------------------------------------------------------------

   10   -1510.2849579174      2.94E-09 Convergence criterion met
 Total energy in the final basis set = -1510.28495792
 Final energy is   -1510.28495791744
 **  OPTIMIZATION CONVERGED  **

                    Orbital Energies (a.u.)
 --------------------------------------------------------------

 Alpha MOs
 -- Occupied --
-18.940 -18.936 -18.934 -18.924 -18.890 -18.885 -18.884 -18.880
-18.877 -18.863 -10.105 -10.102 -10.098 -10.092 -10.076 -10.074
-10.064 -10.062 -10.061 -10.057 -10.056 -10.050 -10.043 -10.040
-10.038 -10.033 -10.022 -10.021 -10.019 -10.018  -1.021  -1.016
 -1.010  -0.999  -0.972  -0.967  -0.945  -0.939  -0.936  -0.926
 -0.766  -0.761  -0.730  -0.723  -0.712  -0.704  -0.699  -0.664
 -0.651  -0.618  -0.596  -0.583  -0.550  -0.545  -0.539  -0.535
 -0.514  -0.509  -0.486  -0.470  -0.467  -0.463  -0.456  -0.442
 -0.437  -0.431  -0.428  -0.414  -0.412  -0.404  -0.402  -0.401
 -0.395  -0.382  -0.373  -0.365  -0.363  -0.358  -0.355  -0.349
 -0.346  -0.339  -0.335  -0.332  -0.331  -0.328  -0.325  -0.312
 -0.308  -0.306  -0.305  -0.299  -0.292  -0.288  -0.282  -0.277
 -0.274  -0.260  -0.254  -0.251  -0.244  -0.236  -0.231  -0.185
 -0.180  -0.177  -0.169  -0.163  -0.157  -0.151  -0.145  -0.144
 -0.139

          Ground-State Mulliken Net Atomic Charges

     Atom                 Charge (a.u.)
  ----------------------------------------
      1 O                    -0.205290
      2 C                     0.203671
      3 C                    -0.078036
      4 C                    -0.077957
      5 C                     0.205627
      6 O                    -0.169778
      7 C                    -0.052474
      8 C                    -0.047631
      9 O                    -0.176032
     10 C                     0.216451
     11 C                    -0.077677
     12 C                    -0.080125
     13 C                     0.210594
     14 O                    -0.217504
     15 O                    -0.170313
     16 O                    -0.172178
     17 O                    -0.207130
     18 C                    -0.132752
     19 C                     0.024365
     20 C                    -0.144985
     21 C                    -0.143117
     22 C                     0.025657
     23 O                    -0.186472
     24 H                     0.085133
     25 H                     0.082637
     26 H                     0.088963
     27 H                     0.077956
     28 H                     0.072559
     29 H                     0.077670
     30 H                     0.073313
     31 H                     0.084648
     32 O                    -0.207436
     33 C                    -0.129279
     34 C                     0.025870
     35 C                    -0.143839
     36 C                    -0.144013
     37 C                     0.026274
     38 O                    -0.183100
     39 H                     0.086675
     40 H                     0.087641
     41 H                     0.089277
     42 H                     0.086896
     43 H                     0.078753
     44 H                     0.073561
     45 H                     0.078982
     46 H                     0.073639
     47 H                     0.085572
     48 H                     0.089815
     49 H                     0.090252
     50 H                     0.089113
     51 H                     0.094657
     52 H                     0.088041
     53 H                     0.089822
     54 H                     0.088341
     55 H                     0.103499
     56 H                     0.091193
  ----------------------------------------
  Sum of atomic charges =     0.000000

                    Cartesian Multipole Moments
 -----------------------------------------------------------------
    Charge (ESU x 10^10)
                 0.0000
    Dipole Moment (Debye)
         X      -0.8062      Y       1.9257      Z      -2.3601
       Tot       3.1509
    Quadrupole Moments (Debye-Ang)
        XX    -139.3888     XY       9.2136     YY    -156.9912
        XZ       8.9729     YZ      -1.1764     ZZ    -164.7696

 Total job time:  60.75s(wall), 2890.62s(cpu)
        *  Thank you very much for using Q-Chem.  Have a nice day.  *
