 Q-Chem 5.0, Q-Chem, Inc., Pleasanton, CA (2017)
 Q-Chem 5.0.1 for Intel X86 EM64T Linux

User input:
--------------------------------------------------------------
$molecule
0  1
O -4.0558423864 1.1479178964 1.9617121945
C -4.3685892427 1.2298680275 0.7549644965
C -4.8843254384 0.0885685712 -0.1884074152
C -3.6959676428 -0.7464414296 -0.8456575866
C -2.284592984 -0.2619880062 -0.3751265268
O -1.7629834294 0.6428649037 -1.364312695
C -0.4217947722 1.1073968983 -0.9394983144
C 0.6952180642 0.1918800639 -1.5448188536
O 1.9663380786 0.7549182362 -1.0376968168
C 3.0906544244 0.0347165097 -1.551650724
C 4.3808101946 0.7483120966 -1.0160967704
C 4.4085781193 0.8285195798 0.573265344
C 3.0396947945 0.4883239524 1.2671362726
O 2.2764561923 1.2929837638 1.8446266417
O -4.2512060025 2.4266811319 -0.025798477
O 2.7797997619 -0.9136028148 1.1310761509
O 3.007931565 -0.9522318121 -2.3108046464
C 1.4873922993 -1.2605766228 1.7709568262
C 5.6346281793 -0.177175867 -1.2878407243
C 6.9551634067 0.6178345508 -0.9459040128
C 6.9532191307 0.5567869035 0.6270018941
C 5.587981139 -0.19035135 0.8967759892
O 5.5248287952 -1.18022812 -0.2017534024
H 4.4642693186 1.7496517292 -1.4762339438
H 4.6743580595 1.8512537988 0.8950277004
H 5.6127472089 -0.6774080561 -2.2754662411
H 7.8351333816 0.1100571304 -1.3713369965
H 6.9240806149 1.6506468935 -1.3283188682
H 7.7972994561 -0.0407688443 1.0069574859
H 6.9870373213 1.5538004494 1.0942286734
H 5.5070794945 -0.6956839681 1.8784275355
O -1.6649847935 -0.5918351151 0.6605606683
C -3.6665228129 3.5113531319 0.7964209436
C -5.6356547277 -1.0521933255 0.6196990852
C -6.4411872943 -1.9361551022 -0.4118686334
C -5.2769495732 -2.7560047442 -1.0825579888
C -4.022005153 -2.2010999397 -0.2999401674
O -4.5402204642 -1.944765393 1.0623073399
H -5.5241183691 0.5374532495 -0.968470724
H -3.7358523562 -0.6872357594 -1.9476233174
H -2.6468643366 3.2498789904 1.1467194037
H -6.2124457647 -0.689655389 1.4922613654
H -7.1471794232 -2.5965678713 0.1164012594
H -7.0026484708 -1.3235488325 -1.1352280426
H -5.3906898626 -3.8377754732 -0.908231516
H -5.2014414141 -2.5786927354 -2.1673850297
H -3.1480125747 -2.8794422252 -0.258934571
H -4.2940575272 3.7390221885 1.6821373843
H -3.6157091756 4.3992279962 0.1398518416
H 1.4013981613 -2.3601657289 1.6967511026
H 0.6186094428 -0.7915839682 1.261041147
H 1.4690765961 -0.9597264603 2.8378600344
H 0.5624178605 -0.8598886231 -1.2095403209
H 0.663226499 0.2082783963 -2.6558644126
H -0.3392366329 1.102253749 0.1677950493
H -0.3073145559 2.142189135 -1.3200874386
$end

$rem
JOBTYPE                   OPT
METHOD                    B3LYP
DFT_D                     d3_op
BASIS                     STO-3G
GEOM_OPT_MAX_CYCLES       100
GEOM_OPT_TOL_GRADIENT     300
GEOM_OPT_TOL_DISPLACEMENT 1200
GEOM_OPT_TOL_ENERGY       100
SYMMETRY                  False
THRESH                    12
SCF_CONVERGENCE           8
MAX_SUB_FILE_NUM          128
MEM_STATIC                400
MEM_TOTAL                 4000
$end
--------------------------------------------------------------

   16   -1510.2848910706      5.71E-09 Convergence criterion met
 Total energy in the final basis set = -1510.28489107
   14   -1510.2778703896      5.52E-09 Convergence criterion met
 Total energy in the final basis set = -1510.27787039
   14   -1510.2859442484      7.59E-09 Convergence criterion met
 Total energy in the final basis set = -1510.28594425
   14   -1510.2866657936      4.77E-09 Convergence criterion met
 Total energy in the final basis set = -1510.28666579
   13   -1510.2879854389      6.68E-09 Convergence criterion met
 Total energy in the final basis set = -1510.28798544
   13   -1510.2887607931      5.41E-09 Convergence criterion met
 Total energy in the final basis set = -1510.28876079
   13   -1510.2889340435      8.36E-09 Convergence criterion met
 Total energy in the final basis set = -1510.28893404
   13   -1510.2895659779      8.18E-09 Convergence criterion met
   11   -1510.2943010237      7.62E-09 Convergence criterion met
 Total energy in the final basis set = -1510.29430102
   11   -1510.2942995592      3.05E-09 Convergence criterion met
 Total energy in the final basis set = -1510.29429956
   10   -1510.2942977562      6.57E-09 Convergence criterion met
 Total energy in the final basis set = -1510.29429776
   12   -1510.2942920221      2.51E-09 Convergence criterion met
 Total energy in the final basis set = -1510.29429202
   11   -1510.2942857884      4.63E-09 Convergence criterion met
 Total energy in the final basis set = -1510.29428579
   11   -1510.2942919020      4.69E-09 Convergence criterion met
 Total energy in the final basis set = -1510.29429190

             Standard Nuclear Orientation (Angstroms)
    I     Atom           X                Y                Z
 ----------------------------------------------------------------
    1      O      -3.7242434455     1.4244214623     2.1648046324
    2      C      -3.6973985956     1.2463242898     0.9297344990
    3      C      -4.5967837919     0.2806118413     0.0768866547
    4      C      -3.7617982234    -0.6732520304    -0.8801105814
    5      C      -2.2189974253    -0.4343109894    -0.7608441918
    6      O      -1.7354390798     0.0516348063    -2.0137543128
    7      C      -0.3082301833     0.4399896165    -1.9181863777
    8      C       0.6768703266    -0.7848916834    -1.9237899102
    9      O       2.0164186052    -0.1641391216    -1.8169146375
   10      C       2.9757627518    -1.0350387400    -1.2016322662
   11      C       4.2420117786    -0.1429621837    -0.9554141648
   12      C       3.9044588804     1.1418860409    -0.0808887783
   13      C       2.4271461947     1.1470710409     0.4583262528
   14      O       1.5507014605     2.0272063127     0.2977445241
   15      O      -2.8117375937     1.9260858790     0.0299335124
   16      O       2.2411899107    -0.0467479171     1.2165259899
   17      O       2.7868604461    -2.2398581962    -0.9424554308
   18      C       0.9035444740    -0.0709166072     1.8573358947
   19      C       5.3430786935    -0.8497435714    -0.0646111512
   20      C       6.7000421163    -0.0672432886    -0.2619910527
   21      C       6.4022838456     1.2543533224     0.5403220280
   22      C       4.9531132192     0.9579589255     1.0994199373
   23      O       4.9547215810    -0.5055018047     1.3227358202
   24      H       4.6477814814     0.1554818455    -1.9396198407
   25      H       4.0667476571     2.0754268794    -0.6474911538
   26      H       5.3923537955    -1.9487747139    -0.1914002535
   27      H       7.5359157836    -0.6286500727     0.1851307385
   28      H       6.9264262085     0.1190668598    -1.3238744730
   29      H       7.1141179392     1.3938072505     1.3692473331
   30      H       6.4239412739     2.1528543078    -0.0971525091
   31      H       4.6907609283     1.4911320656     2.0336647627
   32      O      -1.5079434687    -0.6571976315     0.2458373913
   33      C      -1.8540537081     2.7694724373     0.7820519889
   34      C      -5.3324843207    -0.7772615964     0.9976816814
   35      C      -6.4847943032    -1.4547397418     0.1582708893
   36      C      -5.6559625463    -2.4010345555    -0.7882100758
   37      C      -4.1815915020    -2.0963293123    -0.3089063233
   38      O      -4.3264157046    -1.8556483939     1.1438898735
   39      H      -5.3134046236     0.8899176767    -0.5045943396
   40      H      -4.0554671708    -0.5456349395    -1.9364018049
   41      H      -1.1406597321     2.1461982305     1.3588094689
   42      H      -5.6218584771    -0.3817158691     1.9907805298
   43      H      -7.1552940747    -2.0287718572     0.8175483609
   44      H      -7.0836824161    -0.7152934115    -0.3972675975
   45      H      -5.9043604733    -3.4609204995    -0.6195382604
   46      H      -5.7997116387    -2.1686077084    -1.8554720556
   47      H      -3.4461054791    -2.9024812413    -0.4964945680
   48      H      -2.3757161183     3.4560277304     1.4786745607
   49      H      -1.2964804870     3.3513652446     0.0256634303
   50      H       0.9334753056    -0.9145971807     2.5703792630
   51      H       0.0798456876    -0.2407544061     1.1239657495
   52      H       0.7108527568     0.8695336442     2.4114307502
   53      H       0.4815242359    -1.4594901317    -1.0638259900
   54      H       0.5812361010    -1.3698123913    -2.8646558883
   55      H      -0.1100189040     1.0475795921    -1.0068255736
   56      H      -0.1168824249     1.0672563833    -2.8117653039
 ----------------------------------------------------------------

    9   -1510.2942914803      5.00E-09 Convergence criterion met
 Total energy in the final basis set = -1510.29429148
 Final energy is   -1510.29429148029
 **  OPTIMIZATION CONVERGED  **

                    Orbital Energies (a.u.)
 --------------------------------------------------------------

 Alpha MOs
 -- Occupied --
-18.943 -18.936 -18.930 -18.925 -18.889 -18.885 -18.882 -18.881
-18.880 -18.864 -10.110 -10.102 -10.101 -10.093 -10.073 -10.071
-10.062 -10.061 -10.059 -10.058 -10.056 -10.041 -10.040 -10.037
-10.036 -10.034 -10.022 -10.021 -10.019 -10.018  -1.021  -1.014
 -1.010  -1.001  -0.972  -0.966  -0.945  -0.940  -0.938  -0.927
 -0.767  -0.762  -0.729  -0.723  -0.712  -0.704  -0.697  -0.661
 -0.647  -0.619  -0.596  -0.582  -0.549  -0.545  -0.539  -0.535
 -0.514  -0.508  -0.484  -0.475  -0.468  -0.463  -0.456  -0.440
 -0.434  -0.431  -0.427  -0.415  -0.412  -0.405  -0.402  -0.398
 -0.388  -0.380  -0.377  -0.362  -0.359  -0.357  -0.357  -0.351
 -0.346  -0.344  -0.334  -0.331  -0.328  -0.325  -0.322  -0.312
 -0.307  -0.306  -0.303  -0.299  -0.290  -0.288  -0.286  -0.278
 -0.274  -0.259  -0.254  -0.249  -0.240  -0.236  -0.231  -0.186
 -0.179  -0.178  -0.169  -0.160  -0.157  -0.153  -0.146  -0.144
 -0.140

          Ground-State Mulliken Net Atomic Charges

     Atom                 Charge (a.u.)
  ----------------------------------------
      1 O                    -0.205578
      2 C                     0.213140
      3 C                    -0.077969
      4 C                    -0.078737
      5 C                     0.221180
      6 O                    -0.166940
      7 C                    -0.050956
      8 C                    -0.052631
      9 O                    -0.180151
     10 C                     0.217043
     11 C                    -0.077679
     12 C                    -0.077455
     13 C                     0.208991
     14 O                    -0.226953
     15 O                    -0.173594
     16 O                    -0.169319
     17 O                    -0.205388
     18 C                    -0.146579
     19 C                     0.024655
     20 C                    -0.143500
     21 C                    -0.144416
     22 C                     0.025864
     23 O                    -0.184026
     24 H                     0.084023
     25 H                     0.083278
     26 H                     0.089445
     27 H                     0.077883
     28 H                     0.072371
     29 H                     0.077671
     30 H                     0.072934
     31 H                     0.082350
     32 O                    -0.220411
     33 C                    -0.130484
     34 C                     0.024252
     35 C                    -0.143939
     36 C                    -0.143786
     37 C                     0.025649
     38 O                    -0.185846
     39 H                     0.085821
     40 H                     0.087320
     41 H                     0.094780
     42 H                     0.091193
     43 H                     0.078947
     44 H                     0.073282
     45 H                     0.078850
     46 H                     0.073660
     47 H                     0.083979
     48 H                     0.090862
     49 H                     0.095160
     50 H                     0.088487
     51 H                     0.109472
     52 H                     0.078050
     53 H                     0.098850
     54 H                     0.083278
     55 H                     0.101589
     56 H                     0.092031
  ----------------------------------------
  Sum of atomic charges =     0.000000

                    Cartesian Multipole Moments
 -----------------------------------------------------------------
    Charge (ESU x 10^10)
                 0.0000
    Dipole Moment (Debye)
         X      -0.5681      Y       1.5474      Z      -3.0641
       Tot       3.4794
    Quadrupole Moments (Debye-Ang)
        XX    -137.4673     XY       8.1713     YY    -161.8904
        XZ       2.6059     YZ       4.5990     ZZ    -162.4759

 Total job time:  93.19s(wall), 4438.93s(cpu)
        *  Thank you very much for using Q-Chem.  Have a nice day.  *
