 Q-Chem 5.0, Q-Chem, Inc., Pleasanton, CA (2017)
 Q-Chem 5.0.1 for Intel X86 EM64T Linux

User input:
--------------------------------------------------------------
$molecule
0  1
O -3.94934 -3.66094 2.70899
C -3.26408 -4.56952 2.26188
C -3.36658 -6.02376 2.66595
C -2.33652 -6.54516 3.68132
C -1.4303 -5.51219 4.31363
O -0.12615 -5.80475 4.03249
C 0.79853 -5.15872 4.91389
C 0.75723 -5.8134 6.29077
O 1.62233 -5.10772 7.19437
C 1.92787 -5.76394 8.34118
C 3.3122 -5.4425 8.85205
C 3.57833 -3.95161 9.10638
C 2.35296 -3.06155 9.16089
O 2.04956 -2.22128 8.32635
O -2.23445 -4.26464 1.42995
O 1.46157 -3.32186 10.15609
O 1.16725 -6.55113 8.88921
C 0.26029 -2.66488 10.32015
C 3.68127 -6.02992 10.23071
C 5.20122 -6.14885 10.3437
C 5.5959 -4.68732 10.4477
C 4.21162 -4.03064 10.50566
O 3.40631 -4.99505 11.14453
H 4.01366 -5.84755 8.08752
H 4.24976 -3.52533 8.32803
H 3.2034 -7.01153 10.43882
H 5.41424 -6.64315 11.31883
H 5.70124 -6.71828 9.53095
H 6.14531 -4.5396 11.40381
H 6.19544 -4.29541 9.5976
H 4.26554 -3.03377 10.99628
O -1.81624 -4.55019 4.96885
C -1.93432 -2.98915 1.00027
C -4.66303 -6.30395 3.46581
C -5.02143 -7.78841 3.38681
C -3.96011 -8.38262 4.2872
C -3.26279 -7.10747 4.76989
O -4.29346 -6.15293 4.81429
H -3.41578 -6.61742 1.72566
H -1.70684 -7.34408 3.22595
H -1.69613 -2.33892 1.86913
H -5.52855 -5.694 3.1252
H -6.01232 -7.91678 3.8788
H -5.06554 -8.20931 2.35935
H -4.46481 -8.8904 5.13915
H -3.25409 -9.08394 3.79208
H -2.72596 -7.29538 5.72646
H -2.79162 -2.56396 0.43578
H -1.05027 -3.0293 0.33146
H -0.26091 -3.07707 11.2083
H -0.38262 -2.8152 9.42651
H 0.43647 -1.57961 10.4794
H -0.2715 -5.80728 6.71152
H 1.08785 -6.87036 6.16744
H 0.60008 -4.06421 4.97285
H 1.82535 -5.28134 4.50851
$end

$opt
CONSTRAINT
tors           1           2           3           4     -99.644
tors           3           4           5           6    -120.316
tors           4           5           6           7    -161.270
tors           5           6           7           8     +72.794
tors           6           7           8           9    -176.305
tors           7           8           9          10    -164.646
tors           8           9          10          11    +147.593
tors           9          10          11          12     +56.997
tors          11          12          13          14    -110.636
ENDCONSTRAINT
$end

$rem
JOBTYPE                   OPT
METHOD                    B3LYP
DFT_D                     d3_op
BASIS                     STO-3G
GEOM_OPT_MAX_CYCLES       100
GEOM_OPT_TOL_GRADIENT     300
GEOM_OPT_TOL_DISPLACEMENT 1200
GEOM_OPT_TOL_ENERGY       100
SYMMETRY                  False
THRESH                    12
SCF_CONVERGENCE           8
MAX_SUB_FILE_NUM          128
MEM_STATIC                400
MEM_TOTAL                 4000
$end
--------------------------------------------------------------

   15   -1510.1471090259      5.79E-09 Convergence criterion met
 Total energy in the final basis set = -1510.14710903
   14   -1510.2159568749      5.76E-09 Convergence criterion met
 Total energy in the final basis set = -1510.21595687
   14   -1510.2523604656      8.73E-09 Convergence criterion met
 Total energy in the final basis set = -1510.25236047
   14   -1510.2674084340      7.11E-09 Convergence criterion met
 Total energy in the final basis set = -1510.26740843
   14   -1510.2713550702      4.18E-09 Convergence criterion met
 Total energy in the final basis set = -1510.27135507
   13   -1510.2726304240      5.24E-09 Convergence criterion met
 Total energy in the final basis set = -1510.27263042
   13   -1510.2736094062      4.33E-09 Convergence criterion met
 Total energy in the final basis set = -1510.27360941
   13   -1510.2741538842      3.38E-09 Convergence criterion met
   11   -1510.2757814208      3.25E-09 Convergence criterion met
 Total energy in the final basis set = -1510.27578142
    9   -1510.2757866651      8.82E-09 Convergence criterion met
 Total energy in the final basis set = -1510.27578667
   10   -1510.2757926595      6.92E-09 Convergence criterion met
 Total energy in the final basis set = -1510.27579266
   10   -1510.2758001265      9.01E-09 Convergence criterion met
 Total energy in the final basis set = -1510.27580013
    9   -1510.2758057435      9.51E-09 Convergence criterion met
 Total energy in the final basis set = -1510.27580574
   10   -1510.2758080195      9.77E-09 Convergence criterion met
 Total energy in the final basis set = -1510.27580802

             Standard Nuclear Orientation (Angstroms)
    I     Atom           X                Y                Z
 ----------------------------------------------------------------
    1      O      -4.8975214793     1.6542273907     1.5581518153
    2      C      -4.8749047785     1.2836308816     0.3663154588
    3      C      -5.1207025690    -0.1600581216    -0.2011870601
    4      C      -3.7569448219    -0.9088989167    -0.5287176131
    5      C      -2.4951652306     0.0080718395    -0.4003955683
    6      O      -1.8352853015     0.0452124283    -1.6784249351
    7      C      -0.4345067223     0.5042643279    -1.5284334006
    8      C       0.4676385933    -0.5988939723    -0.8682255411
    9      O       1.8009873466     0.0237837568    -0.6987743079
   10      C       2.8031316787    -0.9760896074    -0.4387118003
   11      C       4.1660836177    -0.5017466954    -1.0631896727
   12      C       4.6624625556     0.9117952094    -0.5329456826
   13      C       3.5893948740     1.6380960919     0.3476446869
   14      O       2.9410017536     2.6666228692     0.0580159503
   15      O      -4.5166629983     2.1281847233    -0.7359107814
   16      O       3.3886873352     0.8629481891     1.5356949276
   17      O       2.5626231897    -2.0875671331     0.0764045255
   18      C       2.2422941503     1.4022915261     2.3020569083
   19      C       5.3378077628    -1.4392847439    -0.5618424349
   20      C       6.6289297199    -1.1563066622    -1.4261050126
   21      C       7.1107475951     0.2126517056    -0.8162930333
   22      C       5.9787056387     0.4841300276     0.2511465648
   23      O       5.6663065514    -0.8676081223     0.7655720942
   24      H       4.0545517969    -0.5024926211    -2.1632583388
   25      H       4.9021956474     1.5831300864    -1.3763964488
   26      H       5.0431142087    -2.5019289911    -0.4607898365
   27      H       7.3760592665    -1.9516773874    -1.2770824898
   28      H       6.3990914132    -1.0840979504    -2.5012268428
   29      H       8.0880254352     0.1092856309    -0.3181495914
   30      H       7.1808748509     1.0150050242    -1.5682020327
   31      H       6.2626421752     1.1593544883     1.0813177794
   32      O      -2.0751828961     0.5919699295     0.6222388815
   33      C      -4.1285721076     3.4677669525    -0.2388404933
   34      C      -5.7072795688    -1.1009394305     0.9281688918
   35      C      -6.1667463394    -2.4635174015     0.2727042401
   36      C      -4.7832761615    -3.1806828578     0.0495839625
   37      C      -3.7839161732    -2.0702095862     0.5611645440
   38      O      -4.4997661832    -1.4688611739     1.7059642946
   39      H      -5.7671084960    -0.1000944138    -1.0948066775
   40      H      -3.7688487350    -1.3190087865    -1.5538026467
   41      H      -3.2677076260     3.4046835685     0.4581530265
   42      H      -6.4505584915    -0.6111437551     1.5862324740
   43      H      -6.8094083156    -3.0299249211     0.9650766851
   44      H      -6.7160579881    -2.3028904612    -0.6687669679
   45      H      -4.6946774243    -4.0870848871     0.6696417505
   46      H      -4.6057993528    -3.4526737790    -1.0031296564
   47      H      -2.7864064367    -2.4350068594     0.8745675689
   48      H      -4.9683781185     3.9714168109     0.2821454843
   49      H      -3.8423913358     4.0540967308    -1.1313275709
   50      H       2.1406669410     0.7580274065     3.1944737761
   51      H       1.3082494870     1.3605478829     1.7045103218
   52      H       2.4150137327     2.4514299843     2.6173920249
   53      H       0.0369966491    -0.8994503338     0.1131753811
   54      H       0.5235987099    -1.5016322027    -1.5135440474
   55      H      -0.3797993832     1.4269877929    -0.9106889937
   56      H      -0.0765470957     0.7302260870    -2.5522755723
 ----------------------------------------------------------------

    9   -1510.2758083992      7.09E-09 Convergence criterion met
 Total energy in the final basis set = -1510.27580840
 Final energy is   -1510.27580839916
 **  OPTIMIZATION CONVERGED  **

                    Orbital Energies (a.u.)
 --------------------------------------------------------------

 Alpha MOs
 -- Occupied --
-18.936 -18.930 -18.928 -18.928 -18.889 -18.886 -18.884 -18.881
-18.875 -18.869 -10.104 -10.103 -10.096 -10.095 -10.077 -10.076
-10.063 -10.060 -10.059 -10.059 -10.057 -10.056 -10.040 -10.039
-10.038 -10.036 -10.022 -10.021 -10.020 -10.019  -1.017  -1.014
 -1.007  -1.003  -0.971  -0.969  -0.944  -0.939  -0.933  -0.930
 -0.765  -0.763  -0.729  -0.723  -0.713  -0.705  -0.699  -0.660
 -0.654  -0.619  -0.598  -0.584  -0.548  -0.547  -0.538  -0.537
 -0.513  -0.510  -0.486  -0.471  -0.466  -0.463  -0.453  -0.443
 -0.437  -0.430  -0.429  -0.412  -0.411  -0.408  -0.406  -0.399
 -0.394  -0.384  -0.373  -0.366  -0.363  -0.356  -0.353  -0.350
 -0.344  -0.342  -0.336  -0.333  -0.330  -0.329  -0.326  -0.310
 -0.310  -0.307  -0.306  -0.298  -0.294  -0.288  -0.282  -0.279
 -0.273  -0.256  -0.251  -0.249  -0.247  -0.235  -0.233  -0.185
 -0.175  -0.174  -0.171  -0.159  -0.159  -0.149  -0.147  -0.145
 -0.142

          Ground-State Mulliken Net Atomic Charges

     Atom                 Charge (a.u.)
  ----------------------------------------
      1 O                    -0.203872
      2 C                     0.209817
      3 C                    -0.078065
      4 C                    -0.079942
      5 C                     0.207123
      6 O                    -0.172216
      7 C                    -0.048691
      8 C                    -0.048727
      9 O                    -0.183013
     10 C                     0.216582
     11 C                    -0.077071
     12 C                    -0.079837
     13 C                     0.211272
     14 O                    -0.213169
     15 O                    -0.174118
     16 O                    -0.168541
     17 O                    -0.203473
     18 C                    -0.128203
     19 C                     0.024079
     20 C                    -0.144779
     21 C                    -0.143343
     22 C                     0.026228
     23 O                    -0.185513
     24 H                     0.083768
     25 H                     0.083118
     26 H                     0.089767
     27 H                     0.078283
     28 H                     0.072358
     29 H                     0.077984
     30 H                     0.073298
     31 H                     0.084229
     32 O                    -0.209643
     33 C                    -0.129428
     34 C                     0.025642
     35 C                    -0.144646
     36 C                    -0.142950
     37 C                     0.025965
     38 O                    -0.183830
     39 H                     0.085539
     40 H                     0.086539
     41 H                     0.092844
     42 H                     0.088308
     43 H                     0.078662
     44 H                     0.073379
     45 H                     0.078966
     46 H                     0.073684
     47 H                     0.083319
     48 H                     0.088098
     49 H                     0.089338
     50 H                     0.092299
     51 H                     0.091486
     52 H                     0.087825
     53 H                     0.088510
     54 H                     0.084598
     55 H                     0.098079
     56 H                     0.092086
  ----------------------------------------
  Sum of atomic charges =     0.000000

                    Cartesian Multipole Moments
 -----------------------------------------------------------------
    Charge (ESU x 10^10)
                 0.0000
    Dipole Moment (Debye)
         X      -0.0576      Y      -0.5466      Z      -3.8503
       Tot       3.8893
    Quadrupole Moments (Debye-Ang)
        XX    -143.8186     XY       6.9619     YY    -158.5796
        XZ       0.1426     YZ       4.1931     ZZ    -162.6440

 Total job time:  62.52s(wall), 2974.88s(cpu)
        *  Thank you very much for using Q-Chem.  Have a nice day.  *
