 Q-Chem 5.0, Q-Chem, Inc., Pleasanton, CA (2017)
 Q-Chem 5.0.1 for Intel X86 EM64T Linux

User input:
--------------------------------------------------------------
$molecule
0  1
O -4.8975214793 1.6542273907 1.5581518153
C -4.8749047785 1.2836308816 0.3663154588
C -5.120702569 -0.1600581216 -0.2011870601
C -3.7569448219 -0.9088989167 -0.5287176131
C -2.4951652306 0.0080718395 -0.4003955683
O -1.8352853015 0.0452124283 -1.6784249351
C -0.4345067223 0.5042643279 -1.5284334006
C 0.4676385933 -0.5988939723 -0.8682255411
O 1.8009873466 0.0237837568 -0.6987743079
C 2.8031316787 -0.9760896074 -0.4387118003
C 4.1660836177 -0.5017466954 -1.0631896727
C 4.6624625556 0.9117952094 -0.5329456826
C 3.589394874 1.6380960919 0.3476446869
O 2.9410017536 2.6666228692 0.0580159503
O -4.5166629983 2.1281847233 -0.7359107814
O 3.3886873352 0.8629481891 1.5356949276
O 2.5626231897 -2.0875671331 0.0764045255
C 2.2422941503 1.4022915261 2.3020569083
C 5.3378077628 -1.4392847439 -0.5618424349
C 6.6289297199 -1.1563066622 -1.4261050126
C 7.1107475951 0.2126517056 -0.8162930333
C 5.9787056387 0.4841300276 0.2511465648
O 5.6663065514 -0.8676081223 0.7655720942
H 4.0545517969 -0.5024926211 -2.1632583388
H 4.9021956474 1.5831300864 -1.3763964488
H 5.0431142087 -2.5019289911 -0.4607898365
H 7.3760592665 -1.9516773874 -1.2770824898
H 6.3990914132 -1.0840979504 -2.5012268428
H 8.0880254352 0.1092856309 -0.3181495914
H 7.1808748509 1.0150050242 -1.5682020327
H 6.2626421752 1.1593544883 1.0813177794
O -2.0751828961 0.5919699295 0.6222388815
C -4.1285721076 3.4677669525 -0.2388404933
C -5.7072795688 -1.1009394305 0.9281688918
C -6.1667463394 -2.4635174015 0.2727042401
C -4.7832761615 -3.1806828578 0.0495839625
C -3.7839161732 -2.0702095862 0.561164544
O -4.4997661832 -1.4688611739 1.7059642946
H -5.767108496 -0.1000944138 -1.0948066775
H -3.768848735 -1.3190087865 -1.5538026467
H -3.267707626 3.4046835685 0.4581530265
H -6.4505584915 -0.6111437551 1.586232474
H -6.8094083156 -3.0299249211 0.9650766851
H -6.7160579881 -2.3028904612 -0.6687669679
H -4.6946774243 -4.0870848871 0.6696417505
H -4.6057993528 -3.452673779 -1.0031296564
H -2.7864064367 -2.4350068594 0.8745675689
H -4.9683781185 3.9714168109 0.2821454843
H -3.8423913358 4.0540967308 -1.1313275709
H 2.140666941 0.7580274065 3.1944737761
H 1.308249487 1.3605478829 1.7045103218
H 2.4150137327 2.4514299843 2.6173920249
H 0.0369966491 -0.8994503338 0.1131753811
H 0.5235987099 -1.5016322027 -1.5135440474
H -0.3797993832 1.4269877929 -0.9106889937
H -0.0765470957 0.730226087 -2.5522755723
$end

$rem
JOBTYPE                   OPT
METHOD                    B3LYP
DFT_D                     d3_op
BASIS                     STO-3G
GEOM_OPT_MAX_CYCLES       100
GEOM_OPT_TOL_GRADIENT     300
GEOM_OPT_TOL_DISPLACEMENT 1200
GEOM_OPT_TOL_ENERGY       100
SYMMETRY                  False
THRESH                    12
SCF_CONVERGENCE           8
MAX_SUB_FILE_NUM          128
MEM_STATIC                400
MEM_TOTAL                 4000
$end
--------------------------------------------------------------

   16   -1510.2755927697      5.44E-09 Convergence criterion met
 Total energy in the final basis set = -1510.27559277
   15   -1510.2806124259      2.74E-09 Convergence criterion met
 Total energy in the final basis set = -1510.28061243
   14   -1510.2849209855      5.55E-09 Convergence criterion met
 Total energy in the final basis set = -1510.28492099
   15   -1510.2872859958      4.38E-09 Convergence criterion met
 Total energy in the final basis set = -1510.28728600
   14   -1510.2898768220      2.10E-09 Convergence criterion met
 Total energy in the final basis set = -1510.28987682
   13   -1510.2903665946      8.30E-09 Convergence criterion met
 Total energy in the final basis set = -1510.29036659
   13   -1510.2916259456      9.80E-09 Convergence criterion met
 Total energy in the final basis set = -1510.29162595
   14   -1510.2912107981      4.51E-09 Convergence criterion met
   11   -1510.2998920714      3.34E-09 Convergence criterion met
 Total energy in the final basis set = -1510.29989207
   11   -1510.2998962549      3.51E-09 Convergence criterion met
 Total energy in the final basis set = -1510.29989625
   11   -1510.2998983500      3.04E-09 Convergence criterion met
 Total energy in the final basis set = -1510.29989835
    9   -1510.2998988730      5.80E-09 Convergence criterion met
 Total energy in the final basis set = -1510.29989887
    9   -1510.2998976030      4.28E-09 Convergence criterion met
 Total energy in the final basis set = -1510.29989760
   10   -1510.2998959481      4.56E-09 Convergence criterion met
 Total energy in the final basis set = -1510.29989595

             Standard Nuclear Orientation (Angstroms)
    I     Atom           X                Y                Z
 ----------------------------------------------------------------
    1      O      -2.7579562077     2.0483946696     1.4423602119
    2      C      -3.0401497905     1.4619203540     0.3753439401
    3      C      -4.0154081173     0.2447095328     0.1819148564
    4      C      -3.3491540092    -0.9809482206    -0.5797585536
    5      C      -1.8468066510    -0.7252090015    -0.9386883569
    6      O      -1.7033971813    -0.6881887631    -2.3600228463
    7      C      -0.3019860301    -0.3544653245    -2.7198794767
    8      C       0.6428030462    -1.6184991662    -2.6791427737
    9      O       2.0376983590    -1.1492566937    -2.4956987083
   10      C       2.4152052627    -1.2629732478    -1.1132043572
   11      C       3.7502581023    -0.4728608473    -0.9186626014
   12      C       3.5145601670     0.9644147443    -0.2701488056
   13      C       2.0013407168     1.2199275734     0.0819228735
   14      O       1.1062976371     1.5052025382    -0.7561604364
   15      O      -2.5305742046     1.8105769892    -0.9120508130
   16      O       1.7946897570     1.0668054309     1.4703863626
   17      O       1.7525563568    -1.8779458046    -0.2499066233
   18      C       0.3515937292     1.1628859591     1.8195866402
   19      C       4.7103268354    -1.1317454764     0.1606426844
   20      C       6.1534770587    -0.5247977920    -0.0430839885
   21      C       5.9528679526     0.9245529673     0.5374052783
   22      C       4.4441672180     0.8639582280     1.0082620278
   23      O       4.2666883002    -0.5408759252     1.4427354765
   24      H       4.2400829220    -0.3799585822    -1.9037169028
   25      H       3.8384333975     1.7595482949    -0.9660026268
   26      H       4.6578921261    -2.2367157959     0.2061585604
   27      H       6.8947491789    -1.0939173996     0.5402800863
   28      H       6.4609994278    -0.5234200994    -1.1010298079
   29      H       6.6170532208     1.1132067180     1.3955915264
   30      H       6.1185717145     1.7106254838    -0.2166629136
   31      H       4.1727402141     1.5592917430     1.8249298151
   32      O      -0.8876779754    -0.6031342165    -0.1429336185
   33      C      -1.5157291242     2.8893442388    -0.8100345317
   34      C      -4.3885097731    -0.4195469057     1.5680853399
   35      C      -5.6490570501    -1.3454149620     1.3592306888
   36      C      -5.0079462579    -2.5613406116     0.5914418578
   37      C      -3.4932773878    -2.1167301316     0.5231769702
   38      O      -3.2851231235    -1.3836955864     1.7923920057
   39      H      -4.9108283816     0.5977814088    -0.3617681045
   40      H      -3.8924058441    -1.2234794655    -1.5095183178
   41      H      -0.4982046414     2.4339979177    -0.7337359743
   42      H      -4.4478834193     0.3009541893     2.4068688614
   43      H      -6.0638821644    -1.6563514099     2.3312419035
   44      H      -6.4420067322    -0.8454677681     0.7803840836
   45      H      -5.1073923650    -3.4981838868     1.1623758027
   46      H      -5.4436401211    -2.7102615178    -0.4095556889
   47      H      -2.7614849193    -2.9426536069     0.4301662712
   48      H      -1.7137117375     3.5229912443     0.0763355034
   49      H      -1.5950408786     3.4901562587    -1.7346482806
   50      H       0.2839666722     0.8524213164     2.8775271016
   51      H      -0.2525673339     0.4822154282     1.1745126322
   52      H      -0.0151624220     2.2035965987     1.7184442852
   53      H       0.3678192790    -2.2680867677    -1.8198060101
   54      H       0.5998935731    -2.1935048407    -3.6251717684
   55      H       0.1202783735     0.4074296726    -2.0198751477
   56      H      -0.3495291404     0.0638624281    -3.7441751435
 ----------------------------------------------------------------

    9   -1510.2998954581      9.46E-09 Convergence criterion met
 Total energy in the final basis set = -1510.29989546
 Final energy is   -1510.29989545806
 **  OPTIMIZATION CONVERGED  **

                    Orbital Energies (a.u.)
 --------------------------------------------------------------

 Alpha MOs
 -- Occupied --
-18.941 -18.933 -18.928 -18.927 -18.886 -18.885 -18.878 -18.878
-18.874 -18.872 -10.107 -10.101 -10.097 -10.095 -10.062 -10.058
-10.058 -10.058 -10.056 -10.055 -10.039 -10.038 -10.038 -10.037
-10.036 -10.035 -10.019 -10.019 -10.018 -10.018  -1.016  -1.011
 -1.007  -1.003  -0.968  -0.967  -0.937  -0.937  -0.932  -0.931
 -0.763  -0.761  -0.725  -0.721  -0.709  -0.704  -0.691  -0.652
 -0.648  -0.615  -0.594  -0.577  -0.545  -0.543  -0.536  -0.534
 -0.511  -0.505  -0.479  -0.473  -0.463  -0.457  -0.450  -0.444
 -0.434  -0.430  -0.427  -0.422  -0.410  -0.404  -0.399  -0.392
 -0.382  -0.375  -0.371  -0.363  -0.358  -0.357  -0.354  -0.349
 -0.343  -0.338  -0.330  -0.329  -0.327  -0.323  -0.316  -0.309
 -0.307  -0.305  -0.302  -0.298  -0.286  -0.285  -0.284  -0.276
 -0.270  -0.259  -0.245  -0.242  -0.238  -0.232  -0.231  -0.188
 -0.176  -0.171  -0.161  -0.159  -0.155  -0.149  -0.148  -0.141
 -0.141

          Ground-State Mulliken Net Atomic Charges

     Atom                 Charge (a.u.)
  ----------------------------------------
      1 O                    -0.214561
      2 C                     0.210552
      3 C                    -0.078258
      4 C                    -0.078798
      5 C                     0.218979
      6 O                    -0.168235
      7 C                    -0.061688
      8 C                    -0.058148
      9 O                    -0.174233
     10 C                     0.206182
     11 C                    -0.078974
     12 C                    -0.076912
     13 C                     0.220471
     14 O                    -0.226463
     15 O                    -0.174719
     16 O                    -0.157331
     17 O                    -0.202006
     18 C                    -0.143675
     19 C                     0.025841
     20 C                    -0.143614
     21 C                    -0.144693
     22 C                     0.025876
     23 O                    -0.183436
     24 H                     0.086364
     25 H                     0.084454
     26 H                     0.085479
     27 H                     0.078114
     28 H                     0.073017
     29 H                     0.078077
     30 H                     0.072418
     31 H                     0.089953
     32 O                    -0.217759
     33 C                    -0.151083
     34 C                     0.023613
     35 C                    -0.143854
     36 C                    -0.143995
     37 C                     0.025399
     38 O                    -0.186808
     39 H                     0.084871
     40 H                     0.086643
     41 H                     0.110722
     42 H                     0.090145
     43 H                     0.078163
     44 H                     0.072839
     45 H                     0.078206
     46 H                     0.073256
     47 H                     0.084390
     48 H                     0.087119
     49 H                     0.081012
     50 H                     0.091248
     51 H                     0.121912
     52 H                     0.083185
     53 H                     0.099901
     54 H                     0.083866
     55 H                     0.112060
     56 H                     0.084915
  ----------------------------------------
  Sum of atomic charges =    -0.000000

                    Cartesian Multipole Moments
 -----------------------------------------------------------------
    Charge (ESU x 10^10)
                -0.0000
    Dipole Moment (Debye)
         X       0.0590      Y       0.4481      Z      -2.6181
       Tot       2.6569
    Quadrupole Moments (Debye-Ang)
        XX    -136.1686     XY       7.1701     YY    -155.4845
        XZ      -2.8633     YZ       3.4757     ZZ    -164.4232

 Total job time:  167.00s(wall), 7968.71s(cpu)
        *  Thank you very much for using Q-Chem.  Have a nice day.  *
