 Q-Chem 5.0, Q-Chem, Inc., Pleasanton, CA (2017)
 Q-Chem 5.0.1 for Intel X86 EM64T Linux

User input:
--------------------------------------------------------------
$molecule
0  1
O -3.94934 -3.66094 2.70899
C -3.26408 -4.56952 2.26188
C -3.36658 -6.02376 2.66595
C -2.18834 -6.61864 3.45444
C -1.11947 -5.64768 3.90483
O 0.04589 -5.89846 3.23815
C 1.1422 -5.10318 3.70172
C 1.60541 -5.59303 5.06979
O 2.64729 -4.7393 5.56831
C 3.1714 -5.09768 6.76665
C 4.60346 -4.65062 6.93986
C 4.77656 -3.19186 7.38744
C 3.53437 -2.51604 7.93236
O 2.91761 -1.61582 7.3812
O -2.2976 -4.27735 1.35293
O 2.99944 -3.05171 9.06385
O 2.64191 -5.91289 7.51277
C 1.83806 -2.61217 9.66365
C 5.38447 -5.35724 8.07793
C 6.88372 -5.29273 7.78382
C 7.15286 -3.81622 8.00272
C 5.78611 -3.36573 8.53217
O 5.28124 -4.50261 9.19058
H 5.13232 -4.89106 5.98911
H 5.14146 -2.5616 6.54644
H 5.07693 -6.41305 8.24039
H 7.39069 -5.86865 8.59147
H 7.20696 -5.69249 6.7987
H 7.94196 -3.71449 8.78025
H 7.4356 -3.24522 7.09173
H 5.88073 -2.44431 9.14827
O -1.32444 -4.68615 4.63826
C -2.02678 -3.00797 0.88759
C -4.50544 -6.27507 3.68152
C -4.93022 -7.74372 3.64409
C -3.75058 -8.39708 4.3321
C -2.91988 -7.16199 4.69126
O -3.88456 -6.16875 4.93957
H -3.58811 -6.59078 1.73402
H -1.70166 -7.43537 2.87261
H -1.72509 -2.34877 1.72955
H -5.39329 -5.62623 3.51646
H -5.82361 -7.8511 4.30024
H -5.16871 -8.13535 2.63187
H -4.11424 -8.89239 5.25996
H -3.1813 -9.12406 3.71336
H -2.22359 -7.39107 5.52845
H -2.92149 -2.58665 0.38131
H -1.19315 -3.05859 0.15756
H 1.64061 -3.2259 10.56628
H 0.98191 -2.71988 8.9638
H 1.94387 -1.54925 9.96894
H 0.75724 -5.57143 5.78796
H 1.96803 -6.64127 4.9732
H 0.87501 -4.02171 3.71845
H 1.99082 -5.21836 2.9946
$end

$opt
CONSTRAINT
tors           1           2           3           4    -111.428
tors           3           4           5           6    -112.570
tors           4           5           6           7    -174.378
tors           5           6           7           8     +72.794
tors           6           7           8           9    -176.305
tors           7           8           9          10    -178.120
tors           8           9          10          11    +152.289
tors           9          10          11          12     +82.144
tors          11          12          13          14    -110.636
ENDCONSTRAINT
$end

$rem
JOBTYPE                   OPT
METHOD                    B3LYP
DFT_D                     d3_op
BASIS                     STO-3G
GEOM_OPT_MAX_CYCLES       100
GEOM_OPT_TOL_GRADIENT     300
GEOM_OPT_TOL_DISPLACEMENT 1200
GEOM_OPT_TOL_ENERGY       100
SYMMETRY                  False
THRESH                    12
SCF_CONVERGENCE           8
MAX_SUB_FILE_NUM          128
MEM_STATIC                400
MEM_TOTAL                 4000
$end
--------------------------------------------------------------

   15   -1510.1474674332      5.80E-09 Convergence criterion met
 Total energy in the final basis set = -1510.14746743
   14   -1510.2165150201      6.86E-09 Convergence criterion met
 Total energy in the final basis set = -1510.21651502
   14   -1510.2534070126      7.74E-09 Convergence criterion met
 Total energy in the final basis set = -1510.25340701
   14   -1510.2690875412      6.88E-09 Convergence criterion met
 Total energy in the final basis set = -1510.26908754
   14   -1510.2734795283      5.56E-09 Convergence criterion met
 Total energy in the final basis set = -1510.27347953
   13   -1510.2747193333      7.75E-09 Convergence criterion met
 Total energy in the final basis set = -1510.27471933
   12   -1510.2754848462      7.50E-09 Convergence criterion met
 Total energy in the final basis set = -1510.27548485
   12   -1510.2759722558      7.47E-09 Convergence criterion met
   11   -1510.2778378751      5.74E-09 Convergence criterion met
 Total energy in the final basis set = -1510.27783788
   11   -1510.2778416277      3.79E-09 Convergence criterion met
 Total energy in the final basis set = -1510.27784163
   11   -1510.2778522859      3.85E-09 Convergence criterion met
 Total energy in the final basis set = -1510.27785229
    9   -1510.2778561137      7.47E-09 Convergence criterion met
 Total energy in the final basis set = -1510.27785611
   10   -1510.2778658137      7.73E-09 Convergence criterion met
 Total energy in the final basis set = -1510.27786581
    9   -1510.2778668947      7.23E-09 Convergence criterion met
 Total energy in the final basis set = -1510.27786689

             Standard Nuclear Orientation (Angstroms)
    I     Atom           X                Y                Z
 ----------------------------------------------------------------
    1      O      -4.7614717679     1.5779383031     1.8471926561
    2      C      -4.6427796476     1.3045389369     0.6352263771
    3      C      -5.1228474381     0.0088467499    -0.1123690819
    4      C      -3.9002172047    -0.8798341875    -0.6056679912
    5      C      -2.5159035194    -0.1750186629    -0.4068050511
    6      O      -1.9785109674     0.1147522716    -1.7065416684
    7      C      -0.6055351177     0.6621775932    -1.5940890184
    8      C       0.4410610388    -0.4372244114    -1.1932060877
    9      O       1.7305306440     0.2751354343    -1.0336875071
   10      C       2.7772465078    -0.6595489474    -0.7053714313
   11      C       4.1450439948    -0.0783448524    -1.2273328449
   12      C       4.7802815884     0.9811487761    -0.2256175761
   13      C       3.7263181425     1.5043980770     0.8055225597
   14      O       3.2342056291     2.6520920456     0.8638042368
   15      O      -3.9514706732     2.1266464138    -0.3158982280
   16      O       3.2988740234     0.4018814231     1.6132532016
   17      O       2.5692506406    -1.8027725357    -0.2490520530
   18      C       2.1350201088     0.7928533402     2.4417826272
   19      C       5.2326438096    -1.2276362121    -1.1493718962
   20      C       6.5716232374    -0.7299032856    -1.8256553505
   21      C       7.1597845136     0.2004886317    -0.6993426441
   22      C       5.9962558427     0.1461042353     0.3676567287
   23      O       5.5487025338    -1.2618796587     0.2981799857
   24      H       4.0031566019     0.3409722652    -2.2390959632
   25      H       5.1483971288     1.8623328736    -0.7802155780
   26      H       4.8656229773    -2.2175912327    -1.4825567223
   27      H       7.2377648824    -1.5803076921    -2.0406931077
   28      H       6.3794245864    -0.1863508324    -2.7648450330
   29      H       8.0861289563    -0.2189248484    -0.2750003717
   30      H       7.3621587678     1.2245764580    -1.0512432668
   31      H       6.2846618544     0.4121149017     1.4029274132
   32      O      -1.9371206543     0.0904520268     0.6694085770
   33      C      -3.3261767535     3.2786122635     0.3724732601
   34      C      -5.8167062027    -0.9818103282     0.9069387758
   35      C      -6.5030993585    -2.1531396268     0.0993431631
   36      C      -5.2552713903    -3.0292520296    -0.2925810458
   37      C      -4.0793673813    -2.1662959057     0.3131123502
   38      O      -4.6587183690    -1.6326486248     1.5655882692
   39      H      -5.7777659551     0.2902558992    -0.9566510108
   40      H      -4.0013369717    -1.1290144077    -1.6764054820
   41      H      -2.5614862746     2.9401387647     1.1020596638
   42      H      -6.4532658530    -0.4796668353     1.6607195554
   43      H      -7.2027612854    -2.7097501715     0.7425844018
   44      H      -7.0517767593    -1.7808728763    -0.7806689117
   45      H      -5.2902636134    -4.0185461871     0.1910406236
   46      H      -5.1553902049    -3.1707525916    -1.3807178985
   47      H      -3.1428700196    -2.7184104196     0.5236355103
   48      H      -4.0768305816     3.8954639578     0.9068661321
   49      H      -2.8430695642     3.8823050048    -0.4176233455
   50      H       1.8820592397    -0.0955287836     3.0489017495
   51      H       1.2669788495     1.0668660173     1.8072008577
   52      H       2.3730547026     1.6466251672     3.1081548188
   53      H       0.1282047992    -0.9222746949    -0.2430083958
   54      H       0.5117062141    -1.2193823411    -1.9800056290
   55      H      -0.5691257754     1.4791768341    -0.8410909436
   56      H      -0.3638862190     1.0762105667    -2.5929818349
 ----------------------------------------------------------------

    9   -1510.2778678360      7.42E-09 Convergence criterion met
 Total energy in the final basis set = -1510.27786784
 Final energy is   -1510.27786783604
 **  OPTIMIZATION CONVERGED  **

                    Orbital Energies (a.u.)
 --------------------------------------------------------------

 Alpha MOs
 -- Occupied --
-18.937 -18.934 -18.933 -18.923 -18.888 -18.887 -18.879 -18.876
-18.876 -18.874 -10.102 -10.099 -10.098 -10.097 -10.075 -10.072
-10.063 -10.061 -10.060 -10.059 -10.058 -10.058 -10.039 -10.038
-10.038 -10.036 -10.021 -10.020 -10.020 -10.019  -1.017  -1.012
 -1.009  -1.004  -0.970  -0.969  -0.940  -0.937  -0.935  -0.933
 -0.765  -0.763  -0.728  -0.723  -0.712  -0.705  -0.697  -0.662
 -0.656  -0.618  -0.597  -0.583  -0.548  -0.547  -0.538  -0.537
 -0.512  -0.510  -0.484  -0.472  -0.464  -0.464  -0.453  -0.442
 -0.438  -0.431  -0.428  -0.414  -0.412  -0.409  -0.407  -0.397
 -0.390  -0.379  -0.376  -0.366  -0.363  -0.356  -0.353  -0.349
 -0.348  -0.341  -0.337  -0.332  -0.330  -0.329  -0.327  -0.310
 -0.308  -0.306  -0.306  -0.298  -0.290  -0.289  -0.285  -0.275
 -0.273  -0.256  -0.253  -0.249  -0.248  -0.234  -0.232  -0.181
 -0.178  -0.175  -0.171  -0.159  -0.155  -0.150  -0.147  -0.144
 -0.142

          Ground-State Mulliken Net Atomic Charges

     Atom                 Charge (a.u.)
  ----------------------------------------
      1 O                    -0.204047
      2 C                     0.211540
      3 C                    -0.077759
      4 C                    -0.079765
      5 C                     0.209337
      6 O                    -0.169840
      7 C                    -0.047795
      8 C                    -0.050889
      9 O                    -0.184451
     10 C                     0.213060
     11 C                    -0.077627
     12 C                    -0.080148
     13 C                     0.207931
     14 O                    -0.211115
     15 O                    -0.173600
     16 O                    -0.165795
     17 O                    -0.204258
     18 C                    -0.128217
     19 C                     0.025852
     20 C                    -0.145288
     21 C                    -0.142498
     22 C                     0.026074
     23 O                    -0.183660
     24 H                     0.084937
     25 H                     0.083473
     26 H                     0.087350
     27 H                     0.078173
     28 H                     0.072682
     29 H                     0.078109
     30 H                     0.073533
     31 H                     0.084701
     32 O                    -0.216559
     33 C                    -0.129729
     34 C                     0.024956
     35 C                    -0.144639
     36 C                    -0.143095
     37 C                     0.025395
     38 O                    -0.185135
     39 H                     0.085563
     40 H                     0.086331
     41 H                     0.092529
     42 H                     0.089367
     43 H                     0.078625
     44 H                     0.073103
     45 H                     0.078701
     46 H                     0.073443
     47 H                     0.084286
     48 H                     0.090109
     49 H                     0.089730
     50 H                     0.095108
     51 H                     0.091699
     52 H                     0.089267
     53 H                     0.093899
     54 H                     0.082062
     55 H                     0.093804
     56 H                     0.091180
  ----------------------------------------
  Sum of atomic charges =     0.000000

                    Cartesian Multipole Moments
 -----------------------------------------------------------------
    Charge (ESU x 10^10)
                 0.0000
    Dipole Moment (Debye)
         X      -0.2176      Y       0.4266      Z      -3.7477
       Tot       3.7782
    Quadrupole Moments (Debye-Ang)
        XX    -142.2840     XY       7.4051     YY    -161.5193
        XZ       2.2445     YZ       3.4274     ZZ    -160.4589

 Total job time:  60.11s(wall), 2853.61s(cpu)
        *  Thank you very much for using Q-Chem.  Have a nice day.  *
