 Q-Chem 5.0, Q-Chem, Inc., Pleasanton, CA (2017)
 Q-Chem 5.0.1 for Intel X86 EM64T Linux

User input:
--------------------------------------------------------------
$molecule
0  1
O -4.7614717679 1.5779383031 1.8471926561
C -4.6427796476 1.3045389369 0.6352263771
C -5.1228474381 0.0088467499 -0.1123690819
C -3.9002172047 -0.8798341875 -0.6056679912
C -2.5159035194 -0.1750186629 -0.4068050511
O -1.9785109674 0.1147522716 -1.7065416684
C -0.6055351177 0.6621775932 -1.5940890184
C 0.4410610388 -0.4372244114 -1.1932060877
O 1.730530644 0.2751354343 -1.0336875071
C 2.7772465078 -0.6595489474 -0.7053714313
C 4.1450439948 -0.0783448524 -1.2273328449
C 4.7802815884 0.9811487761 -0.2256175761
C 3.7263181425 1.504398077 0.8055225597
O 3.2342056291 2.6520920456 0.8638042368
O -3.9514706732 2.1266464138 -0.315898228
O 3.2988740234 0.4018814231 1.6132532016
O 2.5692506406 -1.8027725357 -0.249052053
C 2.1350201088 0.7928533402 2.4417826272
C 5.2326438096 -1.2276362121 -1.1493718962
C 6.5716232374 -0.7299032856 -1.8256553505
C 7.1597845136 0.2004886317 -0.6993426441
C 5.9962558427 0.1461042353 0.3676567287
O 5.5487025338 -1.2618796587 0.2981799857
H 4.0031566019 0.3409722652 -2.2390959632
H 5.1483971288 1.8623328736 -0.780215578
H 4.8656229773 -2.2175912327 -1.4825567223
H 7.2377648824 -1.5803076921 -2.0406931077
H 6.3794245864 -0.1863508324 -2.764845033
H 8.0861289563 -0.2189248484 -0.2750003717
H 7.3621587678 1.224576458 -1.0512432668
H 6.2846618544 0.4121149017 1.4029274132
O -1.9371206543 0.0904520268 0.669408577
C -3.3261767535 3.2786122635 0.3724732601
C -5.8167062027 -0.9818103282 0.9069387758
C -6.5030993585 -2.1531396268 0.0993431631
C -5.2552713903 -3.0292520296 -0.2925810458
C -4.0793673813 -2.1662959057 0.3131123502
O -4.658718369 -1.6326486248 1.5655882692
H -5.7777659551 0.2902558992 -0.9566510108
H -4.0013369717 -1.1290144077 -1.676405482
H -2.5614862746 2.9401387647 1.1020596638
H -6.453265853 -0.4796668353 1.6607195554
H -7.2027612854 -2.7097501715 0.7425844018
H -7.0517767593 -1.7808728763 -0.7806689117
H -5.2902636134 -4.0185461871 0.1910406236
H -5.1553902049 -3.1707525916 -1.3807178985
H -3.1428700196 -2.7184104196 0.5236355103
H -4.0768305816 3.8954639578 0.9068661321
H -2.8430695642 3.8823050048 -0.4176233455
H 1.8820592397 -0.0955287836 3.0489017495
H 1.2669788495 1.0668660173 1.8072008577
H 2.3730547026 1.6466251672 3.1081548188
H 0.1282047992 -0.9222746949 -0.2430083958
H 0.5117062141 -1.2193823411 -1.980005629
H -0.5691257754 1.4791768341 -0.8410909436
H -0.363886219 1.0762105667 -2.5929818349
$end

$rem
JOBTYPE                   OPT
METHOD                    B3LYP
DFT_D                     d3_op
BASIS                     STO-3G
GEOM_OPT_MAX_CYCLES       100
GEOM_OPT_TOL_GRADIENT     300
GEOM_OPT_TOL_DISPLACEMENT 1200
GEOM_OPT_TOL_ENERGY       100
SYMMETRY                  False
THRESH                    12
SCF_CONVERGENCE           8
MAX_SUB_FILE_NUM          128
MEM_STATIC                400
MEM_TOTAL                 4000
$end
--------------------------------------------------------------

   16   -1510.2778302689      4.78E-09 Convergence criterion met
 Total energy in the final basis set = -1510.27783027
   14   -1510.2827599708      5.84E-09 Convergence criterion met
 Total energy in the final basis set = -1510.28275997
   14   -1510.2863826618      6.91E-09 Convergence criterion met
 Total energy in the final basis set = -1510.28638266
   14   -1510.2889296175      2.06E-09 Convergence criterion met
 Total energy in the final basis set = -1510.28892962
   14   -1510.2890701456      4.17E-09 Convergence criterion met
 Total energy in the final basis set = -1510.28907015
   14   -1510.2911070249      1.53E-09 Convergence criterion met
 Total energy in the final basis set = -1510.29110702
   14   -1510.2917048844      3.18E-09 Convergence criterion met
 Total energy in the final basis set = -1510.29170488
   13   -1510.2922933513      7.45E-09 Convergence criterion met
   12   -1510.2999880665      4.00E-09 Convergence criterion met
 Total energy in the final basis set = -1510.29998807
   11   -1510.2999910325      4.33E-09 Convergence criterion met
 Total energy in the final basis set = -1510.29999103
   11   -1510.2999924470      1.81E-09 Convergence criterion met
 Total energy in the final basis set = -1510.29999245
   11   -1510.2999898814      2.78E-09 Convergence criterion met
 Total energy in the final basis set = -1510.29998988
   10   -1510.2999875365      4.81E-09 Convergence criterion met
 Total energy in the final basis set = -1510.29998754
    9   -1510.2999897330      8.27E-09 Convergence criterion met
 Total energy in the final basis set = -1510.29998973

             Standard Nuclear Orientation (Angstroms)
    I     Atom           X                Y                Z
 ----------------------------------------------------------------
    1      O      -2.7033000905     2.2494897436     1.2997287800
    2      C      -2.9987099939     1.5918606388     0.2786872144
    3      C      -4.0056871744     0.3897905877     0.1772892644
    4      C      -3.3776587069    -0.9091068253    -0.4899087452
    5      C      -1.8735074962    -0.7228257751    -0.8811619010
    6      O      -1.7466075913    -0.7881489437    -2.3030319793
    7      C      -0.3426764709    -0.5112980835    -2.6989801349
    8      C       0.5726186708    -1.7939467902    -2.5980047674
    9      O       1.9787402244    -1.3506201487    -2.4373414901
   10      C       2.3532814608    -1.3975734825    -1.0503065799
   11      C       3.7141667143    -0.6426154625    -0.8995605997
   12      C       3.5295669864     0.8420195895    -0.3476713240
   13      C       2.0268491008     1.1731358779    -0.0129880366
   14      O       1.1400099746     1.4327538865    -0.8678283019
   15      O      -2.4784642625     1.8289853964    -1.0295200498
   16      O       1.8199413639     1.1203447425     1.3828687752
   17      O       1.6732435536    -1.9426580576    -0.1542213971
   18      C       0.3824338792     1.2892313284     1.7273213962
   19      C       4.6458574733    -1.2642461920     0.2261777214
   20      C       6.1116644577    -0.7281320502    -0.0109403817
   21      C       5.9653813237     0.7639346462     0.4668696147
   22      C       4.4556344095     0.7930880034     0.9362518037
   23      O       4.2230613431    -0.5715819081     1.4637288787
   24      H       4.2113274004    -0.6305539337    -1.8851936753
   25      H       3.8805171336     1.5777282394    -1.0940439104
   26      H       4.5505511758    -2.3608254163     0.3456547475
   27      H       6.8283921463    -1.2833348631     0.6149450203
   28      H       6.4224893517    -0.8127566993    -1.0645519024
   29      H       6.6357081446     0.9862148936     1.3121562406
   30      H       6.1617002507     1.4896527288    -0.3386433918
   31      H       4.2112210523     1.5519128204     1.7033645995
   32      O      -0.9007955131    -0.5727942407    -0.1069375695
   33      C      -1.4371867989     2.8873581366    -1.0058779499
   34      C      -4.3897510999    -0.1555973680     1.6124931580
   35      C      -5.6740007594    -1.0617396570     1.4794996658
   36      C      -5.0665657028    -2.3505223898     0.8088822572
   37      C      -3.5417365317    -1.9502579065     0.7001504980
   38      O      -3.3088366740    -1.1259633216     1.9071872448
   39      H      -4.8938436467     0.7247007650    -0.3894435321
   40      H      -3.9376496124    -1.2100515782    -1.3921314998
   41      H      -0.4307986615     2.4119379292    -0.9071485290
   42      H      -4.4261899663     0.6297524460     2.3925358599
   43      H      -6.0938225321    -1.2841203344     2.4733254150
   44      H      -6.4554806483    -0.5890784449     0.8633852655
   45      H      -5.1853631671    -3.2358739773     1.4535157500
   46      H      -5.5110673111    -2.5677536809    -0.1755296056
   47      H      -2.8309619266    -2.7988663675     0.6695330007
   48      H      -1.6130503385     3.5807524792    -0.1607206464
   49      H      -1.5099329892     3.4289906867    -1.9669036599
   50      H       0.3091382276     1.0589228731     2.8051475900
   51      H      -0.2458013001     0.5833068194     1.1342769202
   52      H       0.0493934668     2.3313819244     1.5514026016
   53      H       0.2821328060    -2.3971410516    -1.7103860302
   54      H       0.5159474330    -2.4110764803    -3.5163402516
   55      H       0.1071809299     0.2778888776    -2.0484251009
   56      H      -0.3939798988    -0.1505505897    -3.7447847819
 ----------------------------------------------------------------

    9   -1510.2999891625      7.68E-09 Convergence criterion met
 Total energy in the final basis set = -1510.29998916
 Final energy is   -1510.29998916248
 **  OPTIMIZATION CONVERGED  **

                    Orbital Energies (a.u.)
 --------------------------------------------------------------

 Alpha MOs
 -- Occupied --
-18.941 -18.933 -18.928 -18.927 -18.886 -18.885 -18.878 -18.877
-18.874 -18.872 -10.107 -10.101 -10.097 -10.096 -10.062 -10.058
-10.058 -10.057 -10.056 -10.055 -10.039 -10.038 -10.038 -10.037
-10.036 -10.035 -10.019 -10.019 -10.018 -10.018  -1.015  -1.011
 -1.007  -1.003  -0.968  -0.967  -0.937  -0.937  -0.932  -0.931
 -0.763  -0.761  -0.725  -0.721  -0.709  -0.704  -0.691  -0.652
 -0.648  -0.615  -0.594  -0.577  -0.545  -0.543  -0.536  -0.534
 -0.511  -0.505  -0.479  -0.473  -0.462  -0.457  -0.450  -0.444
 -0.434  -0.430  -0.427  -0.422  -0.410  -0.405  -0.399  -0.393
 -0.382  -0.375  -0.371  -0.363  -0.358  -0.357  -0.353  -0.349
 -0.343  -0.338  -0.330  -0.329  -0.327  -0.323  -0.316  -0.309
 -0.307  -0.305  -0.302  -0.298  -0.286  -0.285  -0.284  -0.276
 -0.269  -0.259  -0.245  -0.242  -0.238  -0.232  -0.230  -0.188
 -0.176  -0.171  -0.161  -0.159  -0.155  -0.149  -0.148  -0.141
 -0.141

          Ground-State Mulliken Net Atomic Charges

     Atom                 Charge (a.u.)
  ----------------------------------------
      1 O                    -0.214713
      2 C                     0.210444
      3 C                    -0.078228
      4 C                    -0.078912
      5 C                     0.219129
      6 O                    -0.168251
      7 C                    -0.061576
      8 C                    -0.057831
      9 O                    -0.174155
     10 C                     0.206184
     11 C                    -0.078983
     12 C                    -0.076859
     13 C                     0.220559
     14 O                    -0.226392
     15 O                    -0.174632
     16 O                    -0.157364
     17 O                    -0.202061
     18 C                    -0.143761
     19 C                     0.025786
     20 C                    -0.143607
     21 C                    -0.144755
     22 C                     0.025828
     23 O                    -0.183424
     24 H                     0.086268
     25 H                     0.084394
     26 H                     0.085522
     27 H                     0.078082
     28 H                     0.072991
     29 H                     0.078052
     30 H                     0.072436
     31 H                     0.089917
     32 O                    -0.217520
     33 C                    -0.151390
     34 C                     0.023667
     35 C                    -0.143975
     36 C                    -0.143950
     37 C                     0.025441
     38 O                    -0.186929
     39 H                     0.084829
     40 H                     0.086655
     41 H                     0.110926
     42 H                     0.090210
     43 H                     0.078192
     44 H                     0.072883
     45 H                     0.078211
     46 H                     0.073229
     47 H                     0.084540
     48 H                     0.087335
     49 H                     0.080896
     50 H                     0.091175
     51 H                     0.121834
     52 H                     0.083029
     53 H                     0.099547
     54 H                     0.083983
     55 H                     0.112139
     56 H                     0.084953
  ----------------------------------------
  Sum of atomic charges =    -0.000000

                    Cartesian Multipole Moments
 -----------------------------------------------------------------
    Charge (ESU x 10^10)
                 0.0000
    Dipole Moment (Debye)
         X       0.0582      Y       0.2412      Z      -2.6297
       Tot       2.6413
    Quadrupole Moments (Debye-Ang)
        XX    -135.8218     XY       6.3572     YY    -155.5101
        XZ      -3.2624     YZ       2.8445     ZZ    -164.7313

 Total job time:  230.41s(wall), 10991.45s(cpu)
        *  Thank you very much for using Q-Chem.  Have a nice day.  *
