 Q-Chem 5.0, Q-Chem, Inc., Pleasanton, CA (2017)
 Q-Chem 5.0.1 for Intel X86 EM64T Linux

User input:
--------------------------------------------------------------
$molecule
0  1
O -3.9255479232 1.6647006766 1.616748025
C -4.1744564681 1.4503924018 0.4111981461
C -4.7940083422 0.1582080797 -0.2274573825
C -3.6788450991 -0.888821661 -0.6781199431
C -2.2235632147 -0.3775694545 -0.4072775679
O -1.8084169648 0.4209249115 -1.5251683442
C -0.4035225359 0.8547250126 -1.3361661781
C 0.6100658083 -0.3257253081 -1.5386019334
O 1.9317231718 0.2582002463 -1.2262144263
C 2.98142542 -0.699767841 -1.409709093
C 4.3302938066 0.0361331335 -1.1068861816
C 4.2543161932 0.9935638232 0.1578770721
C 2.8924030166 0.9325430438 0.944919636
O 2.2037289979 1.9082715762 1.3159756007
O -3.8786940918 2.3702258418 -0.6468421546
O 2.614488155 -0.4312703645 1.2877874054
O 2.8037622475 -1.8783581154 -1.7784827154
C 1.350536987 -0.5239831075 2.0584678075
C 5.4791571897 -0.9672951109 -0.6785809477
C 6.8635975653 -0.2301638207 -0.853712654
C 6.8168817167 0.7818413955 0.3515325002
C 5.4420792559 0.393689564 1.0292921477
O 5.3300039054 -1.0632303308 0.7923227775
H 4.6126728868 0.6076350041 -2.0109554115
H 4.4345435246 2.0473140517 -0.1167561445
H 5.3972631776 -1.9685997992 -1.1450097881
H 7.6950818781 -0.944859404 -0.7469551707
H 6.9513607771 0.2714707838 -1.8306774448
H 7.6518656302 0.6166642803 1.0506103261
H 6.832648049 1.8336883875 0.0239542915
H 5.373114513 0.6158288392 2.1118910159
O -1.5110510902 -0.6067706791 0.5960013511
C -3.1839773831 3.5598414511 -0.1026326314
C -5.5801863207 -0.698632002 0.850373075
C -6.4463217271 -1.7842306123 0.0981223068
C -5.3368922377 -2.8136475933 -0.3353744006
C -4.0398538473 -2.1254750765 0.2451655528
O -4.510626857 -1.4928807816 1.4980058381
H -5.4257279515 0.4507511335 -1.084788436
H -3.7727781122 -1.1215924421 -1.7537936798
H -2.2293012276 3.2824228745 0.3893975658
H -6.1195867688 -0.0945965124 1.6052694289
H -7.1717517548 -2.2408642503 0.7899080438
H -6.9945236544 -1.3608182035 -0.7588029499
H -5.4928065953 -3.797418262 0.1350516959
H -5.2836060234 -2.9484953578 -1.4276018238
H -3.1891520254 -2.8031475181 0.4519911488
H -3.8131056653 4.1021931159 0.6324426932
H -2.9774207808 4.2152114037 -0.9685349267
H 1.3513050551 -1.5282308448 2.5204375081
H 0.4512991566 -0.424587765 1.4095886494
H 1.3036298311 0.2509194252 2.8492063544
H 0.373727014 -1.1645889078 -0.8503511137
H 0.5735820327 -0.7064905087 -2.5824506183
H -0.2508535827 1.2863946034 -0.3230587375
H -0.2267282163 1.641204945 -2.096014658
$end

$rem
JOBTYPE                   OPT
METHOD                    B3LYP
DFT_D                     d3_op
BASIS                     STO-3G
GEOM_OPT_MAX_CYCLES       100
GEOM_OPT_TOL_GRADIENT     300
GEOM_OPT_TOL_DISPLACEMENT 1200
GEOM_OPT_TOL_ENERGY       100
SYMMETRY                  False
THRESH                    12
SCF_CONVERGENCE           8
MAX_SUB_FILE_NUM          128
MEM_STATIC                400
MEM_TOTAL                 4000
$end
--------------------------------------------------------------

   16   -1510.2872422862      5.00E-09 Convergence criterion met
 Total energy in the final basis set = -1510.28724229
   15   -1510.2785279327      2.84E-09 Convergence criterion met
 Total energy in the final basis set = -1510.27852793
   15   -1510.2870405675      2.10E-09 Convergence criterion met
 Total energy in the final basis set = -1510.28704057
   14   -1510.2882262429      9.93E-09 Convergence criterion met
 Total energy in the final basis set = -1510.28822624
   13   -1510.2890485538      7.78E-09 Convergence criterion met
 Total energy in the final basis set = -1510.28904855
   13   -1510.2891488583      7.73E-09 Convergence criterion met
 Total energy in the final basis set = -1510.28914886
   13   -1510.2900223529      4.06E-09 Convergence criterion met
 Total energy in the final basis set = -1510.29002235
   14   -1510.2904741530      6.09E-09 Convergence criterion met
   11   -1510.2998106617      7.03E-09 Convergence criterion met
 Total energy in the final basis set = -1510.29981066
   11   -1510.2998163303      3.25E-09 Convergence criterion met
 Total energy in the final basis set = -1510.29981633
    9   -1510.2998174519      8.12E-09 Convergence criterion met
 Total energy in the final basis set = -1510.29981745
   11   -1510.2998189345      2.40E-09 Convergence criterion met
 Total energy in the final basis set = -1510.29981893
   11   -1510.2998153264      2.31E-09 Convergence criterion met
 Total energy in the final basis set = -1510.29981533
    9   -1510.2998187696      8.10E-09 Convergence criterion met
 Total energy in the final basis set = -1510.29981877

             Standard Nuclear Orientation (Angstroms)
    I     Atom           X                Y                Z
 ----------------------------------------------------------------
    1      O      -2.7978551694     1.8718706715     1.7797031034
    2      C      -3.0658117450     1.4785298817     0.6241346515
    3      C      -4.0171166977     0.2970613866     0.2129847060
    4      C      -3.3312501527    -0.7495024464    -0.7666954309
    5      C      -1.8371567831    -0.4005562129    -1.0757987311
    6      O      -1.6959029735    -0.0905693539    -2.4637828979
    7      C      -0.2983476651     0.3234753479    -2.7462664039
    8      C       0.6561749054    -0.9139443366    -2.9773546678
    9      O       2.0381484185    -0.5132752593    -2.6181225539
   10      C       2.3459251144    -0.9500940683    -1.2838583824
   11      C       3.6880127692    -0.2697167988    -0.8581362068
   12      C       3.4636180234     0.9907258738     0.0940098845
   13      C       1.9435768825     1.2203831448     0.4366192922
   14      O       1.0878529397     1.6817511422    -0.3627971110
   15      O      -2.5497823349     2.0518166750    -0.5776837988
   16      O       1.6821209656     0.8203561162     1.7660704373
   17      O       1.6331599872    -1.7292303018    -0.6149573605
   18      C       0.2287337824     0.8816776111     2.0770765569
   19      C       4.5753961441    -1.1954295120     0.0789909483
   20      C       6.0443859716    -0.6173184031     0.0819937275
   21      C       5.8576489320     0.6686310396     0.9698642490
   22      C       4.3269891493     0.5634765387     1.3506450535
   23      O       4.0853652325    -0.8952294315     1.4428738338
   24      H       4.2279170171     0.0274445844    -1.7742457274
   25      H       3.8457607455     1.9090886809    -0.3875672572
   26      H       4.4879098198    -2.2786559625    -0.1327809446
   27      H       6.7371071503    -1.3341534252     0.5509127967
   28      H       6.4061780552    -0.3881183842    -0.9331557327
   29      H       6.4824097615     0.6278357199     1.8760290271
   30      H       6.0869346242     1.5985760755     0.4252781565
   31      H       4.0374478553     1.0636979936     2.2939976387
   32      O      -0.8770886878    -0.4185938813    -0.2718581297
   33      C      -1.5281700747     3.0871515541    -0.2801685712
   34      C      -4.3594096316    -0.6229783179     1.4555398262
   35      C      -5.5988238360    -1.5270639066     1.0836476248
   36      C      -4.9346878310    -2.5613866791     0.1005163320
   37      C      -3.4325854749    -2.0723913281     0.1086968473
   38      O      -3.2288619662    -1.5806546170     1.4898374064
   39      H      -4.9269693842     0.7240485860    -0.2480083788
   40      H      -3.8787953302    -0.8327250941    -1.7215703142
   41      H      -1.7569687199     3.5989655508     0.6748927276
   42      H      -4.4282858612    -0.0719070382     2.4136443862
   43      H      -5.9965499647    -2.0238534831     1.9828046320
   44      H      -6.4089045731    -0.9489406004     0.6112029100
   45      H      -5.0066422310    -3.5905421040     0.4870223638
   46      H      -5.3733871161    -2.5325385106    -0.9097517861
   47      H      -2.6804225240    -2.8456080544    -0.1410538825
   48      H      -1.5595820626     3.8102453344    -1.1156933962
   49      H      -0.5191730043     2.6093972932    -0.2260926229
   50      H       0.1157032240     0.3850808139     3.0572512640
   51      H      -0.3566318585     0.3425994281     1.2952352928
   52      H      -0.1206717709     1.9304515051     2.1545184875
   53      H       0.3431329059    -1.7570652432    -2.3237970837
   54      H       0.6646778001    -1.2342899547    -4.0379505076
   55      H       0.1210018929     0.9140361484    -1.8961976015
   56      H      -0.3507732017     0.9535727708    -3.6552722167
 ----------------------------------------------------------------

    9   -1510.2998189064      5.27E-09 Convergence criterion met
 Total energy in the final basis set = -1510.29981891
 Final energy is   -1510.29981890643
 **  OPTIMIZATION CONVERGED  **

                    Orbital Energies (a.u.)
 --------------------------------------------------------------

 Alpha MOs
 -- Occupied --
-18.939 -18.933 -18.928 -18.928 -18.885 -18.885 -18.876 -18.876
-18.873 -18.872 -10.105 -10.100 -10.096 -10.096 -10.062 -10.058
-10.058 -10.057 -10.056 -10.055 -10.039 -10.038 -10.037 -10.036
-10.036 -10.035 -10.019 -10.019 -10.018 -10.018  -1.015  -1.010
 -1.007  -1.003  -0.968  -0.967  -0.936  -0.936  -0.932  -0.931
 -0.762  -0.761  -0.724  -0.721  -0.709  -0.703  -0.690  -0.652
 -0.647  -0.615  -0.594  -0.577  -0.544  -0.543  -0.535  -0.534
 -0.510  -0.505  -0.478  -0.473  -0.462  -0.458  -0.450  -0.443
 -0.434  -0.430  -0.426  -0.422  -0.410  -0.404  -0.398  -0.392
 -0.382  -0.375  -0.370  -0.362  -0.358  -0.356  -0.353  -0.348
 -0.343  -0.338  -0.330  -0.329  -0.327  -0.322  -0.316  -0.308
 -0.307  -0.304  -0.302  -0.297  -0.286  -0.284  -0.283  -0.275
 -0.269  -0.259  -0.246  -0.241  -0.238  -0.232  -0.230  -0.186
 -0.175  -0.171  -0.161  -0.159  -0.154  -0.149  -0.148  -0.141
 -0.140

          Ground-State Mulliken Net Atomic Charges

     Atom                 Charge (a.u.)
  ----------------------------------------
      1 O                    -0.214234
      2 C                     0.210584
      3 C                    -0.078283
      4 C                    -0.078810
      5 C                     0.219022
      6 O                    -0.168407
      7 C                    -0.061530
      8 C                    -0.057403
      9 O                    -0.174061
     10 C                     0.206621
     11 C                    -0.078969
     12 C                    -0.076897
     13 C                     0.220726
     14 O                    -0.226048
     15 O                    -0.174465
     16 O                    -0.158425
     17 O                    -0.202394
     18 C                    -0.143877
     19 C                     0.025715
     20 C                    -0.143627
     21 C                    -0.144829
     22 C                     0.025659
     23 O                    -0.183753
     24 H                     0.085984
     25 H                     0.084162
     26 H                     0.085240
     27 H                     0.077982
     28 H                     0.072868
     29 H                     0.077915
     30 H                     0.072348
     31 H                     0.090459
     32 O                    -0.217321
     33 C                    -0.150312
     34 C                     0.023672
     35 C                    -0.143950
     36 C                    -0.143969
     37 C                     0.025455
     38 O                    -0.186895
     39 H                     0.084781
     40 H                     0.086509
     41 H                     0.086630
     42 H                     0.090118
     43 H                     0.078213
     44 H                     0.072919
     45 H                     0.078187
     46 H                     0.073215
     47 H                     0.084906
     48 H                     0.081492
     49 H                     0.111074
     50 H                     0.090604
     51 H                     0.121806
     52 H                     0.083068
     53 H                     0.098935
     54 H                     0.084003
     55 H                     0.112686
     56 H                     0.084897
  ----------------------------------------
  Sum of atomic charges =    -0.000000

                    Cartesian Multipole Moments
 -----------------------------------------------------------------
    Charge (ESU x 10^10)
                 0.0000
    Dipole Moment (Debye)
         X       0.0709      Y       0.8614      Z      -2.4041
       Tot       2.5547
    Quadrupole Moments (Debye-Ang)
        XX    -136.2042     XY       7.1545     YY    -157.3163
        XZ      -0.7689     YZ       4.6495     ZZ    -162.4981

 Total job time:  178.44s(wall), 8517.73s(cpu)
        *  Thank you very much for using Q-Chem.  Have a nice day.  *
