 Q-Chem 5.0, Q-Chem, Inc., Pleasanton, CA (2017)
 Q-Chem 5.0.1 for Intel X86 EM64T Linux

User input:
--------------------------------------------------------------
$molecule
0  1
O -3.94934 -3.66094 2.70899
C -3.26408 -4.56952 2.26188
C -3.36658 -6.02376 2.66595
C -2.47373 -6.49548 3.82533
C -1.70912 -5.42196 4.56764
O -0.53106 -5.16392 3.92654
C 0.28604 -4.20943 4.61251
C 0.8924 -4.83858 5.86257
O 1.64065 -3.85357 6.59248
C 2.26383 -4.30439 7.70942
C 3.07409 -3.23537 8.4032
C 2.39862 -1.85833 8.47929
C 0.91189 -1.83453 8.18643
O 0.35166 -1.05873 7.42561
O -2.20556 -4.25833 1.46932
O 0.14046 -2.71343 8.88404
O 2.03918 -5.39953 8.21085
C -1.2275 -2.82585 8.75229
C 3.38554 -3.49461 9.88968
C 4.62333 -2.69741 10.30104
C 4.06764 -1.28686 10.29774
C 2.59528 -1.5705 9.98101
O 2.35892 -2.82484 10.578
H 4.02379 -3.16686 7.82653
H 2.88367 -1.09123 7.83547
H 3.5244 -4.56977 10.13452
H 4.86384 -2.98065 11.35091
H 5.52041 -2.85563 9.66454
H 4.16901 -0.86797 11.32363
H 4.52556 -0.59596 9.55716
H 1.95223 -0.73406 10.33438
O -2.07475 -4.90639 5.61951
C -1.88416 -2.97872 1.06827
C -4.76328 -6.33441 3.25013
C -5.05991 -7.82983 3.14338
C -4.1384 -8.37219 4.21142
C -3.56123 -7.0655 4.76488
O -4.61392 -6.14567 4.6325
H -3.25242 -6.62513 1.73636
H -1.76146 -7.30843 3.55901
H -1.67023 -2.3429 1.95402
H -5.57969 -5.75593 2.76369
H -6.11254 -7.98632 3.47169
H -4.92247 -8.2641 2.12978
H -4.75798 -8.87444 4.98767
H -3.34692 -9.06477 3.85204
H -3.18534 -7.23071 5.79922
H -2.72012 -2.54 0.48253
H -0.97893 -3.01489 0.42823
H -1.59405 -3.62113 9.43302
H -1.48852 -3.09993 7.70809
H -1.71848 -1.86695 9.0234
H 0.10273 -5.23982 6.53059
H 1.55192 -5.68048 5.55319
H -0.29549 -3.29047 4.85602
H 1.11901 -3.90454 3.94427
$end

$opt
CONSTRAINT
tors           1           2           3           4     -91.047
tors           3           4           5           6     -85.743
tors           4           5           6           7    -176.672
tors           5           6           7           8     +72.794
tors           6           7           8           9    -176.305
tors           7           8           9          10    -178.120
tors           8           9          10          11    +177.869
tors           9          10          11          12     +41.694
tors          11          12          13          14    -131.616
ENDCONSTRAINT
$end

$rem
JOBTYPE                   OPT
METHOD                    B3LYP
DFT_D                     d3_op
BASIS                     STO-3G
GEOM_OPT_MAX_CYCLES       100
GEOM_OPT_TOL_GRADIENT     300
GEOM_OPT_TOL_DISPLACEMENT 1200
GEOM_OPT_TOL_ENERGY       100
SYMMETRY                  False
THRESH                    12
SCF_CONVERGENCE           8
MAX_SUB_FILE_NUM          128
MEM_STATIC                400
MEM_TOTAL                 4000
$end
--------------------------------------------------------------

   15   -1510.1574838304      7.35E-09 Convergence criterion met
 Total energy in the final basis set = -1510.15748383
   14   -1510.2266195309      6.22E-09 Convergence criterion met
 Total energy in the final basis set = -1510.22661953
   14   -1510.2637108702      6.19E-09 Convergence criterion met
 Total energy in the final basis set = -1510.26371087
   14   -1510.2801012095      8.12E-09 Convergence criterion met
 Total energy in the final basis set = -1510.28010121
   14   -1510.2847432679      5.58E-09 Convergence criterion met
 Total energy in the final basis set = -1510.28474327
   13   -1510.2843433498      5.70E-09 Convergence criterion met
 Total energy in the final basis set = -1510.28434335
   13   -1510.2860385084      7.34E-09 Convergence criterion met
 Total energy in the final basis set = -1510.28603851
   13   -1510.2862794669      5.52E-09 Convergence criterion met
   11   -1510.2869293674      2.96E-09 Convergence criterion met
 Total energy in the final basis set = -1510.28692937
   11   -1510.2869390136      4.02E-09 Convergence criterion met
 Total energy in the final basis set = -1510.28693901
   11   -1510.2869448697      3.07E-09 Convergence criterion met
 Total energy in the final basis set = -1510.28694487
    9   -1510.2869497905      9.79E-09 Convergence criterion met
 Total energy in the final basis set = -1510.28694979
   11   -1510.2869545504      1.83E-09 Convergence criterion met
 Total energy in the final basis set = -1510.28695455
    9   -1510.2869564128      7.51E-09 Convergence criterion met
 Total energy in the final basis set = -1510.28695641

             Standard Nuclear Orientation (Angstroms)
    I     Atom           X                Y                Z
 ----------------------------------------------------------------
    1      O      -3.9255479232     1.6647006766     1.6167480250
    2      C      -4.1744564681     1.4503924018     0.4111981461
    3      C      -4.7940083422     0.1582080797    -0.2274573825
    4      C      -3.6788450991    -0.8888216610    -0.6781199431
    5      C      -2.2235632147    -0.3775694545    -0.4072775679
    6      O      -1.8084169648     0.4209249115    -1.5251683442
    7      C      -0.4035225359     0.8547250126    -1.3361661781
    8      C       0.6100658083    -0.3257253081    -1.5386019334
    9      O       1.9317231718     0.2582002463    -1.2262144263
   10      C       2.9814254200    -0.6997678410    -1.4097090930
   11      C       4.3302938066     0.0361331335    -1.1068861816
   12      C       4.2543161932     0.9935638232     0.1578770721
   13      C       2.8924030166     0.9325430438     0.9449196360
   14      O       2.2037289979     1.9082715762     1.3159756007
   15      O      -3.8786940918     2.3702258418    -0.6468421546
   16      O       2.6144881550    -0.4312703645     1.2877874054
   17      O       2.8037622475    -1.8783581154    -1.7784827154
   18      C       1.3505369870    -0.5239831075     2.0584678075
   19      C       5.4791571897    -0.9672951109    -0.6785809477
   20      C       6.8635975653    -0.2301638207    -0.8537126540
   21      C       6.8168817167     0.7818413955     0.3515325002
   22      C       5.4420792559     0.3936895640     1.0292921477
   23      O       5.3300039054    -1.0632303308     0.7923227775
   24      H       4.6126728868     0.6076350041    -2.0109554115
   25      H       4.4345435246     2.0473140517    -0.1167561445
   26      H       5.3972631776    -1.9685997992    -1.1450097881
   27      H       7.6950818781    -0.9448594040    -0.7469551707
   28      H       6.9513607771     0.2714707838    -1.8306774448
   29      H       7.6518656302     0.6166642803     1.0506103261
   30      H       6.8326480490     1.8336883875     0.0239542915
   31      H       5.3731145130     0.6158288392     2.1118910159
   32      O      -1.5110510902    -0.6067706791     0.5960013511
   33      C      -3.1839773831     3.5598414511    -0.1026326314
   34      C      -5.5801863207    -0.6986320020     0.8503730750
   35      C      -6.4463217271    -1.7842306123     0.0981223068
   36      C      -5.3368922377    -2.8136475933    -0.3353744006
   37      C      -4.0398538473    -2.1254750765     0.2451655528
   38      O      -4.5106268570    -1.4928807816     1.4980058381
   39      H      -5.4257279515     0.4507511335    -1.0847884360
   40      H      -3.7727781122    -1.1215924421    -1.7537936798
   41      H      -2.2293012276     3.2824228745     0.3893975658
   42      H      -6.1195867688    -0.0945965124     1.6052694289
   43      H      -7.1717517548    -2.2408642503     0.7899080438
   44      H      -6.9945236544    -1.3608182035    -0.7588029499
   45      H      -5.4928065953    -3.7974182620     0.1350516959
   46      H      -5.2836060234    -2.9484953578    -1.4276018238
   47      H      -3.1891520254    -2.8031475181     0.4519911488
   48      H      -3.8131056653     4.1021931159     0.6324426932
   49      H      -2.9774207808     4.2152114037    -0.9685349267
   50      H       1.3513050551    -1.5282308448     2.5204375081
   51      H       0.4512991566    -0.4245877650     1.4095886494
   52      H       1.3036298311     0.2509194252     2.8492063544
   53      H       0.3737270140    -1.1645889078    -0.8503511137
   54      H       0.5735820327    -0.7064905087    -2.5824506183
   55      H      -0.2508535827     1.2863946034    -0.3230587375
   56      H      -0.2267282163     1.6412049450    -2.0960146580
 ----------------------------------------------------------------

    9   -1510.2869570249      6.41E-09 Convergence criterion met
 Total energy in the final basis set = -1510.28695702
 Final energy is   -1510.28695702486
 **  OPTIMIZATION CONVERGED  **

                    Orbital Energies (a.u.)
 --------------------------------------------------------------

 Alpha MOs
 -- Occupied --
-18.945 -18.937 -18.935 -18.918 -18.889 -18.888 -18.885 -18.881
-18.877 -18.858 -10.109 -10.104 -10.099 -10.089 -10.079 -10.077
-10.064 -10.062 -10.061 -10.057 -10.056 -10.043 -10.042 -10.040
-10.037 -10.032 -10.022 -10.021 -10.019 -10.018  -1.023  -1.017
 -1.011  -0.995  -0.971  -0.967  -0.947  -0.941  -0.936  -0.922
 -0.767  -0.761  -0.731  -0.723  -0.712  -0.704  -0.699  -0.664
 -0.646  -0.620  -0.597  -0.585  -0.550  -0.545  -0.539  -0.535
 -0.515  -0.508  -0.486  -0.471  -0.467  -0.463  -0.458  -0.444
 -0.433  -0.431  -0.427  -0.415  -0.412  -0.403  -0.401  -0.400
 -0.396  -0.384  -0.373  -0.363  -0.361  -0.357  -0.354  -0.351
 -0.347  -0.342  -0.335  -0.332  -0.331  -0.327  -0.321  -0.313
 -0.308  -0.307  -0.304  -0.298  -0.293  -0.287  -0.283  -0.278
 -0.275  -0.263  -0.254  -0.250  -0.238  -0.235  -0.231  -0.189
 -0.181  -0.177  -0.167  -0.160  -0.158  -0.152  -0.145  -0.141
 -0.139

          Ground-State Mulliken Net Atomic Charges

     Atom                 Charge (a.u.)
  ----------------------------------------
      1 O                    -0.206320
      2 C                     0.203887
      3 C                    -0.077667
      4 C                    -0.077904
      5 C                     0.208375
      6 O                    -0.166647
      7 C                    -0.049421
      8 C                    -0.049372
      9 O                    -0.175435
     10 C                     0.219329
     11 C                    -0.078738
     12 C                    -0.078468
     13 C                     0.213056
     14 O                    -0.223929
     15 O                    -0.169053
     16 O                    -0.173077
     17 O                    -0.208855
     18 C                    -0.138277
     19 C                     0.024507
     20 C                    -0.143531
     21 C                    -0.144421
     22 C                     0.025735
     23 O                    -0.185472
     24 H                     0.083624
     25 H                     0.083112
     26 H                     0.089626
     27 H                     0.077975
     28 H                     0.072324
     29 H                     0.077733
     30 H                     0.073170
     31 H                     0.082891
     32 O                    -0.208757
     33 C                    -0.128927
     34 C                     0.025688
     35 C                    -0.144117
     36 C                    -0.143861
     37 C                     0.025616
     38 O                    -0.184128
     39 H                     0.086820
     40 H                     0.087198
     41 H                     0.089577
     42 H                     0.087433
     43 H                     0.078890
     44 H                     0.073461
     45 H                     0.079073
     46 H                     0.073266
     47 H                     0.087041
     48 H                     0.089584
     49 H                     0.090434
     50 H                     0.087351
     51 H                     0.097184
     52 H                     0.087944
     53 H                     0.094838
     54 H                     0.087373
     55 H                     0.098768
     56 H                     0.093496
  ----------------------------------------
  Sum of atomic charges =     0.000000

                    Cartesian Multipole Moments
 -----------------------------------------------------------------
    Charge (ESU x 10^10)
                 0.0000
    Dipole Moment (Debye)
         X      -0.7590      Y       1.1391      Z      -3.3742
       Tot       3.6413
    Quadrupole Moments (Debye-Ang)
        XX    -138.8633     XY       9.5433     YY    -159.5348
        XZ       3.4763     YZ      -1.1787     ZZ    -163.5642

 Total job time:  68.27s(wall), 3245.19s(cpu)
        *  Thank you very much for using Q-Chem.  Have a nice day.  *
