 Q-Chem 5.0, Q-Chem, Inc., Pleasanton, CA (2017)
 Q-Chem 5.0.1 for Intel X86 EM64T Linux

User input:
--------------------------------------------------------------
$molecule
0  1
O -3.94934 -3.66094 2.70899
C -3.26408 -4.56952 2.26188
C -3.36658 -6.02376 2.66595
C -2.69488 -6.43515 3.98634
C -2.14889 -5.31443 4.84306
O -0.96306 -4.87289 4.32898
C -0.34442 -3.86024 5.12965
C 0.73372 -4.47613 6.01533
O 1.2913 -3.47194 6.87765
C 2.27127 -3.89878 7.71228
C 2.85124 -2.78813 8.55533
C 1.87045 -1.65812 8.90092
C 0.40372 -1.96321 8.67215
O -0.36087 -1.29661 7.98979
O -2.43423 -4.30282 1.21902
O -0.09761 -3.06087 9.30474
O 2.82008 -4.98832 7.60213
C -1.4095 -3.47804 9.22727
C 3.25519 -3.2281 9.9832
C 4.32242 -2.27634 10.52371
C 3.49947 -1.02025 10.73607
C 2.09823 -1.55653 10.41849
O 2.1548 -2.90996 10.79794
H 3.77379 -2.44292 8.03659
H 2.10517 -0.71772 8.35508
H 3.61618 -4.27803 10.03932
H 4.62812 -2.67247 11.51896
H 5.22746 -2.14891 9.89168
H 3.58453 -0.7213 11.80427
H 3.75968 -0.16453 10.0759
H 1.31595 -0.9425 10.91743
O -2.62557 -4.97484 5.92131
C -2.23805 -3.0474 0.68288
C -4.82106 -6.45117 2.9191
C -4.9563 -7.96624 2.77381
C -4.26039 -8.43153 4.03449
C -3.9173 -7.0842 4.67859
O -4.98824 -6.25306 4.30044
H -2.93767 -6.61578 1.82529
H -1.88451 -7.18867 3.86321
H -1.82975 -2.36183 1.45614
H -5.54833 -5.93377 2.2553
H -6.03772 -8.21983 2.85191
H -4.54773 -8.37699 1.82545
H -5.00276 -8.96973 4.66544
H -3.36508 -9.07102 3.87735
H -3.76796 -7.22285 5.77208
H -3.19587 -2.644 0.29026
H -1.51104 -3.1179 -0.15196
H -1.53551 -4.39584 9.83714
H -1.67546 -3.70963 8.17535
H -2.08564 -2.68961 9.62114
H 0.26754 -5.27138 6.63951
H 1.51827 -4.92729 5.36728
H -1.06029 -3.28491 5.75958
H 0.11821 -3.10842 4.45589
$end

$opt
CONSTRAINT
tors           1           2           3           4     -79.290
tors           3           4           5           6     -77.521
tors           4           5           6           7    -176.672
tors           5           6           7           8     +98.600
tors           6           7           8           9    -176.305
tors           7           8           9          10    -179.642
tors           8           9          10          11    +177.869
tors           9          10          11          12     +30.603
tors          11          12          13          14    -125.162
ENDCONSTRAINT
$end

$rem
JOBTYPE                   OPT
METHOD                    B3LYP
DFT_D                     d3_op
BASIS                     STO-3G
GEOM_OPT_MAX_CYCLES       100
GEOM_OPT_TOL_GRADIENT     300
GEOM_OPT_TOL_DISPLACEMENT 1200
GEOM_OPT_TOL_ENERGY       100
SYMMETRY                  False
THRESH                    12
SCF_CONVERGENCE           8
MAX_SUB_FILE_NUM          128
MEM_STATIC                400
MEM_TOTAL                 4000
$end
--------------------------------------------------------------

   15   -1510.1577150035      8.64E-09 Convergence criterion met
 Total energy in the final basis set = -1510.15771500
   13   -1510.2265279882      9.03E-09 Convergence criterion met
 Total energy in the final basis set = -1510.22652799
   14   -1510.2630414414      2.46E-09 Convergence criterion met
 Total energy in the final basis set = -1510.26304144
   14   -1510.2782684627      3.20E-09 Convergence criterion met
 Total energy in the final basis set = -1510.27826846
   13   -1510.2815334846      8.24E-09 Convergence criterion met
 Total energy in the final basis set = -1510.28153348
    2   -1510.2815334845      2.04E-09 Convergence criterion met
 Total energy in the final basis set = -1510.28153348
   14   -1510.2835037809      5.39E-09 Convergence criterion met
 Total energy in the final basis set = -1510.28350378
   12   -1510.2844844460      8.97E-09 Convergence criterion met
   11   -1510.2851868932      9.32E-09 Convergence criterion met
 Total energy in the final basis set = -1510.28518689
   11   -1510.2851998407      6.31E-09 Convergence criterion met
 Total energy in the final basis set = -1510.28519984
   10   -1510.2852072059      6.41E-09 Convergence criterion met
 Total energy in the final basis set = -1510.28520721
    9   -1510.2852132446      9.86E-09 Convergence criterion met
 Total energy in the final basis set = -1510.28521324
    9   -1510.2852173653      7.09E-09 Convergence criterion met
 Total energy in the final basis set = -1510.28521737
    9   -1510.2852193236      3.60E-09 Convergence criterion met
 Total energy in the final basis set = -1510.28521932

             Standard Nuclear Orientation (Angstroms)
    I     Atom           X                Y                Z
 ----------------------------------------------------------------
    1      O      -3.9324750883     1.4382320597     1.6508643354
    2      C      -4.2737115035     1.3887066475     0.4493834553
    3      C      -4.8211252427     0.1526292001    -0.3423905714
    4      C      -3.6621470319    -0.8427226941    -0.7929448307
    5      C      -2.2607997264    -0.4360068109    -0.2204304253
    6      O      -1.7558400637     0.6619211617    -0.9995869166
    7      C      -0.3955989468     1.0141688539    -0.5299963692
    8      C       0.6753838917     0.3599760406    -1.4667015464
    9      O       1.9804824661     0.6979704146    -0.8576066104
   10      C       3.0675640604     0.1667534140    -1.6188717647
   11      C       4.4041309026     0.6163401317    -0.9363495188
   12      C       4.3323098278     0.8059355038     0.6381523057
   13      C       2.9842887023     0.3537672223     1.3173433725
   14      O       2.2507527740     1.0531325714     2.0500462728
   15      O      -4.1972351292     2.4979142308    -0.4541608731
   16      O       2.7848059352    -1.0458786099     1.0734631087
   17      O       2.9292552288    -0.5108908223    -2.6586492420
   18      C       1.5591069497    -1.5193337388     1.7586871681
   19      C       5.5502072977    -0.4701536570    -1.0771321529
   20      C       6.9346838906     0.2603087753    -0.8742954363
   21      C       6.9011824609     0.5325799841     0.6759265513
   22      C       5.5305353302    -0.1437648382     1.0816864197
   23      O       5.4139537246    -1.2882993460     0.1492326837
   24      H       4.7094397025     1.5648127441    -1.4175055951
   25      H       4.5080219227     1.8577185901     0.9239643502
   26      H       5.4612243387    -1.1012209728    -1.9830085580
   27      H       7.7671566139    -0.4065312082    -1.1496826761
   28      H       7.0090400220     1.1849162593    -1.4687512436
   29      H       7.7401787653     0.0388407402     1.1916029294
   30      H       6.9205714416     1.6067755168     0.9202846509
   31      H       5.4727003762    -0.4928267944     2.1308846625
   32      O      -1.6351430737    -0.9741508154     0.7192540073
   33      C      -3.5982042237     3.6654469428     0.2327691480
   34      C      -5.7057626311    -0.8121090667     0.5563619976
   35      C      -6.5348281526    -1.7470823667    -0.4098158189
   36      C      -5.4115537298    -2.7251457874    -0.9199223273
   37      C      -4.1550815076    -2.1921299035    -0.1251623971
   38      O      -4.7200124340    -1.7330206645     1.1652577774
   39      H      -5.3792619102     0.5206583229    -1.2208855386
   40      H      -3.5937556887    -0.9033701684    -1.8938740804
   41      H      -2.5572056325     3.4553192935     0.5532889559
   42      H      -6.2914589707    -0.2988242694     1.3432292620
   43      H      -7.3148891030    -2.2859319252     0.1512376581
   44      H      -7.0118042812    -1.1823741510    -1.2268663266
   45      H      -5.6273393041    -3.7691965439    -0.6429115295
   46      H      -5.2652775735    -2.6727822204    -2.0108144029
   47      H      -3.3495702288    -2.9312279852     0.0494543663
   48      H      -4.1870435647     3.9623573984     1.1244213401
   49      H      -3.5991495510     4.4885458881    -0.5051669785
   50      H       1.6137725448    -2.6234731443     1.7496115517
   51      H       0.6311604906    -1.1991302969     1.2367609197
   52      H       1.5121808437    -1.1560687030     2.8048060513
   53      H       0.5322988491    -0.7423472220    -1.5084889689
   54      H       0.5990138926     0.7598799648    -2.5010968644
   55      H      -0.2440082785     0.6664017588     0.5128694137
   56      H      -0.3108307871     2.1187858846    -0.5717480146
 ----------------------------------------------------------------

    9   -1510.2852200444      3.32E-09 Convergence criterion met
 Total energy in the final basis set = -1510.28522004
 Final energy is   -1510.28522004437
 **  OPTIMIZATION CONVERGED  **

                    Orbital Energies (a.u.)
 --------------------------------------------------------------

 Alpha MOs
 -- Occupied --
-18.942 -18.941 -18.935 -18.918 -18.889 -18.887 -18.886 -18.881
-18.875 -18.857 -10.107 -10.106 -10.099 -10.090 -10.079 -10.074
-10.064 -10.061 -10.061 -10.058 -10.057 -10.047 -10.043 -10.039
-10.038 -10.033 -10.022 -10.021 -10.019 -10.018  -1.022  -1.018
 -1.010  -0.995  -0.971  -0.967  -0.947  -0.942  -0.936  -0.922
 -0.767  -0.762  -0.731  -0.723  -0.711  -0.705  -0.699  -0.664
 -0.648  -0.618  -0.597  -0.585  -0.549  -0.544  -0.539  -0.535
 -0.515  -0.509  -0.488  -0.471  -0.468  -0.464  -0.457  -0.442
 -0.433  -0.431  -0.428  -0.415  -0.412  -0.404  -0.404  -0.399
 -0.398  -0.385  -0.373  -0.367  -0.362  -0.357  -0.355  -0.350
 -0.344  -0.339  -0.334  -0.332  -0.331  -0.328  -0.321  -0.312
 -0.310  -0.307  -0.305  -0.299  -0.294  -0.289  -0.284  -0.277
 -0.276  -0.259  -0.254  -0.248  -0.239  -0.235  -0.232  -0.185
 -0.183  -0.177  -0.168  -0.160  -0.159  -0.151  -0.145  -0.141
 -0.139

          Ground-State Mulliken Net Atomic Charges

     Atom                 Charge (a.u.)
  ----------------------------------------
      1 O                    -0.209305
      2 C                     0.205026
      3 C                    -0.078685
      4 C                    -0.077311
      5 C                     0.209784
      6 O                    -0.171987
      7 C                    -0.053511
      8 C                    -0.045832
      9 O                    -0.171682
     10 C                     0.216631
     11 C                    -0.078799
     12 C                    -0.078880
     13 C                     0.214491
     14 O                    -0.223806
     15 O                    -0.167901
     16 O                    -0.172550
     17 O                    -0.210473
     18 C                    -0.133952
     19 C                     0.024669
     20 C                    -0.143335
     21 C                    -0.144636
     22 C                     0.026122
     23 O                    -0.185374
     24 H                     0.084124
     25 H                     0.083242
     26 H                     0.089257
     27 H                     0.078046
     28 H                     0.072469
     29 H                     0.077734
     30 H                     0.073270
     31 H                     0.083143
     32 O                    -0.206505
     33 C                    -0.128408
     34 C                     0.025659
     35 C                    -0.143392
     36 C                    -0.144459
     37 C                     0.025473
     38 O                    -0.184268
     39 H                     0.086610
     40 H                     0.087268
     41 H                     0.088134
     42 H                     0.086102
     43 H                     0.078693
     44 H                     0.073460
     45 H                     0.078970
     46 H                     0.073264
     47 H                     0.088058
     48 H                     0.090088
     49 H                     0.090102
     50 H                     0.087665
     51 H                     0.090765
     52 H                     0.089309
     53 H                     0.089772
     54 H                     0.089587
     55 H                     0.107891
     56 H                     0.090170
  ----------------------------------------
  Sum of atomic charges =     0.000000

                    Cartesian Multipole Moments
 -----------------------------------------------------------------
    Charge (ESU x 10^10)
                 0.0000
    Dipole Moment (Debye)
         X      -0.6003      Y       1.7221      Z      -2.5661
       Tot       3.1481
    Quadrupole Moments (Debye-Ang)
        XX    -139.2134     XY       8.2943     YY    -155.0738
        XZ       9.3386     YZ      -1.0392     ZZ    -167.7077

 Total job time:  53.21s(wall), 2523.86s(cpu)
        *  Thank you very much for using Q-Chem.  Have a nice day.  *
