 Q-Chem 5.0, Q-Chem, Inc., Pleasanton, CA (2017)
 Q-Chem 5.0.1 for Intel X86 EM64T Linux

User input:
--------------------------------------------------------------
$molecule
0  1
O -3.9324750883 1.4382320597 1.6508643354
C -4.2737115035 1.3887066475 0.4493834553
C -4.8211252427 0.1526292001 -0.3423905714
C -3.6621470319 -0.8427226941 -0.7929448307
C -2.2607997264 -0.4360068109 -0.2204304253
O -1.7558400637 0.6619211617 -0.9995869166
C -0.3955989468 1.0141688539 -0.5299963692
C 0.6753838917 0.3599760406 -1.4667015464
O 1.9804824661 0.6979704146 -0.8576066104
C 3.0675640604 0.166753414 -1.6188717647
C 4.4041309026 0.6163401317 -0.9363495188
C 4.3323098278 0.8059355038 0.6381523057
C 2.9842887023 0.3537672223 1.3173433725
O 2.250752774 1.0531325714 2.0500462728
O -4.1972351292 2.4979142308 -0.4541608731
O 2.7848059352 -1.0458786099 1.0734631087
O 2.9292552288 -0.5108908223 -2.658649242
C 1.5591069497 -1.5193337388 1.7586871681
C 5.5502072977 -0.470153657 -1.0771321529
C 6.9346838906 0.2603087753 -0.8742954363
C 6.9011824609 0.5325799841 0.6759265513
C 5.5305353302 -0.1437648382 1.0816864197
O 5.4139537246 -1.288299346 0.1492326837
H 4.7094397025 1.5648127441 -1.4175055951
H 4.5080219227 1.8577185901 0.9239643502
H 5.4612243387 -1.1012209728 -1.983008558
H 7.7671566139 -0.4065312082 -1.1496826761
H 7.009040022 1.1849162593 -1.4687512436
H 7.7401787653 0.0388407402 1.1916029294
H 6.9205714416 1.6067755168 0.9202846509
H 5.4727003762 -0.4928267944 2.1308846625
O -1.6351430737 -0.9741508154 0.7192540073
C -3.5982042237 3.6654469428 0.232769148
C -5.7057626311 -0.8121090667 0.5563619976
C -6.5348281526 -1.7470823667 -0.4098158189
C -5.4115537298 -2.7251457874 -0.9199223273
C -4.1550815076 -2.1921299035 -0.1251623971
O -4.720012434 -1.7330206645 1.1652577774
H -5.3792619102 0.5206583229 -1.2208855386
H -3.5937556887 -0.9033701684 -1.8938740804
H -2.5572056325 3.4553192935 0.5532889559
H -6.2914589707 -0.2988242694 1.343229262
H -7.314889103 -2.2859319252 0.1512376581
H -7.0118042812 -1.182374151 -1.2268663266
H -5.6273393041 -3.7691965439 -0.6429115295
H -5.2652775735 -2.6727822204 -2.0108144029
H -3.3495702288 -2.9312279852 0.0494543663
H -4.1870435647 3.9623573984 1.1244213401
H -3.599149551 4.4885458881 -0.5051669785
H 1.6137725448 -2.6234731443 1.7496115517
H 0.6311604906 -1.1991302969 1.2367609197
H 1.5121808437 -1.156068703 2.8048060513
H 0.5322988491 -0.742347222 -1.5084889689
H 0.5990138926 0.7598799648 -2.5010968644
H -0.2440082785 0.6664017588 0.5128694137
H -0.3108307871 2.1187858846 -0.5717480146
$end

$rem
JOBTYPE                   OPT
METHOD                    B3LYP
DFT_D                     d3_op
BASIS                     STO-3G
GEOM_OPT_MAX_CYCLES       100
GEOM_OPT_TOL_GRADIENT     300
GEOM_OPT_TOL_DISPLACEMENT 1200
GEOM_OPT_TOL_ENERGY       100
SYMMETRY                  False
THRESH                    12
SCF_CONVERGENCE           8
MAX_SUB_FILE_NUM          128
MEM_STATIC                400
MEM_TOTAL                 4000
$end
--------------------------------------------------------------

   16   -1510.2851356070      5.15E-09 Convergence criterion met
 Total energy in the final basis set = -1510.28513561
   14   -1510.2869607817      8.83E-09 Convergence criterion met
 Total energy in the final basis set = -1510.28696078
   13   -1510.2862478363      9.83E-09 Convergence criterion met
 Total energy in the final basis set = -1510.28624784
   14   -1510.2877048834      7.79E-09 Convergence criterion met
 Total energy in the final basis set = -1510.28770488
   13   -1510.2888539364      9.11E-09 Convergence criterion met
 Total energy in the final basis set = -1510.28885394
   13   -1510.2897961850      7.77E-09 Convergence criterion met
 Total energy in the final basis set = -1510.28979618
   13   -1510.2902345035      7.95E-09 Convergence criterion met
 Total energy in the final basis set = -1510.29023450
   13   -1510.2906932289      4.85E-09 Convergence criterion met
   13   -1510.2944399485      3.58E-09 Convergence criterion met
 Total energy in the final basis set = -1510.29443995
   12   -1510.2944838846      3.12E-09 Convergence criterion met
 Total energy in the final basis set = -1510.29448388
   12   -1510.2944326560      4.46E-09 Convergence criterion met
 Total energy in the final basis set = -1510.29443266
   11   -1510.2945062237      7.67E-09 Convergence criterion met
 Total energy in the final basis set = -1510.29450622
   11   -1510.2945102986      4.97E-09 Convergence criterion met
 Total energy in the final basis set = -1510.29451030
   10   -1510.2945115859      6.84E-09 Convergence criterion met
 Total energy in the final basis set = -1510.29451159

             Standard Nuclear Orientation (Angstroms)
    I     Atom           X                Y                Z
 ----------------------------------------------------------------
    1      O      -2.2063340124     1.2299898357     0.6432105200
    2      C      -3.4530448274     1.2939645710     0.5308399060
    3      C      -4.3742756409     0.3138325905    -0.2688824870
    4      C      -3.5457349694    -0.7493482276    -1.1002386503
    5      C      -1.9870282419    -0.5552252067    -1.0042424936
    6      O      -1.6207680798     0.4629313387    -1.9441062751
    7      C      -0.2026978115     0.8654082622    -1.7826764242
    8      C       0.8227121892    -0.2359838623    -2.2383106973
    9      O       2.1643763915     0.2953064578    -1.9014757355
   10      C       3.0379179384    -0.7508001734    -1.4499366807
   11      C       4.3584980649    -0.0570812213    -0.9671177211
   12      C       4.1124161193     0.9999256167     0.1930572334
   13      C       2.6185171273     1.0780117153     0.6665376333
   14      O       1.9066088552     2.1036946145     0.7589487324
   15      O      -4.2590508281     2.2946236341     1.1479176748
   16      O       2.2020383760    -0.2390196599     1.0273968855
   17      O       2.7638500717    -1.9677565714    -1.4755811598
   18      C       0.8201672699    -0.2397440100     1.5703330760
   19      C       5.3380729608    -1.0774206000    -0.2571405231
   20      C       6.7713791865    -0.4191527583    -0.1943733190
   21      C       6.5570657150     0.6598703072     0.9317203074
   22      C       5.0494275978     0.3964416718     1.3283499209
   23      O       4.8925865241    -1.0647796147     1.1559942264
   24      H       4.8346693411     0.4279859392    -1.8391245579
   25      H       4.4263354673     2.0148193373    -0.1075453583
   26      H       5.2920304364    -2.1051909621    -0.6669170690
   27      H       7.5263472370    -1.1655433046     0.1000426786
   28      H       7.0687320731     0.0240023618    -1.1581949269
   29      H       7.2177839925     0.4817672733     1.7949844796
   30      H       6.7178741789     1.6886838844     0.5713621696
   31      H       4.7746880587     0.6970696951     2.3580525279
   32      O      -1.1920191845    -1.2644133904    -0.3448639158
   33      C      -3.4052173781     3.2196954829     1.9318109227
   34      C      -5.1826551613    -0.6444036872     0.7129100210
   35      C      -6.3064332195    -1.3751773482    -0.1233398402
   36      C      -5.4586933993    -2.4463609282    -0.9055972755
   37      C      -4.0021620317    -2.1008161662    -0.4069769343
   38      O      -4.2051298834    -1.7139797240     1.0094980227
   39      H      -5.0570143723     0.9040067720    -0.9063990230
   40      H      -3.8303924308    -0.7144805588    -2.1670151472
   41      H      -2.6215335908     3.6832968407     1.2990231603
   42      H      -5.5266396861    -0.1550405755     1.6448558066
   43      H      -7.0394091983    -1.8494187071     0.5483555432
   44      H      -6.8371889835    -0.6802873071    -0.7933874461
   45      H      -5.7339339146    -3.4718060687    -0.6114313613
   46      H      -5.5574803607    -2.3530431563    -1.9988809410
   47      H      -3.2592821190    -2.9187043579    -0.4781353947
   48      H      -2.9129586498     2.6974872087     2.7775709852
   49      H      -4.0827184358     4.0013267086     2.3216584267
   50      H       0.8299395633    -0.8442363746     2.4968036456
   51      H       0.1178310714    -0.6935185196     0.8312772042
   52      H       0.5006313291     0.7974125701     1.7926239448
   53      H       0.6380003015    -1.1876249604    -1.6970553005
   54      H       0.7431194285    -0.4195617117    -3.3316373302
   55      H       0.0048684987     1.1445194800    -0.7276296697
   56      H      -0.0851625352     1.7693125702    -2.4135372552
 ----------------------------------------------------------------

    9   -1510.2945115062      6.35E-09 Convergence criterion met
 Total energy in the final basis set = -1510.29451151
 Final energy is   -1510.29451150617
 **  OPTIMIZATION CONVERGED  **

                    Orbital Energies (a.u.)
 --------------------------------------------------------------

 Alpha MOs
 -- Occupied --
-18.948 -18.930 -18.923 -18.917 -18.891 -18.890 -18.881 -18.874
-18.871 -18.859 -10.111 -10.104 -10.094 -10.086 -10.072 -10.065
-10.065 -10.060 -10.060 -10.054 -10.051 -10.045 -10.038 -10.031
-10.029 -10.025 -10.023 -10.022 -10.015 -10.014  -1.025  -1.009
 -1.004  -0.993  -0.973  -0.962  -0.947  -0.937  -0.930  -0.920
 -0.767  -0.757  -0.727  -0.720  -0.712  -0.701  -0.692  -0.669
 -0.639  -0.613  -0.594  -0.580  -0.548  -0.540  -0.538  -0.531
 -0.515  -0.502  -0.484  -0.468  -0.463  -0.459  -0.457  -0.438
 -0.434  -0.429  -0.424  -0.418  -0.414  -0.400  -0.398  -0.394
 -0.384  -0.382  -0.371  -0.369  -0.357  -0.353  -0.350  -0.346
 -0.341  -0.339  -0.334  -0.330  -0.325  -0.324  -0.316  -0.315
 -0.309  -0.305  -0.302  -0.299  -0.291  -0.280  -0.278  -0.276
 -0.270  -0.262  -0.252  -0.241  -0.237  -0.230  -0.227  -0.190
 -0.178  -0.168  -0.165  -0.157  -0.151  -0.148  -0.147  -0.140
 -0.136

          Ground-State Mulliken Net Atomic Charges

     Atom                 Charge (a.u.)
  ----------------------------------------
      1 O                    -0.206842
      2 C                     0.216104
      3 C                    -0.077909
      4 C                    -0.081193
      5 C                     0.224993
      6 O                    -0.175238
      7 C                    -0.050973
      8 C                    -0.057387
      9 O                    -0.179926
     10 C                     0.217571
     11 C                    -0.077770
     12 C                    -0.077891
     13 C                     0.208644
     14 O                    -0.223245
     15 O                    -0.166872
     16 O                    -0.170977
     17 O                    -0.207663
     18 C                    -0.151764
     19 C                     0.024801
     20 C                    -0.143898
     21 C                    -0.144226
     22 C                     0.026070
     23 O                    -0.184357
     24 H                     0.083134
     25 H                     0.082912
     26 H                     0.089434
     27 H                     0.077205
     28 H                     0.071988
     29 H                     0.076993
     30 H                     0.072686
     31 H                     0.081968
     32 O                    -0.217783
     33 C                    -0.128234
     34 C                     0.025205
     35 C                    -0.143691
     36 C                    -0.143834
     37 C                     0.025138
     38 O                    -0.188386
     39 H                     0.088139
     40 H                     0.085499
     41 H                     0.094296
     42 H                     0.085672
     43 H                     0.079025
     44 H                     0.074020
     45 H                     0.079180
     46 H                     0.073866
     47 H                     0.090460
     48 H                     0.092206
     49 H                     0.093222
     50 H                     0.081029
     51 H                     0.109822
     52 H                     0.090424
     53 H                     0.107195
     54 H                     0.079659
     55 H                     0.102512
     56 H                     0.088985
  ----------------------------------------
  Sum of atomic charges =    -0.000000

                    Cartesian Multipole Moments
 -----------------------------------------------------------------
    Charge (ESU x 10^10)
                 0.0000
    Dipole Moment (Debye)
         X      -2.1476      Y       2.3291      Z      -1.4497
       Tot       3.4841
    Quadrupole Moments (Debye-Ang)
        XX    -133.3277     XY       4.5361     YY    -163.1967
        XZ      -0.4349     YZ       5.7486     ZZ    -154.7582

 Total job time:  93.28s(wall), 4444.53s(cpu)
        *  Thank you very much for using Q-Chem.  Have a nice day.  *
