 Q-Chem 5.0, Q-Chem, Inc., Pleasanton, CA (2017)
 Q-Chem 5.0.1 for Intel X86 EM64T Linux

User input:
--------------------------------------------------------------
$molecule
0  1
O -3.94934 -3.66094 2.70899
C -3.26408 -4.56952 2.26188
C -3.36658 -6.02376 2.66595
C -2.81402 -6.40967 4.04783
C -2.38236 -5.26997 4.94386
O -1.09273 -4.92024 4.66106
C -0.58549 -3.89527 5.52211
C -0.92272 -4.21465 6.97483
O -0.48781 -3.14214 7.82539
C -0.69765 -3.3284 9.1522
C -0.17359 -2.19095 9.99613
C -0.77071 -0.81427 9.6698
C -2.0289 -0.82314 8.82507
O -2.27814 -0.04408 7.9165
O -2.42026 -4.29883 1.23131
O -3.00614 -1.69524 9.19757
O -1.27747 -4.30085 9.62163
C -4.21751 -1.83369 8.55337
C -0.49086 -2.29994 11.50128
C 0.51021 -1.46537 12.3001
C 0.05645 -0.06386 11.94591
C -1.17705 -0.38154 11.09391
O -1.68023 -1.56945 11.65802
H 0.93109 -2.19473 9.8575
H -0.05048 -0.10022 9.21252
H -0.50108 -3.34548 11.87856
H 0.30068 -1.64343 13.37933
H 1.58 -1.68439 12.09395
H -0.24352 0.45479 12.8836
H 0.79716 0.55112 11.39035
H -1.87526 0.48497 11.08482
O -3.21513 -4.45813 5.3381
C -2.2232 -3.04261 0.69732
C -4.82547 -6.49208 2.7909
C -4.90284 -8.01355 2.65965
C -4.32176 -8.44172 3.99154
C -4.07305 -7.07694 4.64045
O -5.12658 -6.28204 4.14835
H -2.84327 -6.6106 1.87666
H -1.97304 -7.13809 3.99532
H -1.83023 -2.35407 1.47583
H -5.50144 -6.00456 2.05439
H -5.97849 -8.30009 2.63504
H -4.39031 -8.42362 1.7629
H -5.10996 -8.98463 4.55966
H -3.40277 -9.06403 3.93327
H -4.01451 -7.18099 5.74671
H -3.17755 -2.64498 0.29054
H -1.48391 -3.10953 -0.12697
H -4.81443 -2.61506 9.06664
H -4.05463 -2.14366 7.49876
H -4.77955 -0.87593 8.58285
H -1.99458 -4.35752 7.19913
H -0.39344 -5.15506 7.24908
H -1.06494 -2.92709 5.25503
H 0.51032 -3.79036 5.3771
$end

$opt
CONSTRAINT
tors           1           2           3           4     -73.569
tors           3           4           5           6     -85.743
tors           4           5           6           7    -176.672
tors           5           6           7           8     +46.399
tors           6           7           8           9    -176.305
tors           7           8           9          10    -178.120
tors           8           9          10          11    +177.869
tors           9          10          11          12     +58.603
tors          11          12          13          14    -139.275
ENDCONSTRAINT
$end

$rem
JOBTYPE                   OPT
METHOD                    B3LYP
DFT_D                     d3_op
BASIS                     STO-3G
GEOM_OPT_MAX_CYCLES       100
GEOM_OPT_TOL_GRADIENT     300
GEOM_OPT_TOL_DISPLACEMENT 1200
GEOM_OPT_TOL_ENERGY       100
SYMMETRY                  False
THRESH                    12
SCF_CONVERGENCE           8
MAX_SUB_FILE_NUM          128
MEM_STATIC                400
MEM_TOTAL                 4000
$end
--------------------------------------------------------------

   16   -1510.1371613164      1.87E-09 Convergence criterion met
 Total energy in the final basis set = -1510.13716132
   14   -1510.2088040921      3.60E-09 Convergence criterion met
 Total energy in the final basis set = -1510.20880409
   14   -1510.2480437372      9.20E-09 Convergence criterion met
 Total energy in the final basis set = -1510.24804374
   14   -1510.2677809551      5.28E-09 Convergence criterion met
 Total energy in the final basis set = -1510.26778096
   14   -1510.2762984524      5.27E-09 Convergence criterion met
 Total energy in the final basis set = -1510.27629845
   13   -1510.2801709389      6.19E-09 Convergence criterion met
 Total energy in the final basis set = -1510.28017094
   13   -1510.2817665644      2.69E-09 Convergence criterion met
 Total energy in the final basis set = -1510.28176656
   13   -1510.2819376788      2.90E-09 Convergence criterion met
   11   -1510.2823222033      3.00E-09 Convergence criterion met
 Total energy in the final basis set = -1510.28232220
   11   -1510.2823413809      3.62E-09 Convergence criterion met
 Total energy in the final basis set = -1510.28234138
    9   -1510.2823487784      9.71E-09 Convergence criterion met
 Total energy in the final basis set = -1510.28234878
    9   -1510.2823513929      8.83E-09 Convergence criterion met
 Total energy in the final basis set = -1510.28235139
    9   -1510.2823533634      8.81E-09 Convergence criterion met
 Total energy in the final basis set = -1510.28235336
    9   -1510.2823566496      3.12E-09 Convergence criterion met
 Total energy in the final basis set = -1510.28235665

             Standard Nuclear Orientation (Angstroms)
    I     Atom           X                Y                Z
 ----------------------------------------------------------------
    1      O      -3.4193529657     1.5712958783     1.3040939906
    2      C      -4.0900860941     1.3551275193     0.2715143596
    3      C      -4.8094745335     0.0283761115    -0.1480904328
    4      C      -3.7914236919    -1.0964188687    -0.6342644949
    5      C      -2.2910214475    -0.6705028454    -0.4513252581
    6      O      -1.9179305921     0.0739690016    -1.6162874249
    7      C      -0.4903751279     0.4881595250    -1.6360690593
    8      C       0.5492156387    -0.6270713689    -1.2609368193
    9      O       1.8642707914     0.0557837949    -1.2661588256
   10      C       2.9076869680    -0.8877017124    -0.9756692071
   11      C       4.2739031868    -0.1180919642    -1.0500610013
   12      C       4.3710635687     1.1070164755    -0.0448908447
   13      C       3.1118580600     1.2830750945     0.8706520490
   14      O       2.5551180513     2.3546675575     1.1929346428
   15      O      -4.2984538605     2.3223333853    -0.7653688204
   16      O       2.7233019825    -0.0058435560     1.3606901596
   17      O       2.7246599649    -2.1096410055    -0.7994269489
   18      C       1.5062889356     0.1023722015     2.1981196966
   19      C       5.4726641534    -1.0252874728    -0.5548264900
   20      C       6.8231894496    -0.3775473199    -1.0517238065
   21      C       6.9333115949     0.8630870503    -0.0899147833
   22      C       5.6452620666     0.6728838903     0.8070364039
   23      O       5.4995384924    -0.7952942257     0.9092190968
   24      H       4.4199539473     0.2204611873    -2.0923125973
   25      H       4.5398388759     2.0609582936    -0.5743101325
   26      H       5.3386536977    -2.1025997245    -0.7737786438
   27      H       7.6622761088    -1.0760378843    -0.9052402259
   28      H       6.7824878296    -0.0906839576    -2.1146553528
   29      H       7.8437286146     0.8171774481     0.5285274035
   30      H       6.9215217720     1.8230605130    -0.6303942365
   31      H       5.7020477625     1.1294941800     1.8143293303
   32      O      -1.5587210410    -0.9138258174     0.5327267228
   33      C      -3.5744064116     3.5733552514    -0.4412877894
   34      C      -5.5013265639    -0.7090267546     1.0782848923
   35      C      -6.5323639833    -1.7536103485     0.4953528228
   36      C      -5.5595548446    -2.8674588345    -0.0448084219
   37      C      -4.1539682113    -2.2723912366     0.3630724413
   38      O      -4.4254772207    -1.5595197750     1.6328009074
   39      H      -5.5349878552     0.2663307266    -0.9456499702
   40      H      -3.9646984018    -1.3580215542    -1.6930063680
   41      H      -2.4819925205     3.4001987691    -0.3574320399
   42      H      -5.8988979550    -0.0311959111     1.8581361043
   43      H      -7.1820380724    -2.1400853946     1.2966743793
   44      H      -7.1647393589    -1.3184039066    -0.2947927000
   45      H      -5.7301136217    -3.8323077586     0.4586146808
   46      H      -5.6465165242    -3.0168179659    -1.1330678904
   47      H      -3.3442515661    -3.0138113013     0.5052340077
   48      H      -3.9328794416     4.0192838756     0.5088543283
   49      H      -3.7759821431     4.2684623589    -1.2768539922
   50      H       1.2794185143    -0.9247680076     2.5377393259
   51      H       0.6445054044     0.4950135446     1.6205791054
   52      H       1.6735257274     0.7577664298     3.0768801252
   53      H       0.2976256199    -1.0304993276    -0.2579430510
   54      H       0.5241461864    -1.4590551819    -1.9974469788
   55      H      -0.3430540047     1.3428945983    -0.9376517419
   56      H      -0.3117002800     0.8491549377    -2.6689083936
 ----------------------------------------------------------------

    9   -1510.2823575991      3.28E-09 Convergence criterion met
 Total energy in the final basis set = -1510.28235760
 Final energy is   -1510.28235759912
 **  OPTIMIZATION CONVERGED  **

                    Orbital Energies (a.u.)
 --------------------------------------------------------------

 Alpha MOs
 -- Occupied --
-18.941 -18.935 -18.930 -18.925 -18.889 -18.885 -18.885 -18.875
-18.870 -18.869 -10.107 -10.098 -10.097 -10.095 -10.077 -10.065
-10.064 -10.061 -10.060 -10.058 -10.055 -10.055 -10.041 -10.039
-10.035 -10.034 -10.022 -10.021 -10.019 -10.018  -1.018  -1.011
 -1.010  -1.000  -0.971  -0.967  -0.945  -0.936  -0.932  -0.931
 -0.766  -0.761  -0.729  -0.722  -0.711  -0.704  -0.697  -0.664
 -0.653  -0.618  -0.596  -0.584  -0.548  -0.544  -0.538  -0.535
 -0.513  -0.508  -0.482  -0.472  -0.464  -0.460  -0.455  -0.443
 -0.435  -0.432  -0.427  -0.414  -0.411  -0.406  -0.405  -0.396
 -0.386  -0.381  -0.377  -0.364  -0.361  -0.359  -0.355  -0.351
 -0.346  -0.341  -0.336  -0.332  -0.330  -0.328  -0.322  -0.311
 -0.307  -0.307  -0.303  -0.299  -0.290  -0.289  -0.282  -0.277
 -0.271  -0.258  -0.253  -0.250  -0.244  -0.235  -0.231  -0.185
 -0.178  -0.175  -0.170  -0.158  -0.152  -0.149  -0.145  -0.144
 -0.141

          Ground-State Mulliken Net Atomic Charges

     Atom                 Charge (a.u.)
  ----------------------------------------
      1 O                    -0.209179
      2 C                     0.203915
      3 C                    -0.078941
      4 C                    -0.077665
      5 C                     0.210751
      6 O                    -0.171588
      7 C                    -0.049407
      8 C                    -0.059542
      9 O                    -0.182316
     10 C                     0.218821
     11 C                    -0.078752
     12 C                    -0.078929
     13 C                     0.211649
     14 O                    -0.214885
     15 O                    -0.168650
     16 O                    -0.167005
     17 O                    -0.212494
     18 C                    -0.128174
     19 C                     0.024697
     20 C                    -0.143985
     21 C                    -0.143943
     22 C                     0.025777
     23 O                    -0.185893
     24 H                     0.082736
     25 H                     0.084210
     26 H                     0.090357
     27 H                     0.077914
     28 H                     0.072504
     29 H                     0.077841
     30 H                     0.073341
     31 H                     0.082685
     32 O                    -0.205612
     33 C                    -0.128652
     34 C                     0.025985
     35 C                    -0.143442
     36 C                    -0.144412
     37 C                     0.025844
     38 O                    -0.183620
     39 H                     0.086648
     40 H                     0.086632
     41 H                     0.088526
     42 H                     0.085364
     43 H                     0.078593
     44 H                     0.073559
     45 H                     0.078782
     46 H                     0.073274
     47 H                     0.087164
     48 H                     0.089706
     49 H                     0.090571
     50 H                     0.096148
     51 H                     0.092718
     52 H                     0.089282
     53 H                     0.107910
     54 H                     0.083193
     55 H                     0.087984
     56 H                     0.092008
  ----------------------------------------
  Sum of atomic charges =    -0.000000

                    Cartesian Multipole Moments
 -----------------------------------------------------------------
    Charge (ESU x 10^10)
                 0.0000
    Dipole Moment (Debye)
         X      -1.2184      Y       1.0134      Z      -3.3858
       Tot       3.7383
    Quadrupole Moments (Debye-Ang)
        XX    -137.2063     XY       7.4899     YY    -160.2894
        XZ      -1.3125     YZ       1.3005     ZZ    -160.9609

 Total job time:  51.64s(wall), 2454.78s(cpu)
        *  Thank you very much for using Q-Chem.  Have a nice day.  *
