 Q-Chem 5.0, Q-Chem, Inc., Pleasanton, CA (2017)
 Q-Chem 5.0.1 for Intel X86 EM64T Linux

User input:
--------------------------------------------------------------
$molecule
0  1
O -3.4193529657 1.5712958783 1.3040939906
C -4.0900860941 1.3551275193 0.2715143596
C -4.8094745335 0.0283761115 -0.1480904328
C -3.7914236919 -1.0964188687 -0.6342644949
C -2.2910214475 -0.6705028454 -0.4513252581
O -1.9179305921 0.0739690016 -1.6162874249
C -0.4903751279 0.488159525 -1.6360690593
C 0.5492156387 -0.6270713689 -1.2609368193
O 1.8642707914 0.0557837949 -1.2661588256
C 2.907686968 -0.8877017124 -0.9756692071
C 4.2739031868 -0.1180919642 -1.0500610013
C 4.3710635687 1.1070164755 -0.0448908447
C 3.11185806 1.2830750945 0.870652049
O 2.5551180513 2.3546675575 1.1929346428
O -4.2984538605 2.3223333853 -0.7653688204
O 2.7233019825 -0.005843556 1.3606901596
O 2.7246599649 -2.1096410055 -0.7994269489
C 1.5062889356 0.1023722015 2.1981196966
C 5.4726641534 -1.0252874728 -0.55482649
C 6.8231894496 -0.3775473199 -1.0517238065
C 6.9333115949 0.8630870503 -0.0899147833
C 5.6452620666 0.6728838903 0.8070364039
O 5.4995384924 -0.7952942257 0.9092190968
H 4.4199539473 0.2204611873 -2.0923125973
H 4.5398388759 2.0609582936 -0.5743101325
H 5.3386536977 -2.1025997245 -0.7737786438
H 7.6622761088 -1.0760378843 -0.9052402259
H 6.7824878296 -0.0906839576 -2.1146553528
H 7.8437286146 0.8171774481 0.5285274035
H 6.921521772 1.823060513 -0.6303942365
H 5.7020477625 1.12949418 1.8143293303
O -1.558721041 -0.9138258174 0.5327267228
C -3.5744064116 3.5733552514 -0.4412877894
C -5.5013265639 -0.7090267546 1.0782848923
C -6.5323639833 -1.7536103485 0.4953528228
C -5.5595548446 -2.8674588345 -0.0448084219
C -4.1539682113 -2.2723912366 0.3630724413
O -4.4254772207 -1.559519775 1.6328009074
H -5.5349878552 0.2663307266 -0.9456499702
H -3.9646984018 -1.3580215542 -1.693006368
H -2.4819925205 3.4001987691 -0.3574320399
H -5.898897955 -0.0311959111 1.8581361043
H -7.1820380724 -2.1400853946 1.2966743793
H -7.1647393589 -1.3184039066 -0.2947927
H -5.7301136217 -3.8323077586 0.4586146808
H -5.6465165242 -3.0168179659 -1.1330678904
H -3.3442515661 -3.0138113013 0.5052340077
H -3.9328794416 4.0192838756 0.5088543283
H -3.7759821431 4.2684623589 -1.2768539922
H 1.2794185143 -0.9247680076 2.5377393259
H 0.6445054044 0.4950135446 1.6205791054
H 1.6735257274 0.7577664298 3.0768801252
H 0.2976256199 -1.0304993276 -0.257943051
H 0.5241461864 -1.4590551819 -1.9974469788
H -0.3430540047 1.3428945983 -0.9376517419
H -0.31170028 0.8491549377 -2.6689083936
$end

$rem
JOBTYPE                   OPT
METHOD                    B3LYP
DFT_D                     d3_op
BASIS                     STO-3G
GEOM_OPT_MAX_CYCLES       100
GEOM_OPT_TOL_GRADIENT     300
GEOM_OPT_TOL_DISPLACEMENT 1200
GEOM_OPT_TOL_ENERGY       100
SYMMETRY                  False
THRESH                    12
SCF_CONVERGENCE           8
MAX_SUB_FILE_NUM          128
MEM_STATIC                400
MEM_TOTAL                 4000
$end
--------------------------------------------------------------

   16   -1510.2822337139      4.62E-09 Convergence criterion met
 Total energy in the final basis set = -1510.28223371
   14   -1510.2839341691      5.00E-09 Convergence criterion met
 Total energy in the final basis set = -1510.28393417
   14   -1510.2858598611      2.62E-09 Convergence criterion met
 Total energy in the final basis set = -1510.28585986
   14   -1510.2868265483      3.27E-09 Convergence criterion met
 Total energy in the final basis set = -1510.28682655
   13   -1510.2886881571      4.86E-09 Convergence criterion met
 Total energy in the final basis set = -1510.28868816
   13   -1510.2898034899      8.46E-09 Convergence criterion met
 Total energy in the final basis set = -1510.28980349
   13   -1510.2903139363      9.42E-09 Convergence criterion met
 Total energy in the final basis set = -1510.29031394
   13   -1510.2909051357      4.26E-09 Convergence criterion met
   13   -1510.2942819497      4.61E-09 Convergence criterion met
 Total energy in the final basis set = -1510.29428195
   12   -1510.2943924890      4.78E-09 Convergence criterion met
 Total energy in the final basis set = -1510.29439249
   12   -1510.2944450994      6.37E-09 Convergence criterion met
 Total energy in the final basis set = -1510.29444510
   12   -1510.2944663971      3.07E-09 Convergence criterion met
 Total energy in the final basis set = -1510.29446640
   10   -1510.2944632888      6.99E-09 Convergence criterion met
 Total energy in the final basis set = -1510.29446329
   10   -1510.2944673225      6.72E-09 Convergence criterion met
 Total energy in the final basis set = -1510.29446732

             Standard Nuclear Orientation (Angstroms)
    I     Atom           X                Y                Z
 ----------------------------------------------------------------
    1      O      -2.1220912094     1.4346714867     0.0787380292
    2      C      -3.3706209233     1.5078626586    -0.0018120237
    3      C      -4.3602371900     0.3414354944    -0.3352438406
    4      C      -3.6078915842    -1.0108648653    -0.6710149928
    5      C      -2.0400413601    -0.8754966691    -0.6960441316
    6      O      -1.6779652370    -0.3562215050    -1.9821849868
    7      C      -0.2458007605     0.0239944217    -2.0343218713
    8      C       0.7392096301    -1.2012302311    -1.9928012259
    9      O       2.1016573782    -0.6219887818    -1.9325873865
   10      C       2.9560371539    -1.3837587634    -1.0659848355
   11      C       4.2937981116    -0.5748906311    -0.9407000521
   12      C       4.0705665582     0.8965408517    -0.3878099884
   13      C       2.5835038763     1.1900117406     0.0198034371
   14      O       1.8645692683     2.1397851439    -0.3656392509
   15      O      -4.1154410506     2.7011787701     0.2269704754
   16      O       2.1797333277     0.1900905647     0.9554330124
   17      O       2.6550053280    -2.4795221839    -0.5510666658
   18      C       0.8020230948     0.4351083012     1.4512603483
   19      C       5.2646085543    -1.1781413627     0.1550318992
   20      C       6.7097344819    -0.5985642445    -0.1028048977
   21      C       6.5272069329     0.8871472704     0.3854275587
   22      C       5.0258191647     0.8672248427     0.8832206112
   23      O       4.8481842384    -0.5050697912     1.4074327773
   24      H       4.7744323124    -0.5452663026    -1.9357535209
   25      H       4.3789635942     1.6602793417    -1.1229471869
   26      H       5.1930954131    -2.2777392388     0.2651326627
   27      H       7.4536818709    -1.1344202145     0.5079529718
   28      H       7.0055804592    -0.6679861980    -1.1618327407
   29      H       7.2066275320     1.1259533465     1.2190223281
   30      H       6.6856314305     1.6223177000    -0.4197772073
   31      H       4.7777965971     1.6151154103     1.6611020455
   32      O      -1.2436168260    -1.2866792476     0.1795537057
   33      C      -3.1962413652     3.8117527623     0.5751341289
   34      C      -5.1842604522    -0.0900096592     0.9556429571
   35      C      -6.3619105207    -1.0419801140     0.5041060524
   36      C      -5.5822183143    -2.3797471602     0.2195516212
   37      C      -4.0988955735    -1.9346688758     0.5207880555
   38      O      -4.2457581592    -0.9931587206     1.6567717526
   39      H      -5.0283640854     0.6635317639    -1.1542499004
   40      H      -3.9313290959    -1.3995941679    -1.6531318481
   41      H      -2.4569265464     3.9943024901    -0.2309406919
   42      H      -5.4802708879     0.7548626962     1.6074734566
   43      H      -7.0918548446    -1.1637623603     1.3199719239
   44      H      -6.8858190449    -0.6565741349    -0.3850928590
   45      H      -5.8919535091    -3.1808769622     0.9094804395
   46      H      -5.7091234158    -2.7354666902    -0.8153520917
   47      H      -3.3938885406    -2.7463565285     0.7856138989
   48      H      -2.6479461422     3.6038694986     1.5166536900
   49      H      -3.8344170668     4.7047599912     0.7060206979
   50      H       0.8187168969     0.2958945144     2.5485085936
   51      H       0.0911189530    -0.2908899524     0.9894995877
   52      H       0.4835105449     1.4660205937     1.2000845576
   53      H       0.5454449725    -1.8264144896    -1.0957168211
   54      H       0.6267734375    -1.8278155952    -2.9037797662
   55      H       0.0019922926     0.7212382093    -1.2053892801
   56      H      -0.1266396603     0.5667422681    -2.9936215731
 ----------------------------------------------------------------

   10   -1510.2944664944      5.16E-09 Convergence criterion met
 Total energy in the final basis set = -1510.29446649
 Final energy is   -1510.29446649436
 **  OPTIMIZATION CONVERGED  **

                    Orbital Energies (a.u.)
 --------------------------------------------------------------

 Alpha MOs
 -- Occupied --
-18.949 -18.929 -18.923 -18.917 -18.891 -18.890 -18.881 -18.874
-18.872 -18.859 -10.111 -10.104 -10.094 -10.087 -10.072 -10.064
-10.064 -10.060 -10.060 -10.054 -10.052 -10.045 -10.038 -10.031
-10.029 -10.026 -10.023 -10.022 -10.015 -10.014  -1.025  -1.008
 -1.004  -0.994  -0.973  -0.963  -0.948  -0.936  -0.930  -0.920
 -0.767  -0.757  -0.727  -0.720  -0.712  -0.700  -0.691  -0.669
 -0.639  -0.613  -0.594  -0.579  -0.548  -0.540  -0.538  -0.531
 -0.515  -0.502  -0.484  -0.469  -0.463  -0.459  -0.457  -0.438
 -0.434  -0.429  -0.424  -0.418  -0.414  -0.400  -0.398  -0.394
 -0.384  -0.382  -0.371  -0.369  -0.357  -0.353  -0.350  -0.347
 -0.341  -0.339  -0.334  -0.330  -0.325  -0.324  -0.316  -0.315
 -0.309  -0.304  -0.302  -0.299  -0.291  -0.280  -0.278  -0.275
 -0.271  -0.262  -0.252  -0.240  -0.237  -0.230  -0.227  -0.190
 -0.178  -0.169  -0.165  -0.157  -0.151  -0.148  -0.146  -0.140
 -0.136

          Ground-State Mulliken Net Atomic Charges

     Atom                 Charge (a.u.)
  ----------------------------------------
      1 O                    -0.206722
      2 C                     0.216488
      3 C                    -0.077754
      4 C                    -0.081235
      5 C                     0.224903
      6 O                    -0.175491
      7 C                    -0.051622
      8 C                    -0.057831
      9 O                    -0.180018
     10 C                     0.217330
     11 C                    -0.077748
     12 C                    -0.077673
     13 C                     0.208741
     14 O                    -0.223554
     15 O                    -0.166900
     16 O                    -0.170680
     17 O                    -0.207251
     18 C                    -0.151295
     19 C                     0.024831
     20 C                    -0.143743
     21 C                    -0.144357
     22 C                     0.025988
     23 O                    -0.184294
     24 H                     0.083221
     25 H                     0.083024
     26 H                     0.089488
     27 H                     0.077226
     28 H                     0.071995
     29 H                     0.076901
     30 H                     0.072608
     31 H                     0.081922
     32 O                    -0.218083
     33 C                    -0.128177
     34 C                     0.025123
     35 C                    -0.143808
     36 C                    -0.143791
     37 C                     0.024908
     38 O                    -0.188757
     39 H                     0.088231
     40 H                     0.085542
     41 H                     0.094014
     42 H                     0.086033
     43 H                     0.079038
     44 H                     0.073993
     45 H                     0.079064
     46 H                     0.073837
     47 H                     0.090283
     48 H                     0.092591
     49 H                     0.093253
     50 H                     0.081194
     51 H                     0.109472
     52 H                     0.090509
     53 H                     0.107533
     54 H                     0.079571
     55 H                     0.103229
     56 H                     0.088701
  ----------------------------------------
  Sum of atomic charges =     0.000000

                    Cartesian Multipole Moments
 -----------------------------------------------------------------
    Charge (ESU x 10^10)
                 0.0000
    Dipole Moment (Debye)
         X      -2.0777      Y       1.6348      Z      -2.1935
       Tot       3.4352
    Quadrupole Moments (Debye-Ang)
        XX    -133.3684     XY       3.2325     YY    -157.2848
        XZ      -2.4839     YZ       7.2459     ZZ    -160.5993

 Total job time:  84.06s(wall), 4003.04s(cpu)
        *  Thank you very much for using Q-Chem.  Have a nice day.  *
