 Q-Chem 5.0, Q-Chem, Inc., Pleasanton, CA (2017)
 Q-Chem 5.0.1 for Intel X86 EM64T Linux

User input:
--------------------------------------------------------------
$molecule
0  1
O -4.3438851811 1.9133364156 1.4600781944
C -4.2504755841 1.4741799143 0.2937433594
C -4.8367864979 0.1287166927 -0.2681320149
C -3.7387357966 -0.978340964 -0.5984436699
C -2.2574276635 -0.5130800795 -0.3683442108
O -1.8534556696 0.2614027668 -1.5012374353
C -0.3941280697 0.5415972442 -1.5389488702
C 0.5463101634 -0.6645473017 -1.1816602422
O 1.9103588681 -0.0900139038 -1.2070965822
C 2.8941862519 -1.0991092696 -0.9377568538
C 4.2971667154 -0.4082804164 -1.0411037065
C 4.3716427839 0.9657523021 -0.2505493517
C 3.0708730971 1.29851008 0.565478163
O 2.4411115261 2.3782089847 0.5747553379
O -3.6055463375 2.1709743172 -0.7765240315
O 2.7555940767 0.1708753569 1.3946392963
O 2.6342981812 -2.2992887047 -0.7178663533
C 1.5294769088 0.4359022422 2.1821718824
C 5.4329825113 -1.2470279076 -0.3251600199
C 6.8274201273 -0.7317053974 -0.8554828018
C 6.927738878 0.6616056176 -0.129230531
C 5.5951927562 0.6641872852 0.7213290847
O 5.4002328904 -0.7603222022 1.0738250615
H 4.5228453056 -0.2543511492 -2.1128027652
H 4.5759114967 1.8166153894 -0.9233593547
H 5.272431948 -2.3423326799 -0.3596815937
H 7.6348274843 -1.4105785844 -0.5375944749
H 6.851212887 -0.6440621574 -1.9534601526
H 7.8065867503 0.7103945805 0.5331325504
H 6.9709519511 1.5068700463 -0.8348022666
H 5.6202136228 1.2900460995 1.6342884681
O -1.552194295 -0.7479856985 0.6396136958
C -2.9773018771 3.4125007768 -0.2689996523
C -5.6762647966 -0.6171787228 0.8505235686
C -6.5391818057 -1.7512900069 0.1694148259
C -5.439077138 -2.8386506392 -0.1233708625
C -4.1466057657 -2.1174802541 0.4257498505
O -4.6408908563 -1.3656218032 1.6014469219
H -5.4377466752 0.356526149 -1.1672340667
H -3.8337597934 -1.3095532913 -1.6481145666
H -2.1935045593 3.1916668445 0.4843257781
H -6.2247796295 0.0647642118 1.5287212773
H -7.3021432169 -2.1267455746 0.8698302787
H -7.0431855239 -1.3986105398 -0.7446875886
H -5.629116453 -3.7668577557 0.4388186102
H -5.356869848 -3.0843420786 -1.1942592794
H -3.311698856 -2.7835206571 0.7173401004
H -3.7238356833 4.0925892967 0.1896215965
H -2.5177573261 3.9022788642 -1.1470248428
H 1.4506908328 -0.3926196833 2.9096458336
H 0.6224501718 0.4426344917 1.5423802492
H 1.5913346216 1.402996295 2.7205863911
H 0.2822529983 -1.0524479922 -0.1761368666
H 0.441544394 -1.4872804917 -1.9215440154
H -0.1537501877 1.3776361476 -0.8433762026
H -0.1963136163 0.8864063358 -2.5736856433
$end

$rem
JOBTYPE                   OPT
METHOD                    B3LYP
DFT_D                     d3_op
BASIS                     STO-3G
GEOM_OPT_MAX_CYCLES       100
GEOM_OPT_TOL_GRADIENT     300
GEOM_OPT_TOL_DISPLACEMENT 1200
GEOM_OPT_TOL_ENERGY       100
SYMMETRY                  False
THRESH                    12
SCF_CONVERGENCE           8
MAX_SUB_FILE_NUM          128
MEM_STATIC                400
MEM_TOTAL                 4000
$end
--------------------------------------------------------------

   16   -1510.2815291581      5.50E-09 Convergence criterion met
 Total energy in the final basis set = -1510.28152916
   14   -1510.2842495055      6.95E-09 Convergence criterion met
 Total energy in the final basis set = -1510.28424951
   14   -1510.2867048487      3.22E-09 Convergence criterion met
 Total energy in the final basis set = -1510.28670485
   15   -1510.2821582322      2.38E-09 Convergence criterion met
 Total energy in the final basis set = -1510.28215823
   14   -1510.2885704182      3.88E-09 Convergence criterion met
 Total energy in the final basis set = -1510.28857042
   13   -1510.2891400252      9.88E-09 Convergence criterion met
 Total energy in the final basis set = -1510.28914003
   14   -1510.2905704965      3.70E-09 Convergence criterion met
 Total energy in the final basis set = -1510.29057050
   15   -1510.2914377012      2.36E-09 Convergence criterion met
   12   -1510.2998838782      3.76E-09 Convergence criterion met
 Total energy in the final basis set = -1510.29988388
   11   -1510.2998818910      3.92E-09 Convergence criterion met
 Total energy in the final basis set = -1510.29988189
   11   -1510.2998848670      3.62E-09 Convergence criterion met
 Total energy in the final basis set = -1510.29988487
   11   -1510.2998844068      4.22E-09 Convergence criterion met
 Total energy in the final basis set = -1510.29988441
   10   -1510.2998864617      9.76E-09 Convergence criterion met
 Total energy in the final basis set = -1510.29988646
    9   -1510.2998894346      5.58E-09 Convergence criterion met
 Total energy in the final basis set = -1510.29988943

             Standard Nuclear Orientation (Angstroms)
    I     Atom           X                Y                Z
 ----------------------------------------------------------------
    1      O      -2.7658313411     2.2004739981     1.3960656799
    2      C      -3.0245413904     1.6119027864     0.3241378506
    3      C      -4.0121132986     0.4078936473     0.1101971510
    4      C      -3.3501648775    -0.8270696493    -0.6411174509
    5      C      -1.8420348367    -0.5884492495    -0.9873574835
    6      O      -1.6904609931    -0.5092639775    -2.4064237629
    7      C      -0.2846333301    -0.1749132939    -2.7474199852
    8      C       0.6482006799    -1.4488752026    -2.7656973651
    9      O       2.0421056054    -1.0083361546    -2.5160426228
   10      C       2.3702927377    -1.1906040471    -1.1284523480
   11      C       3.7182513351    -0.4482408076    -0.8503603519
   12      C       3.5056991602     0.9224474996    -0.0635717047
   13      C       1.9865053055     1.2131013961     0.2318108302
   14      O       1.1383706672     1.5433093910    -0.6376707935
   15      O      -2.4689002344     1.9444467722    -0.9479519698
   16      O       1.7156188892     1.0398614535     1.6068915495
   17      O       1.6663024638    -1.8298279214    -0.3170181153
   18      C       0.2613291352     1.1689969301     1.8942337581
   19      C       4.6391136110    -1.2361424226     0.1745574273
   20      C       6.0949864517    -0.6304486897     0.0909955625
   21      C       5.8971544558     0.7349121744     0.8485868861
   22      C       4.3674982639     0.6516127490     1.2387387681
   23      O       4.1507190118    -0.7903392863     1.4980794068
   24      H       4.2233036620    -0.2750864370    -1.8167724223
   25      H       3.9026046500     1.7682041102    -0.6538598281
   26      H       4.5759411987    -2.3383463692     0.0909893733
   27      H       6.8128384226    -1.2820286203     0.6140919971
   28      H       6.4316942323    -0.4961980506    -0.9494304194
   29      H       6.5216098867     0.7880623905     1.7542941523
   30      H       6.1171014154     1.6093625521     0.2154224181
   31      H       4.0661524486     1.2522347069     2.1176632859
   32      O      -0.8845038690    -0.5099897971    -0.1840967158
   33      C      -1.4343570362     3.0014248180    -0.8176235414
   34      C      -4.4144780679    -0.2509801908     1.4906015293
   35      C      -5.6791795663    -1.1666407750     1.2628461079
   36      C      -5.0352028114    -2.3920830881     0.5128024709
   37      C      -3.5169283183    -1.9579909428     0.4637472508
   38      O      -3.3217854110    -1.2226439698     1.7338316190
   39      H      -4.8940352492     0.7732394223    -0.4473163475
   40      H      -3.8879405064    -1.0661802836    -1.5749708941
   41      H      -0.4327465943     2.5239790469    -0.6855039288
   42      H      -4.4814527960     0.4719151698     2.3267522130
   43      H      -6.1154722459    -1.4687854857     2.2281654615
   44      H      -6.4559581839    -0.6621645752     0.6663542242
   45      H      -5.1491979307    -3.3242061342     1.0888248329
   46      H      -5.4573069584    -2.5452153532    -0.4933530373
   47      H      -2.7891996107    -2.7888550459     0.3837204624
   48      H      -1.6576806311     3.6573371312     0.0461327926
   49      H      -1.4563938554     3.5847401317    -1.7563355406
   50      H       0.1393977439     0.8488707469     2.9443555148
   51      H      -0.3286421480     0.5103814483     1.2135031882
   52      H      -0.0761023724     2.2193286350     1.7890031586
   53      H       0.3423268326    -2.1503859958    -1.9593458390
   54      H       0.6270940230    -1.9600963977    -3.7483098121
   55      H       0.1437796738     0.5447458060    -2.0083399694
   56      H      -0.3243655338     0.2945238994    -3.7495734592
 ----------------------------------------------------------------

    9   -1510.2998885343      8.39E-09 Convergence criterion met
 Total energy in the final basis set = -1510.29988853
 Final energy is   -1510.29988853426
 **  OPTIMIZATION CONVERGED  **

                    Orbital Energies (a.u.)
 --------------------------------------------------------------

 Alpha MOs
 -- Occupied --
-18.940 -18.933 -18.928 -18.928 -18.885 -18.885 -18.877 -18.876
-18.874 -18.872 -10.106 -10.101 -10.096 -10.096 -10.062 -10.058
-10.058 -10.057 -10.056 -10.055 -10.039 -10.038 -10.037 -10.037
-10.036 -10.035 -10.019 -10.019 -10.018 -10.018  -1.015  -1.011
 -1.007  -1.003  -0.967  -0.967  -0.937  -0.936  -0.932  -0.931
 -0.763  -0.761  -0.724  -0.721  -0.709  -0.704  -0.691  -0.652
 -0.648  -0.615  -0.594  -0.577  -0.545  -0.543  -0.535  -0.534
 -0.511  -0.505  -0.478  -0.473  -0.462  -0.458  -0.450  -0.444
 -0.434  -0.431  -0.426  -0.422  -0.410  -0.404  -0.398  -0.392
 -0.382  -0.375  -0.371  -0.362  -0.358  -0.357  -0.353  -0.349
 -0.343  -0.338  -0.330  -0.329  -0.327  -0.322  -0.316  -0.309
 -0.307  -0.304  -0.302  -0.298  -0.286  -0.284  -0.284  -0.276
 -0.270  -0.259  -0.246  -0.241  -0.238  -0.232  -0.230  -0.187
 -0.175  -0.171  -0.161  -0.159  -0.154  -0.149  -0.148  -0.141
 -0.141

          Ground-State Mulliken Net Atomic Charges

     Atom                 Charge (a.u.)
  ----------------------------------------
      1 O                    -0.214665
      2 C                     0.210436
      3 C                    -0.078251
      4 C                    -0.078918
      5 C                     0.219024
      6 O                    -0.168247
      7 C                    -0.061227
      8 C                    -0.057736
      9 O                    -0.174011
     10 C                     0.206449
     11 C                    -0.078840
     12 C                    -0.077113
     13 C                     0.221231
     14 O                    -0.226626
     15 O                    -0.174354
     16 O                    -0.158377
     17 O                    -0.202254
     18 C                    -0.143901
     19 C                     0.026005
     20 C                    -0.143950
     21 C                    -0.144508
     22 C                     0.025429
     23 O                    -0.183903
     24 H                     0.086211
     25 H                     0.084104
     26 H                     0.084823
     27 H                     0.078015
     28 H                     0.073001
     29 H                     0.078025
     30 H                     0.072354
     31 H                     0.091110
     32 O                    -0.217033
     33 C                    -0.150969
     34 C                     0.023510
     35 C                    -0.143930
     36 C                    -0.143954
     37 C                     0.025342
     38 O                    -0.187100
     39 H                     0.084906
     40 H                     0.086535
     41 H                     0.111098
     42 H                     0.090126
     43 H                     0.078176
     44 H                     0.072840
     45 H                     0.078250
     46 H                     0.073240
     47 H                     0.084869
     48 H                     0.087141
     49 H                     0.081264
     50 H                     0.090662
     51 H                     0.121832
     52 H                     0.083313
     53 H                     0.099564
     54 H                     0.083971
     55 H                     0.112088
     56 H                     0.084924
  ----------------------------------------
  Sum of atomic charges =    -0.000000

                    Cartesian Multipole Moments
 -----------------------------------------------------------------
    Charge (ESU x 10^10)
                -0.0000
    Dipole Moment (Debye)
         X       0.0827      Y       0.5442      Z      -2.5136
       Tot       2.5731
    Quadrupole Moments (Debye-Ang)
        XX    -135.9290     XY       6.9491     YY    -156.3675
        XZ      -1.6937     YZ       3.6664     ZZ    -163.8464

 Total job time:  175.52s(wall), 8377.49s(cpu)
        *  Thank you very much for using Q-Chem.  Have a nice day.  *
