 Q-Chem 5.0, Q-Chem, Inc., Pleasanton, CA (2017)
 Q-Chem 5.0.1 for Intel X86 EM64T Linux

User input:
--------------------------------------------------------------
$molecule
0  1
O -3.94934 -3.66094 2.70899
C -3.26408 -4.56952 2.26188
C -3.36658 -6.02376 2.66595
C -2.21168 -6.60489 3.49802
C -1.16949 -5.62216 3.98399
O -0.28824 -5.34504 2.978
C 0.86868 -4.62959 3.424
C 1.38107 -5.22221 4.73259
O 2.48841 -4.44816 5.21995
C 3.05871 -4.90209 6.36356
C 4.24723 -4.07688 6.79613
C 4.02127 -2.55802 6.77936
C 2.57784 -2.10568 6.6867
O 2.14718 -1.26391 5.91177
O -2.30066 -4.27457 1.35069
O 1.7107 -2.65076 7.58379
O 2.58075 -5.79573 7.05245
C 0.36201 -2.36827 7.63598
C 4.71302 -4.29106 8.24899
C 6.17867 -3.87825 8.38432
C 6.06166 -2.37109 8.26979
C 4.53892 -2.21719 8.19104
O 4.05269 -3.28346 8.97352
H 5.06749 -4.35284 6.09583
H 4.59365 -2.03341 5.98227
H 4.57377 -5.33235 8.61177
H 6.49782 -4.13079 9.42098
H 6.87319 -4.35673 7.6607
H 6.44834 -1.91728 9.20934
H 6.57028 -1.91898 7.39093
H 4.23301 -1.19728 8.51389
O -1.45865 -4.78409 4.83352
C -2.02735 -3.00345 0.89149
C -4.54378 -6.28063 3.63492
C -4.95516 -7.75263 3.58547
C -3.79815 -8.3933 4.32095
C -2.99438 -7.14889 4.70794
O -3.97653 -6.16421 4.91539
H -3.55255 -6.59514 1.72913
H -1.67349 -7.42434 2.97033
H -1.71956 -2.35058 1.73623
H -5.42924 -5.63947 3.43109
H -5.87277 -7.86523 4.20639
H -5.15047 -8.14954 2.56607
H -4.19375 -8.88934 5.23528
H -3.19784 -9.11622 3.72732
H -2.33204 -7.36986 5.57436
H -2.92251 -2.57593 0.39131
H -1.19658 -3.05289 0.15815
H -0.0999 -2.95249 8.45792
H -0.12421 -2.65277 6.67812
H 0.20424 -1.2863 7.83226
H 0.64342 -5.23782 5.55662
H 1.70508 -6.26921 4.53619
H 0.58795 -3.56864 3.60777
H 1.65075 -4.65052 2.6362
$end

$opt
CONSTRAINT
tors           1           2           3           4    -109.279
tors           3           4           5           6     -80.282
tors           4           5           6           7    -168.714
tors           5           6           7           8     +43.154
tors           6           7           8           9    -176.305
tors           7           8           9          10    -178.120
tors           8           9          10          11    +177.869
tors           9          10          11          12     +47.301
tors          11          12          13          14    -131.616
ENDCONSTRAINT
$end

$rem
JOBTYPE                   OPT
METHOD                    B3LYP
DFT_D                     d3_op
BASIS                     STO-3G
GEOM_OPT_MAX_CYCLES       100
GEOM_OPT_TOL_GRADIENT     300
GEOM_OPT_TOL_DISPLACEMENT 1200
GEOM_OPT_TOL_ENERGY       100
SYMMETRY                  False
THRESH                    12
SCF_CONVERGENCE           8
MAX_SUB_FILE_NUM          128
MEM_STATIC                400
MEM_TOTAL                 4000
$end
--------------------------------------------------------------

   15   -1510.1363102980      9.92E-09 Convergence criterion met
 Total energy in the final basis set = -1510.13631030
   15   -1510.2078051040      1.57E-09 Convergence criterion met
 Total energy in the final basis set = -1510.20780510
   15   -1510.2468458628      1.24E-09 Convergence criterion met
 Total energy in the final basis set = -1510.24684586
   15   -1510.2664836623      1.54E-09 Convergence criterion met
 Total energy in the final basis set = -1510.26648366
   14   -1510.2750046694      6.77E-09 Convergence criterion met
 Total energy in the final basis set = -1510.27500467
    2   -1510.2750046695      1.56E-09 Convergence criterion met
 Total energy in the final basis set = -1510.27500467
   13   -1510.2788922270      7.10E-09 Convergence criterion met
 Total energy in the final basis set = -1510.27889223
   13   -1510.2804336424      6.73E-09 Convergence criterion met
   11   -1510.2812207567      3.84E-09 Convergence criterion met
 Total energy in the final basis set = -1510.28122076
   11   -1510.2812298651      3.39E-09 Convergence criterion met
 Total energy in the final basis set = -1510.28122987
   11   -1510.2812351754      1.91E-09 Convergence criterion met
 Total energy in the final basis set = -1510.28123518
   10   -1510.2812385513      7.27E-09 Convergence criterion met
 Total energy in the final basis set = -1510.28123855
   10   -1510.2812342441      8.40E-09 Convergence criterion met
 Total energy in the final basis set = -1510.28123424
    9   -1510.2812358105      5.71E-09 Convergence criterion met
 Total energy in the final basis set = -1510.28123581

             Standard Nuclear Orientation (Angstroms)
    I     Atom           X                Y                Z
 ----------------------------------------------------------------
    1      O      -4.3438851811     1.9133364156     1.4600781944
    2      C      -4.2504755841     1.4741799143     0.2937433594
    3      C      -4.8367864979     0.1287166927    -0.2681320149
    4      C      -3.7387357966    -0.9783409640    -0.5984436699
    5      C      -2.2574276635    -0.5130800795    -0.3683442108
    6      O      -1.8534556696     0.2614027668    -1.5012374353
    7      C      -0.3941280697     0.5415972442    -1.5389488702
    8      C       0.5463101634    -0.6645473017    -1.1816602422
    9      O       1.9103588681    -0.0900139038    -1.2070965822
   10      C       2.8941862519    -1.0991092696    -0.9377568538
   11      C       4.2971667154    -0.4082804164    -1.0411037065
   12      C       4.3716427839     0.9657523021    -0.2505493517
   13      C       3.0708730971     1.2985100800     0.5654781630
   14      O       2.4411115261     2.3782089847     0.5747553379
   15      O      -3.6055463375     2.1709743172    -0.7765240315
   16      O       2.7555940767     0.1708753569     1.3946392963
   17      O       2.6342981812    -2.2992887047    -0.7178663533
   18      C       1.5294769088     0.4359022422     2.1821718824
   19      C       5.4329825113    -1.2470279076    -0.3251600199
   20      C       6.8274201273    -0.7317053974    -0.8554828018
   21      C       6.9277388780     0.6616056176    -0.1292305310
   22      C       5.5951927562     0.6641872852     0.7213290847
   23      O       5.4002328904    -0.7603222022     1.0738250615
   24      H       4.5228453056    -0.2543511492    -2.1128027652
   25      H       4.5759114967     1.8166153894    -0.9233593547
   26      H       5.2724319480    -2.3423326799    -0.3596815937
   27      H       7.6348274843    -1.4105785844    -0.5375944749
   28      H       6.8512128870    -0.6440621574    -1.9534601526
   29      H       7.8065867503     0.7103945805     0.5331325504
   30      H       6.9709519511     1.5068700463    -0.8348022666
   31      H       5.6202136228     1.2900460995     1.6342884681
   32      O      -1.5521942950    -0.7479856985     0.6396136958
   33      C      -2.9773018771     3.4125007768    -0.2689996523
   34      C      -5.6762647966    -0.6171787228     0.8505235686
   35      C      -6.5391818057    -1.7512900069     0.1694148259
   36      C      -5.4390771380    -2.8386506392    -0.1233708625
   37      C      -4.1466057657    -2.1174802541     0.4257498505
   38      O      -4.6408908563    -1.3656218032     1.6014469219
   39      H      -5.4377466752     0.3565261490    -1.1672340667
   40      H      -3.8337597934    -1.3095532913    -1.6481145666
   41      H      -2.1935045593     3.1916668445     0.4843257781
   42      H      -6.2247796295     0.0647642118     1.5287212773
   43      H      -7.3021432169    -2.1267455746     0.8698302787
   44      H      -7.0431855239    -1.3986105398    -0.7446875886
   45      H      -5.6291164530    -3.7668577557     0.4388186102
   46      H      -5.3568698480    -3.0843420786    -1.1942592794
   47      H      -3.3116988560    -2.7835206571     0.7173401004
   48      H      -3.7238356833     4.0925892967     0.1896215965
   49      H      -2.5177573261     3.9022788642    -1.1470248428
   50      H       1.4506908328    -0.3926196833     2.9096458336
   51      H       0.6224501718     0.4426344917     1.5423802492
   52      H       1.5913346216     1.4029962950     2.7205863911
   53      H       0.2822529983    -1.0524479922    -0.1761368666
   54      H       0.4415443940    -1.4872804917    -1.9215440154
   55      H      -0.1537501877     1.3776361476    -0.8433762026
   56      H      -0.1963136163     0.8864063358    -2.5736856433
 ----------------------------------------------------------------

   10   -1510.2812364785      6.20E-09 Convergence criterion met
 Total energy in the final basis set = -1510.28123648
 Final energy is   -1510.28123647849
 **  OPTIMIZATION CONVERGED  **

                    Orbital Energies (a.u.)
 --------------------------------------------------------------

 Alpha MOs
 -- Occupied --
-18.942 -18.935 -18.933 -18.926 -18.887 -18.886 -18.885 -18.879
-18.876 -18.865 -10.108 -10.102 -10.098 -10.094 -10.078 -10.069
-10.064 -10.060 -10.059 -10.058 -10.057 -10.054 -10.041 -10.039
-10.037 -10.034 -10.021 -10.020 -10.020 -10.018  -1.020  -1.015
 -1.010  -1.000  -0.970  -0.968  -0.946  -0.939  -0.935  -0.928
 -0.765  -0.762  -0.730  -0.723  -0.711  -0.704  -0.698  -0.663
 -0.653  -0.620  -0.597  -0.586  -0.547  -0.546  -0.538  -0.536
 -0.513  -0.509  -0.484  -0.471  -0.465  -0.463  -0.456  -0.445
 -0.435  -0.429  -0.427  -0.414  -0.411  -0.406  -0.404  -0.398
 -0.388  -0.383  -0.377  -0.369  -0.363  -0.357  -0.354  -0.349
 -0.347  -0.342  -0.336  -0.332  -0.331  -0.329  -0.323  -0.312
 -0.308  -0.306  -0.304  -0.297  -0.291  -0.289  -0.283  -0.277
 -0.275  -0.259  -0.254  -0.248  -0.244  -0.234  -0.232  -0.189
 -0.180  -0.173  -0.168  -0.160  -0.157  -0.150  -0.144  -0.144
 -0.141

          Ground-State Mulliken Net Atomic Charges

     Atom                 Charge (a.u.)
  ----------------------------------------
      1 O                    -0.208944
      2 C                     0.205595
      3 C                    -0.077407
      4 C                    -0.078048
      5 C                     0.209671
      6 O                    -0.164838
      7 C                    -0.049309
      8 C                    -0.058336
      9 O                    -0.178608
     10 C                     0.218597
     11 C                    -0.078542
     12 C                    -0.078459
     13 C                     0.212851
     14 O                    -0.220799
     15 O                    -0.167332
     16 O                    -0.169879
     17 O                    -0.208465
     18 C                    -0.130483
     19 C                     0.024649
     20 C                    -0.143588
     21 C                    -0.144212
     22 C                     0.025654
     23 O                    -0.185274
     24 H                     0.083583
     25 H                     0.083795
     26 H                     0.090209
     27 H                     0.078040
     28 H                     0.072431
     29 H                     0.077900
     30 H                     0.073291
     31 H                     0.082753
     32 O                    -0.211616
     33 C                    -0.128551
     34 C                     0.024660
     35 C                    -0.144394
     36 C                    -0.143806
     37 C                     0.024887
     38 O                    -0.186118
     39 H                     0.086028
     40 H                     0.085613
     41 H                     0.089178
     42 H                     0.089301
     43 H                     0.078558
     44 H                     0.072899
     45 H                     0.078738
     46 H                     0.072759
     47 H                     0.087497
     48 H                     0.089747
     49 H                     0.091164
     50 H                     0.093300
     51 H                     0.089545
     52 H                     0.088636
     53 H                     0.107403
     54 H                     0.083938
     55 H                     0.090871
     56 H                     0.093267
  ----------------------------------------
  Sum of atomic charges =    -0.000000

                    Cartesian Multipole Moments
 -----------------------------------------------------------------
    Charge (ESU x 10^10)
                 0.0000
    Dipole Moment (Debye)
         X      -0.2283      Y       0.5078      Z      -3.6769
       Tot       3.7188
    Quadrupole Moments (Debye-Ang)
        XX    -141.0636     XY       7.9584     YY    -161.2391
        XZ       2.1460     YZ       2.4772     ZZ    -162.0581

 Total job time:  67.96s(wall), 3233.12s(cpu)
        *  Thank you very much for using Q-Chem.  Have a nice day.  *
