 Q-Chem 5.0, Q-Chem, Inc., Pleasanton, CA (2017)
 Q-Chem 5.0.1 for Intel X86 EM64T Linux

User input:
--------------------------------------------------------------
$molecule
0  1
O -3.9586845798 1.8175737268 1.5311958327
C -4.1378739949 1.5377107302 0.326469169
C -4.7930600507 0.2442786137 -0.2716265595
C -3.7330152112 -0.8584206227 -0.7215634593
C -2.2521528334 -0.47551103 -0.3764280756
O -1.8095476781 0.5222299731 -1.3085701729
C -0.4075307681 0.8978757811 -1.0095069826
C 0.6094257611 -0.2255712407 -1.4154964477
O 1.9328691587 0.3145130363 -1.0381017302
C 2.9974130081 -0.5278614752 -1.4916786078
C 4.3414360932 0.1676257026 -1.0860094581
C 4.2841393405 0.9116675813 0.315295911
C 2.9587001967 0.6887657304 1.1346419166
O 2.2661210795 1.578099472 1.6763942195
O -3.7840075954 2.3995241625 -0.7610770355
O 2.7354182792 -0.7194139766 1.2973953073
O 2.833788169 -1.5924168092 -2.1220933757
C 1.4979638703 -0.9545893279 2.079232574
C 5.5205457724 -0.8647036072 -0.8535515715
C 6.8832469116 -0.0761764674 -0.9585735634
C 6.8573340926 0.7436405372 0.3848455227
C 5.5183811733 0.2191422548 1.0433828181
O 5.4278580046 -1.1872436318 0.5891274824
H 4.5980391758 0.8837973799 -1.8894235877
H 4.4257809618 2.000680653 0.2035438298
H 5.443046149 -1.7838713507 -1.4666054438
H 7.7316112474 -0.7785085302 -0.9867943574
H 6.9275136781 0.5678689571 -1.8513905417
H 7.72191673 0.5036281343 1.0239071911
H 6.8346065362 1.8322373056 0.2166880546
H 5.4860983587 0.2713166144 2.1489245728
O -1.5434002703 -0.9320677134 0.5481389091
C -3.0865362948 3.6013261819 -0.249502167
C -5.6175979179 -0.562780429 0.8174039482
C -6.5841082729 -1.5606162053 0.068647243
C -5.562172183 -2.641918565 -0.445251204
C -4.2065631607 -2.0927928818 0.1511097876
O -4.6088125515 -1.4588024229 1.4281994041
H -5.4198106916 0.5429604989 -1.1309405706
H -3.8038808348 -1.0495095847 -1.8076475461
H -2.1390014354 3.3337497393 0.261199251
H -6.0878395175 0.0720946423 1.592962146
H -7.3066073882 -1.9955860581 0.7774813851
H -7.1406686529 -1.0745258948 -0.7487130796
H -5.787568264 -3.6394512345 -0.0363123935
H -5.5322269114 -2.7092520104 -1.5444901584
H -3.4182879637 -2.8496210765 0.3287748172
H -3.7193346072 4.172408075 0.46022836
H -2.8653126049 4.2253637126 -1.1347656744
H 1.5248780632 -2.0185045055 2.3781233718
H 0.5812824585 -0.7709709622 1.4769514583
H 1.4609909971 -0.3130935663 2.9822363955
H 0.3922496393 -1.1643163188 -0.8628992612
H 0.5558017708 -0.4366353069 -2.5054372065
H -0.2759929987 1.1255038722 0.0706201052
H -0.2113936842 1.8146651016 -1.6001573865
$end

$rem
JOBTYPE                   OPT
METHOD                    B3LYP
DFT_D                     d3_op
BASIS                     STO-3G
GEOM_OPT_MAX_CYCLES       100
GEOM_OPT_TOL_GRADIENT     300
GEOM_OPT_TOL_DISPLACEMENT 1200
GEOM_OPT_TOL_ENERGY       100
SYMMETRY                  False
THRESH                    12
SCF_CONVERGENCE           8
MAX_SUB_FILE_NUM          128
MEM_STATIC                400
MEM_TOTAL                 4000
$end
--------------------------------------------------------------

   16   -1510.2855004490      4.95E-09 Convergence criterion met
 Total energy in the final basis set = -1510.28550045
   15   -1510.2845585142      2.14E-09 Convergence criterion met
 Total energy in the final basis set = -1510.28455851
   14   -1510.2872200688      6.84E-09 Convergence criterion met
 Total energy in the final basis set = -1510.28722007
   15   -1510.2875844921      2.29E-09 Convergence criterion met
 Total energy in the final basis set = -1510.28758449
   13   -1510.2890388992      5.72E-09 Convergence criterion met
 Total energy in the final basis set = -1510.28903890
   14   -1510.2889363502      2.91E-09 Convergence criterion met
 Total energy in the final basis set = -1510.28893635
   13   -1510.2896689961      7.70E-09 Convergence criterion met
 Total energy in the final basis set = -1510.28966900
   13   -1510.2894554640      5.23E-09 Convergence criterion met
   12   -1510.2942813490      4.96E-09 Convergence criterion met
 Total energy in the final basis set = -1510.29428135
   13   -1510.2943020860      2.30E-09 Convergence criterion met
 Total energy in the final basis set = -1510.29430209
   12   -1510.2943227653      4.51E-09 Convergence criterion met
 Total energy in the final basis set = -1510.29432277
   10   -1510.2943181402      8.16E-09 Convergence criterion met
 Total energy in the final basis set = -1510.29431814
   10   -1510.2943238745      6.01E-09 Convergence criterion met
 Total energy in the final basis set = -1510.29432387
   11   -1510.2943252442      2.35E-09 Convergence criterion met
 Total energy in the final basis set = -1510.29432524

             Standard Nuclear Orientation (Angstroms)
    I     Atom           X                Y                Z
 ----------------------------------------------------------------
    1      O      -2.1522729371     1.4267397055     0.2372618622
    2      C      -3.4049593648     1.4519855107     0.2111160110
    3      C      -4.3573070166     0.3307878709    -0.3257641481
    4      C      -3.5632722927    -0.9152064241    -0.8951837625
    5      C      -1.9999478374    -0.7326467005    -0.8784819332
    6      O      -1.6355847726    -0.0198503343    -2.0677393671
    7      C      -0.2122650628     0.3971872841    -2.0387918689
    8      C       0.7991236480    -0.8013406837    -2.1512267155
    9      O       2.1493642537    -0.2249307698    -1.9485468857
   10      C       2.9834537471    -1.1222631100    -1.1995031652
   11      C       4.3325938080    -0.3700173779    -0.9285710275
   12      C       4.1412057132     0.9741427603    -0.1048914859
   13      C       2.6540924295     1.2535959418     0.3074585688
   14      O       1.9941965378     2.2959927072     0.0948337924
   15      O      -4.1907473268     2.5344208703     0.7035005572
   16      O       2.1697656809     0.1102115130     1.0123585496
   17      O       2.6643948081    -2.2838517713    -0.8736331728
   18      C       0.7783872744     0.3163808062     1.4872664598
   19      C       5.2795654221    -1.1941897862     0.0357879228
   20      C       6.7368746005    -0.5970975786    -0.0728547117
   21      C       6.5680320070     0.7532730949     0.7192952202
   22      C       5.0524735806     0.6624940937     1.1614760067
   23      O       4.8401745362    -0.7834697088     1.3892748850
   24      H       4.8159760671    -0.1652014973    -1.9014986053
   25      H       4.5076877489     1.8499354527    -0.6678346043
   26      H       5.1937960627    -2.2920648564    -0.0808174940
   27      H       7.4638612979    -1.2638926644     0.4174641611
   28      H       7.0481877805    -0.4419088191    -1.1182384046
   29      H       7.2253423893     0.7884714688     1.6024395671
   30      H       6.7648073511     1.6400869030     0.0957955004
   31      H       4.7909771494     1.2403038308     2.0691505553
   32      O      -1.2042124671    -1.2481007486    -0.0588946927
   33      C      -3.3094549321     3.5911026928     1.2562855074
   34      C      -5.1615316461    -0.3488495785     0.8664283525
   35      C      -6.3118484815    -1.2441425224     0.2578844577
   36      C      -5.4928556344    -2.4832920029    -0.2623977751
   37      C      -4.0217090744    -2.0518241037     0.1112481280
   38      O      -4.1907054160    -1.3320071379     1.3965162369
   39      H      -5.0378271996     0.7707972422    -1.0769304558
   40      H      -3.8719270845    -1.1321643210    -1.9332768874
   41      H      -2.6073220435     3.9778483685     0.4898796469
   42      H      -5.4793346457     0.3582740504     1.6573229430
   43      H      -7.0275971792    -1.5324729247     1.0441781765
   44      H      -6.8609370765    -0.7276497869    -0.5458566740
   45      H      -5.7703673216    -3.4041184786     0.2747113774
   46      H      -5.6161163496    -2.6534223885    -1.3439579089
   47      H      -3.2899381895    -2.8746660965     0.2259752915
   48      H      -2.7204483644     3.2164321728     2.1181457932
   49      H      -3.9815794945     4.4026579192     1.5902056887
   50      H       0.7497185197     0.0591723594     2.5630341337
   51      H       0.0842777613    -0.3483891008     0.9205312350
   52      H       0.4816791899     1.3734151582     1.3382872277
   53      H       0.5831242104    -1.5598104528    -1.3699530877
   54      H       0.7322158763    -1.2806778023    -3.1516770880
   55      H       0.0018292848     0.9722501694    -1.1125875283
   56      H      -0.0918524692     1.0742473051    -2.9080666816
 ----------------------------------------------------------------

    9   -1510.2943252706      6.09E-09 Convergence criterion met
 Total energy in the final basis set = -1510.29432527
 Final energy is   -1510.29432527059
 **  OPTIMIZATION CONVERGED  **

                    Orbital Energies (a.u.)
 --------------------------------------------------------------

 Alpha MOs
 -- Occupied --
-18.949 -18.930 -18.922 -18.917 -18.892 -18.890 -18.881 -18.874
-18.871 -18.859 -10.112 -10.104 -10.093 -10.087 -10.072 -10.065
-10.064 -10.060 -10.059 -10.054 -10.051 -10.045 -10.038 -10.031
-10.029 -10.025 -10.023 -10.022 -10.015 -10.014  -1.025  -1.008
 -1.004  -0.993  -0.973  -0.963  -0.948  -0.936  -0.929  -0.920
 -0.767  -0.757  -0.727  -0.720  -0.712  -0.700  -0.692  -0.670
 -0.639  -0.613  -0.594  -0.580  -0.548  -0.540  -0.538  -0.531
 -0.516  -0.502  -0.484  -0.468  -0.463  -0.459  -0.457  -0.438
 -0.434  -0.429  -0.424  -0.419  -0.414  -0.400  -0.398  -0.394
 -0.385  -0.382  -0.371  -0.369  -0.357  -0.353  -0.349  -0.347
 -0.341  -0.338  -0.333  -0.330  -0.325  -0.324  -0.316  -0.316
 -0.309  -0.304  -0.302  -0.298  -0.290  -0.280  -0.278  -0.276
 -0.270  -0.262  -0.253  -0.240  -0.237  -0.230  -0.227  -0.190
 -0.178  -0.168  -0.165  -0.157  -0.150  -0.148  -0.146  -0.141
 -0.136

          Ground-State Mulliken Net Atomic Charges

     Atom                 Charge (a.u.)
  ----------------------------------------
      1 O                    -0.206876
      2 C                     0.216745
      3 C                    -0.077834
      4 C                    -0.081379
      5 C                     0.224689
      6 O                    -0.174757
      7 C                    -0.050724
      8 C                    -0.058347
      9 O                    -0.179881
     10 C                     0.217382
     11 C                    -0.077774
     12 C                    -0.078111
     13 C                     0.208678
     14 O                    -0.222803
     15 O                    -0.166891
     16 O                    -0.170745
     17 O                    -0.207814
     18 C                    -0.151854
     19 C                     0.025006
     20 C                    -0.144055
     21 C                    -0.144178
     22 C                     0.026214
     23 O                    -0.184521
     24 H                     0.083164
     25 H                     0.082988
     26 H                     0.089409
     27 H                     0.077212
     28 H                     0.072012
     29 H                     0.076917
     30 H                     0.072651
     31 H                     0.082005
     32 O                    -0.218178
     33 C                    -0.128111
     34 C                     0.024989
     35 C                    -0.143767
     36 C                    -0.143840
     37 C                     0.024983
     38 O                    -0.188695
     39 H                     0.088290
     40 H                     0.085570
     41 H                     0.093693
     42 H                     0.086418
     43 H                     0.079082
     44 H                     0.073989
     45 H                     0.079167
     46 H                     0.073828
     47 H                     0.090217
     48 H                     0.092821
     49 H                     0.093471
     50 H                     0.080244
     51 H                     0.109823
     52 H                     0.091072
     53 H                     0.108376
     54 H                     0.079285
     55 H                     0.101925
     56 H                     0.088817
  ----------------------------------------
  Sum of atomic charges =     0.000000

                    Cartesian Multipole Moments
 -----------------------------------------------------------------
    Charge (ESU x 10^10)
                 0.0000
    Dipole Moment (Debye)
         X      -2.1582      Y       1.8604      Z      -1.9034
       Tot       3.4267
    Quadrupole Moments (Debye-Ang)
        XX    -132.8908     XY       3.1346     YY    -160.1431
        XZ      -1.6820     YZ       7.7050     ZZ    -157.9146

 Total job time:  104.67s(wall), 4987.92s(cpu)
        *  Thank you very much for using Q-Chem.  Have a nice day.  *
