 Q-Chem 5.0, Q-Chem, Inc., Pleasanton, CA (2017)
 Q-Chem 5.0.1 for Intel X86 EM64T Linux

User input:
--------------------------------------------------------------
$molecule
0  1
O -3.94934 -3.66094 2.70899
C -3.26408 -4.56952 2.26188
C -3.36658 -6.02376 2.66595
C -2.37842 -6.52864 3.73013
C -1.5161 -5.48205 4.40031
O -0.5244 -5.08389 3.54978
C 0.34126 -4.09525 4.11766
C 1.24601 -4.73006 5.16864
O 2.10486 -3.73199 5.74235
C 3.05983 -4.19875 6.58456
C 3.96118 -3.10882 7.11397
C 3.26252 -1.77035 7.39441
C 1.74872 -1.81424 7.45096
O 0.99515 -1.04791 6.86838
O -2.23614 -4.26266 1.42831
O 1.19713 -2.74493 8.27844
O 3.05062 -5.33398 7.04534
C -0.15835 -2.92228 8.45958
C 4.61097 -3.39156 8.48312
C 5.87685 -2.54793 8.63353
C 5.27884 -1.16537 8.80415
C 3.7858 -1.51072 8.82074
O 3.74246 -2.78957 9.41012
H 4.7543 -2.98186 6.3434
H 3.55208 -0.96409 6.68433
H 4.84559 -4.46464 8.65225
H 6.35839 -2.84605 9.59249
H 6.61375 -2.64777 7.80774
H 5.59607 -0.76591 9.79307
H 5.52594 -0.437 8.00169
H 3.20685 -0.71518 9.34032
O -1.67997 -5.07014 5.54449
C -1.92988 -2.98526 1.00878
C -4.70504 -6.3099 3.38672
C -5.04961 -7.79538 3.28797
C -4.03389 -8.38043 4.24215
C -3.37605 -7.09823 4.76216
O -4.41354 -6.15209 4.75096
H -3.36012 -6.61941 1.72578
H -1.70318 -7.33515 3.36666
H -1.68369 -2.34489 1.88281
H -5.553 -5.70532 2.99559
H -6.06467 -7.92979 3.72622
H -5.03549 -8.21654 2.25973
H -4.57988 -8.89464 5.06437
H -3.29497 -9.07383 3.78544
H -2.9033 -7.29394 5.75014
H -2.78662 -2.54951 0.45162
H -1.0484 -3.02503 0.33662
H -0.3235 -3.74854 9.18086
H -0.64053 -3.18782 7.49467
H -0.61514 -1.99471 8.86575
H 0.66494 -5.20762 5.98411
H 1.85312 -5.51436 4.66178
H -0.24124 -3.24198 4.53496
H 0.98864 -3.68997 3.31125
$end

$opt
CONSTRAINT
tors           1           2           3           4     -96.862
tors           3           4           5           6     -75.445
tors           4           5           6           7    -179.690
tors           5           6           7           8     +72.794
tors           6           7           8           9    -179.551
tors           7           8           9          10    -172.964
tors           8           9          10          11    +177.869
tors           9          10          11          12     +36.522
tors          11          12          13          14    -131.616
ENDCONSTRAINT
$end

$rem
JOBTYPE                   OPT
METHOD                    B3LYP
DFT_D                     d3_op
BASIS                     STO-3G
GEOM_OPT_MAX_CYCLES       100
GEOM_OPT_TOL_GRADIENT     300
GEOM_OPT_TOL_DISPLACEMENT 1200
GEOM_OPT_TOL_ENERGY       100
SYMMETRY                  False
THRESH                    12
SCF_CONVERGENCE           8
MAX_SUB_FILE_NUM          128
MEM_STATIC                400
MEM_TOTAL                 4000
$end
--------------------------------------------------------------

   15   -1510.1581858548      9.23E-09 Convergence criterion met
 Total energy in the final basis set = -1510.15818585
   14   -1510.2271218894      6.47E-09 Convergence criterion met
 Total energy in the final basis set = -1510.22712189
   14   -1510.2639051316      6.07E-09 Convergence criterion met
 Total energy in the final basis set = -1510.26390513
   14   -1510.2795798091      8.00E-09 Convergence criterion met
 Total energy in the final basis set = -1510.27957981
   14   -1510.2840268998      4.72E-09 Convergence criterion met
 Total energy in the final basis set = -1510.28402690
   13   -1510.2848129656      3.81E-09 Convergence criterion met
 Total energy in the final basis set = -1510.28481297
   13   -1510.2850173691      4.75E-09 Convergence criterion met
 Total energy in the final basis set = -1510.28501737
   12   -1510.2854621914      8.23E-09 Convergence criterion met
   11   -1510.2856943073      7.57E-09 Convergence criterion met
 Total energy in the final basis set = -1510.28569431
   11   -1510.2857152937      6.44E-09 Convergence criterion met
 Total energy in the final basis set = -1510.28571529
   10   -1510.2857205121      9.89E-09 Convergence criterion met
 Total energy in the final basis set = -1510.28572051
    9   -1510.2857227613      7.01E-09 Convergence criterion met
 Total energy in the final basis set = -1510.28572276
    9   -1510.2857240149      9.50E-09 Convergence criterion met
 Total energy in the final basis set = -1510.28572401
    9   -1510.2857252743      3.52E-09 Convergence criterion met
 Total energy in the final basis set = -1510.28572527

             Standard Nuclear Orientation (Angstroms)
    I     Atom           X                Y                Z
 ----------------------------------------------------------------
    1      O      -3.9586845798     1.8175737268     1.5311958327
    2      C      -4.1378739949     1.5377107302     0.3264691690
    3      C      -4.7930600507     0.2442786137    -0.2716265595
    4      C      -3.7330152112    -0.8584206227    -0.7215634593
    5      C      -2.2521528334    -0.4755110300    -0.3764280756
    6      O      -1.8095476781     0.5222299731    -1.3085701729
    7      C      -0.4075307681     0.8978757811    -1.0095069826
    8      C       0.6094257611    -0.2255712407    -1.4154964477
    9      O       1.9328691587     0.3145130363    -1.0381017302
   10      C       2.9974130081    -0.5278614752    -1.4916786078
   11      C       4.3414360932     0.1676257026    -1.0860094581
   12      C       4.2841393405     0.9116675813     0.3152959110
   13      C       2.9587001967     0.6887657304     1.1346419166
   14      O       2.2661210795     1.5780994720     1.6763942195
   15      O      -3.7840075954     2.3995241625    -0.7610770355
   16      O       2.7354182792    -0.7194139766     1.2973953073
   17      O       2.8337881690    -1.5924168092    -2.1220933757
   18      C       1.4979638703    -0.9545893279     2.0792325740
   19      C       5.5205457724    -0.8647036072    -0.8535515715
   20      C       6.8832469116    -0.0761764674    -0.9585735634
   21      C       6.8573340926     0.7436405372     0.3848455227
   22      C       5.5183811733     0.2191422548     1.0433828181
   23      O       5.4278580046    -1.1872436318     0.5891274824
   24      H       4.5980391758     0.8837973799    -1.8894235877
   25      H       4.4257809618     2.0006806530     0.2035438298
   26      H       5.4430461490    -1.7838713507    -1.4666054438
   27      H       7.7316112474    -0.7785085302    -0.9867943574
   28      H       6.9275136781     0.5678689571    -1.8513905417
   29      H       7.7219167300     0.5036281343     1.0239071911
   30      H       6.8346065362     1.8322373056     0.2166880546
   31      H       5.4860983587     0.2713166144     2.1489245728
   32      O      -1.5434002703    -0.9320677134     0.5481389091
   33      C      -3.0865362948     3.6013261819    -0.2495021670
   34      C      -5.6175979179    -0.5627804290     0.8174039482
   35      C      -6.5841082729    -1.5606162053     0.0686472430
   36      C      -5.5621721830    -2.6419185650    -0.4452512040
   37      C      -4.2065631607    -2.0927928818     0.1511097876
   38      O      -4.6088125515    -1.4588024229     1.4281994041
   39      H      -5.4198106916     0.5429604989    -1.1309405706
   40      H      -3.8038808348    -1.0495095847    -1.8076475461
   41      H      -2.1390014354     3.3337497393     0.2611992510
   42      H      -6.0878395175     0.0720946423     1.5929621460
   43      H      -7.3066073882    -1.9955860581     0.7774813851
   44      H      -7.1406686529    -1.0745258948    -0.7487130796
   45      H      -5.7875682640    -3.6394512345    -0.0363123935
   46      H      -5.5322269114    -2.7092520104    -1.5444901584
   47      H      -3.4182879637    -2.8496210765     0.3287748172
   48      H      -3.7193346072     4.1724080750     0.4602283600
   49      H      -2.8653126049     4.2253637126    -1.1347656744
   50      H       1.5248780632    -2.0185045055     2.3781233718
   51      H       0.5812824585    -0.7709709622     1.4769514583
   52      H       1.4609909971    -0.3130935663     2.9822363955
   53      H       0.3922496393    -1.1643163188    -0.8628992612
   54      H       0.5558017708    -0.4366353069    -2.5054372065
   55      H      -0.2759929987     1.1255038722     0.0706201052
   56      H      -0.2113936842     1.8146651016    -1.6001573865
 ----------------------------------------------------------------

    9   -1510.2857262617      3.05E-09 Convergence criterion met
 Total energy in the final basis set = -1510.28572626
 Final energy is   -1510.28572626172
 **  OPTIMIZATION CONVERGED  **

                    Orbital Energies (a.u.)
 --------------------------------------------------------------

 Alpha MOs
 -- Occupied --
-18.944 -18.939 -18.935 -18.918 -18.888 -18.886 -18.885 -18.882
-18.877 -18.858 -10.107 -10.105 -10.099 -10.090 -10.079 -10.077
-10.064 -10.061 -10.060 -10.058 -10.057 -10.046 -10.043 -10.040
-10.038 -10.033 -10.022 -10.021 -10.019 -10.018  -1.023  -1.018
 -1.010  -0.995  -0.971  -0.967  -0.947  -0.942  -0.936  -0.922
 -0.766  -0.762  -0.731  -0.723  -0.711  -0.705  -0.699  -0.664
 -0.648  -0.620  -0.597  -0.586  -0.549  -0.545  -0.539  -0.535
 -0.514  -0.509  -0.487  -0.471  -0.467  -0.463  -0.458  -0.443
 -0.433  -0.431  -0.427  -0.415  -0.411  -0.404  -0.401  -0.401
 -0.394  -0.386  -0.374  -0.365  -0.362  -0.357  -0.354  -0.350
 -0.346  -0.342  -0.335  -0.332  -0.332  -0.328  -0.321  -0.312
 -0.309  -0.307  -0.304  -0.297  -0.294  -0.289  -0.283  -0.278
 -0.275  -0.262  -0.253  -0.250  -0.239  -0.235  -0.231  -0.190
 -0.182  -0.175  -0.165  -0.161  -0.159  -0.152  -0.145  -0.141
 -0.139

          Ground-State Mulliken Net Atomic Charges

     Atom                 Charge (a.u.)
  ----------------------------------------
      1 O                    -0.208818
      2 C                     0.205057
      3 C                    -0.078347
      4 C                    -0.077266
      5 C                     0.207995
      6 O                    -0.166823
      7 C                    -0.049258
      8 C                    -0.049585
      9 O                    -0.174341
     10 C                     0.218846
     11 C                    -0.078714
     12 C                    -0.078530
     13 C                     0.214056
     14 O                    -0.224626
     15 O                    -0.167096
     16 O                    -0.172732
     17 O                    -0.209018
     18 C                    -0.134852
     19 C                     0.024649
     20 C                    -0.143332
     21 C                    -0.144539
     22 C                     0.025727
     23 O                    -0.185422
     24 H                     0.083716
     25 H                     0.083225
     26 H                     0.089599
     27 H                     0.078077
     28 H                     0.072381
     29 H                     0.077764
     30 H                     0.073199
     31 H                     0.083108
     32 O                    -0.210009
     33 C                    -0.128367
     34 C                     0.025099
     35 C                    -0.143615
     36 C                    -0.144425
     37 C                     0.025022
     38 O                    -0.185578
     39 H                     0.086374
     40 H                     0.086784
     41 H                     0.088456
     42 H                     0.088115
     43 H                     0.078815
     44 H                     0.073302
     45 H                     0.078824
     46 H                     0.073055
     47 H                     0.087854
     48 H                     0.089798
     49 H                     0.090083
     50 H                     0.088391
     51 H                     0.093107
     52 H                     0.088914
     53 H                     0.095626
     54 H                     0.088909
     55 H                     0.098355
     56 H                     0.093012
  ----------------------------------------
  Sum of atomic charges =    -0.000000

                    Cartesian Multipole Moments
 -----------------------------------------------------------------
    Charge (ESU x 10^10)
                 0.0000
    Dipole Moment (Debye)
         X      -0.6711      Y       1.4543      Z      -3.1420
       Tot       3.5267
    Quadrupole Moments (Debye-Ang)
        XX    -139.5796     XY      10.0531     YY    -158.9425
        XZ       5.2770     YZ      -2.6604     ZZ    -164.6153

 Total job time:  51.99s(wall), 2471.76s(cpu)
        *  Thank you very much for using Q-Chem.  Have a nice day.  *
