 Q-Chem 5.0, Q-Chem, Inc., Pleasanton, CA (2017)
 Q-Chem 5.0.1 for Intel X86 EM64T Linux

User input:
--------------------------------------------------------------
$molecule
0  1
O -3.9838269963 1.8261284526 1.4339808868
C -4.2221200519 1.4882388375 0.2552181289
C -4.8539619257 0.1440546903 -0.2519081081
C -3.7492574276 -0.9580256869 -0.5739676325
C -2.2885516061 -0.4302111504 -0.3797248731
O -1.796589796 0.0188784848 -1.6525764507
C -0.3826126973 0.4452540474 -1.5205853706
C 0.5847565546 -0.7640612428 -1.2627410319
O 1.9276370908 -0.1566778229 -1.1425777918
C 2.9359600598 -1.1569570108 -0.9453518892
C 4.3245662042 -0.4356537016 -1.0199905696
C 4.3506106546 0.9616464646 -0.2670695925
C 3.0339807668 1.2880914481 0.5293307319
O 2.384981304 2.3560825566 0.4949155576
O -3.8845789671 2.2785668797 -0.8919567672
O 2.7404624899 0.1877780797 1.4022639053
O 2.7025380442 -2.3745857542 -0.8044954598
C 1.4788362271 0.4359342165 2.1385548119
C 5.4637624864 -1.2295018117 -0.2575774768
C 6.8565999878 -0.704487861 -0.7820795782
C 6.9119654174 0.7173980201 -0.1087658815
C 5.5694352946 0.7183121901 0.7263698939
O 5.3999285473 -0.6980118641 1.123521794
H 4.5756903528 -0.3047822367 -2.0892992443
H 4.5415324412 1.7987182163 -0.9606337197
H 5.3248250862 -2.328340164 -0.2602823622
H 7.6713429479 -1.3523902287 -0.4213717401
H 6.9008168192 -0.659706096 -1.8820887469
H 7.7817964078 0.8145459463 0.5601753854
H 6.941359195 1.5357642991 -0.8460274309
H 5.5710022331 1.3735826849 1.6188258786
O -1.6277419801 -0.3795895716 0.6815205779
C -3.1780345155 3.5094705866 -0.4675643795
C -5.6593700556 -0.5798695635 0.9065243841
C -6.5218212176 -1.7411226119 0.2706463834
C -5.4147011054 -2.8229614824 -0.0156782422
C -4.1204262676 -2.0733685809 0.4909464214
O -4.6010921926 -1.2967864008 1.655392362
H -5.4759306322 0.3503900447 -1.1409903094
H -3.8495015925 -1.3202856904 -1.6123638189
H -2.2374182858 3.2727779363 0.0709311744
H -6.2061010917 0.1089562857 1.5789702025
H -7.2678020742 -2.1073586359 0.9938992428
H -7.0453524663 -1.4167115313 -0.6428742957
H -5.5833675383 -3.7392423701 0.5723827344
H -5.3492231392 -3.0936913735 -1.081628624
H -3.2748384038 -2.7251081506 0.7839556482
H -3.8104896146 4.1391293832 0.1910635741
H -2.9439465855 4.0626682259 -1.395602068
H 1.4434436299 -0.3176953744 2.9464626264
H 0.5887781372 0.3082826845 1.485540145
H 1.4553828807 1.4548193599 2.5742016424
H 0.3009440453 -1.2921553987 -0.3278641718
H 0.5450795245 -1.4892160365 -2.1044769181
H -0.2631151659 1.1805807201 -0.6953774662
H -0.1275677111 0.9359358011 -2.4806319498
$end

$rem
JOBTYPE                   OPT
METHOD                    B3LYP
DFT_D                     d3_op
BASIS                     STO-3G
GEOM_OPT_MAX_CYCLES       100
GEOM_OPT_TOL_GRADIENT     300
GEOM_OPT_TOL_DISPLACEMENT 1200
GEOM_OPT_TOL_ENERGY       100
SYMMETRY                  False
THRESH                    12
SCF_CONVERGENCE           8
MAX_SUB_FILE_NUM          128
MEM_STATIC                400
MEM_TOTAL                 4000
$end
--------------------------------------------------------------

   16   -1510.2851621908      5.28E-09 Convergence criterion met
 Total energy in the final basis set = -1510.28516219
   14   -1510.2868560823      8.12E-09 Convergence criterion met
 Total energy in the final basis set = -1510.28685608
   14   -1510.2881594781      8.46E-09 Convergence criterion met
 Total energy in the final basis set = -1510.28815948
   14   -1510.2887436709      6.78E-09 Convergence criterion met
 Total energy in the final basis set = -1510.28874367
   13   -1510.2900809971      8.45E-09 Convergence criterion met
 Total energy in the final basis set = -1510.29008100
   13   -1510.2906532496      4.17E-09 Convergence criterion met
 Total energy in the final basis set = -1510.29065325
   13   -1510.2911786921      8.24E-09 Convergence criterion met
 Total energy in the final basis set = -1510.29117869
   14   -1510.2921721055      5.57E-09 Convergence criterion met
   12   -1510.2998470173      5.00E-09 Convergence criterion met
 Total energy in the final basis set = -1510.29984702
   12   -1510.2998585894      3.30E-09 Convergence criterion met
 Total energy in the final basis set = -1510.29985859
   12   -1510.2998528124      3.65E-09 Convergence criterion met
 Total energy in the final basis set = -1510.29985281
   11   -1510.2998573710      5.98E-09 Convergence criterion met
 Total energy in the final basis set = -1510.29985737
   11   -1510.2998654717      7.23E-09 Convergence criterion met
 Total energy in the final basis set = -1510.29986547
   11   -1510.2998682898      5.81E-09 Convergence criterion met
 Total energy in the final basis set = -1510.29986829

             Standard Nuclear Orientation (Angstroms)
    I     Atom           X                Y                Z
 ----------------------------------------------------------------
    1      O      -2.7823930462     2.1714233225     1.4238395529
    2      C      -3.0418051209     1.5904117530     0.3479792119
    3      C      -4.0202362077     0.3800631432     0.1279706909
    4      C      -3.3525169522    -0.8400772942    -0.6419914002
    5      C      -1.8476647544    -0.5856235944    -0.9913161349
    6      O      -1.6999887671    -0.4957218612    -2.4101338285
    7      C      -0.2967155971    -0.1510136031    -2.7517976478
    8      C       0.6432666729    -1.4196128827    -2.7793307286
    9      O       2.0348286563    -0.9737897078    -2.5261810516
   10      C       2.3636778658    -1.1638744163    -1.1397757537
   11      C       3.7080527374    -0.4169311268    -0.8567147956
   12      C       3.4890991769     0.9476573923    -0.0610252741
   13      C       1.9687521989     1.2286384215     0.2377442428
   14      O       1.1179523125     1.5613436979    -0.6281710718
   15      O      -2.4955728936     1.9391486858    -0.9239561416
   16      O       1.7006483871     1.0434249563     1.6118968043
   17      O       1.6626624404    -1.8119654384    -0.3328183884
   18      C       0.2461814359     1.1616669401     1.9027169122
   19      C       4.6328553159    -1.2072092268     0.1629433875
   20      C       6.0859067521    -0.5943982779     0.0828066905
   21      C       5.8819685988     0.7654307305     0.8486695595
   22      C       4.3529788090     0.6726641618     1.2389840345
   23      O       4.1429784442    -0.7719166887     1.4894197601
   24      H       4.2122441903    -0.2350544505    -1.8219676940
   25      H       3.8814184025     1.7991366926    -0.6461393997
   26      H       4.5745309351    -2.3091371292     0.0724914962
   27      H       6.8069509981    -1.2457823329     0.6017395564
   28      H       6.4216847094    -0.4523869725    -0.9568839046
   29      H       6.5064455341     0.8158766950     1.7545223973
   30      H       6.0977409371     1.6447933399     0.2208866797
   31      H       4.0494677647     1.2664142978     2.1218201264
   32      O      -0.8887241388    -0.5049808643    -0.1899280184
   33      C      -1.4673749914     3.0017338505    -0.7892380472
   34      C      -4.4065872838    -0.2981378891     1.5036216678
   35      C      -5.6657162786    -1.2212799639     1.2750413483
   36      C      -5.0182060402    -2.4317905230     0.5041978322
   37      C      -3.5036094210    -1.9857189162     0.4498651798
   38      O      -3.3047031902    -1.2641564076     1.7272715526
   39      H      -4.9094969001     0.7437161473    -0.4189085801
   40      H      -3.8927777072    -1.0723124691    -1.5761740479
   41      H      -1.6919152445     3.6499790188     0.0799948977
   42      H      -4.4728807222     0.4143386455     2.3487168231
   43      H      -6.0907828476    -1.5391176026     2.2403673515
   44      H      -6.4521192677    -0.7159129043     0.6920009407
   45      H      -5.1210829970    -3.3722656545     1.0685460388
   46      H      -5.4465353777    -2.5747017646    -0.5008260485
   47      H      -2.7702819496    -2.8099944257     0.3544998275
   48      H      -1.4964742219     3.5917879179    -1.7235386692
   49      H      -0.4621910247     2.5299471855    -0.6640701101
   50      H       0.1280864370     0.8327071201     2.9505497007
   51      H      -0.3410329563     0.5047567573     1.2179774517
   52      H      -0.0976621091     2.2107296077     1.8062734676
   53      H       0.3408138866    -2.1287476620    -1.9783975454
   54      H       0.6250111236    -1.9235790667    -3.7657529093
   55      H       0.1288135564     0.5665395061    -2.0090097753
   56      H      -0.3409917669     0.3241917495    -3.7510180719
 ----------------------------------------------------------------

    9   -1510.2998692680      9.19E-09 Convergence criterion met
 Total energy in the final basis set = -1510.29986927
 Final energy is   -1510.29986926802
 **  OPTIMIZATION CONVERGED  **

                    Orbital Energies (a.u.)
 --------------------------------------------------------------

 Alpha MOs
 -- Occupied --
-18.940 -18.933 -18.928 -18.928 -18.885 -18.885 -18.877 -18.876
-18.874 -18.872 -10.106 -10.101 -10.096 -10.096 -10.062 -10.058
-10.058 -10.057 -10.056 -10.055 -10.038 -10.038 -10.037 -10.036
-10.036 -10.035 -10.019 -10.019 -10.018 -10.018  -1.015  -1.011
 -1.007  -1.003  -0.967  -0.967  -0.936  -0.936  -0.932  -0.931
 -0.762  -0.761  -0.724  -0.721  -0.709  -0.704  -0.691  -0.652
 -0.648  -0.615  -0.594  -0.577  -0.545  -0.543  -0.535  -0.534
 -0.511  -0.505  -0.478  -0.473  -0.462  -0.458  -0.450  -0.444
 -0.434  -0.431  -0.426  -0.422  -0.410  -0.404  -0.398  -0.392
 -0.382  -0.375  -0.371  -0.362  -0.358  -0.356  -0.353  -0.349
 -0.343  -0.338  -0.330  -0.329  -0.327  -0.322  -0.316  -0.309
 -0.307  -0.304  -0.302  -0.297  -0.286  -0.284  -0.284  -0.276
 -0.270  -0.259  -0.246  -0.241  -0.238  -0.232  -0.230  -0.187
 -0.175  -0.171  -0.161  -0.159  -0.154  -0.149  -0.148  -0.141
 -0.141

          Ground-State Mulliken Net Atomic Charges

     Atom                 Charge (a.u.)
  ----------------------------------------
      1 O                    -0.214626
      2 C                     0.210491
      3 C                    -0.078282
      4 C                    -0.078880
      5 C                     0.219030
      6 O                    -0.168251
      7 C                    -0.061199
      8 C                    -0.057707
      9 O                    -0.174022
     10 C                     0.206469
     11 C                    -0.078843
     12 C                    -0.077115
     13 C                     0.221179
     14 O                    -0.226595
     15 O                    -0.174358
     16 O                    -0.158447
     17 O                    -0.202214
     18 C                    -0.143928
     19 C                     0.025996
     20 C                    -0.143945
     21 C                    -0.144518
     22 C                     0.025439
     23 O                    -0.183899
     24 H                     0.086194
     25 H                     0.084080
     26 H                     0.084817
     27 H                     0.078008
     28 H                     0.072988
     29 H                     0.078011
     30 H                     0.072350
     31 H                     0.091107
     32 O                    -0.217054
     33 C                    -0.150911
     34 C                     0.023508
     35 C                    -0.143897
     36 C                    -0.143984
     37 C                     0.025352
     38 O                    -0.187062
     39 H                     0.084917
     40 H                     0.086529
     41 H                     0.087105
     42 H                     0.090124
     43 H                     0.078177
     44 H                     0.072837
     45 H                     0.078264
     46 H                     0.073251
     47 H                     0.084848
     48 H                     0.081295
     49 H                     0.111119
     50 H                     0.090613
     51 H                     0.121850
     52 H                     0.083286
     53 H                     0.099522
     54 H                     0.083978
     55 H                     0.112061
     56 H                     0.084945
  ----------------------------------------
  Sum of atomic charges =    -0.000000

                    Cartesian Multipole Moments
 -----------------------------------------------------------------
    Charge (ESU x 10^10)
                 0.0000
    Dipole Moment (Debye)
         X       0.0674      Y       0.5562      Z      -2.5051
       Tot       2.5670
    Quadrupole Moments (Debye-Ang)
        XX    -136.0254     XY       7.0698     YY    -156.3219
        XZ      -1.7239     YZ       3.6999     ZZ    -163.7667

 Total job time:  180.05s(wall), 8593.10s(cpu)
        *  Thank you very much for using Q-Chem.  Have a nice day.  *
