 Q-Chem 5.0, Q-Chem, Inc., Pleasanton, CA (2017)
 Q-Chem 5.0.1 for Intel X86 EM64T Linux

User input:
--------------------------------------------------------------
$molecule
0  1
O -3.94934 -3.66094 2.70899
C -3.26408 -4.56952 2.26188
C -3.36658 -6.02376 2.66595
C -2.47373 -6.49548 3.82533
C -1.70912 -5.42196 4.56764
O -0.449 -5.30975 4.05292
C 0.36585 -4.36799 4.75887
C 0.70615 -4.90319 6.14591
O 1.51015 -3.94769 6.85548
C 1.91197 -4.32863 8.09345
C 2.893 -3.36413 8.71634
C 2.56184 -1.87915 8.50795
C 1.15364 -1.57594 8.03703
O 0.86049 -0.83633 7.10881
O -2.20395 -4.25856 1.47154
O 0.13899 -2.13379 8.75368
O 1.40075 -5.25426 8.71201
C -1.19969 -1.97876 8.46139
C 3.00775 -3.4296 10.25122
C 4.36093 -2.86899 10.68876
C 4.1599 -1.39188 10.41269
C 2.69441 -1.39131 9.96442
O 2.11637 -2.44168 10.70485
H 3.87626 -3.60697 8.25436
H 3.26834 -1.35945 7.82312
H 2.86495 -4.45112 10.66512
H 4.43816 -3.01597 11.78999
H 5.24443 -3.32813 10.19525
H 4.27138 -0.83797 11.37132
H 4.8301 -0.95579 9.64058
H 2.24209 -0.38543 10.11153
O -2.24818 -4.56464 5.26025
C -1.88263 -2.9791 1.06994
C -4.75406 -6.34403 3.27438
C -5.04715 -7.8403 3.16019
C -4.10073 -8.39256 4.20405
C -3.52839 -7.09042 4.77249
O -4.58843 -6.17462 4.66016
H -3.26774 -6.62844 1.73657
H -1.74321 -7.26624 3.48913
H -1.67141 -2.34208 1.95547
H -5.58066 -5.76439 2.80724
H -6.09171 -7.99898 3.51256
H -4.93602 -8.26945 2.14124
H -4.70007 -8.92226 4.97769
H -3.30337 -9.06291 3.81627
H -3.12947 -7.25545 5.7981
H -2.71758 -2.54171 0.48176
H -0.97591 -3.01516 0.43198
H -1.80116 -2.54169 9.20408
H -1.41718 -2.37922 7.44783
H -1.48127 -0.90531 8.51134
H -0.22517 -5.08751 6.72426
H 1.25791 -5.8636 6.03298
H -0.12481 -3.36947 4.81378
H 1.31649 -4.23728 4.1998
$end

$opt
CONSTRAINT
tors           1           2           3           4     -91.047
tors           3           4           5           6     -95.107
tors           4           5           6           7    -176.391
tors           5           6           7           8     +69.570
tors           6           7           8           9    -179.312
tors           7           8           9          10    -178.120
tors           8           9          10          11    +172.702
tors           9          10          11          12     +41.694
tors          11          12          13          14    -131.616
ENDCONSTRAINT
$end

$rem
JOBTYPE                   OPT
METHOD                    B3LYP
DFT_D                     d3_op
BASIS                     STO-3G
GEOM_OPT_MAX_CYCLES       100
GEOM_OPT_TOL_GRADIENT     300
GEOM_OPT_TOL_DISPLACEMENT 1200
GEOM_OPT_TOL_ENERGY       100
SYMMETRY                  False
THRESH                    12
SCF_CONVERGENCE           8
MAX_SUB_FILE_NUM          128
MEM_STATIC                400
MEM_TOTAL                 4000
$end
--------------------------------------------------------------

   15   -1510.1522469083      5.87E-09 Convergence criterion met
 Total energy in the final basis set = -1510.15224691
   14   -1510.2216474141      4.74E-09 Convergence criterion met
 Total energy in the final basis set = -1510.22164741
   14   -1510.2590687411      9.68E-09 Convergence criterion met
 Total energy in the final basis set = -1510.25906874
   14   -1510.2759517515      9.18E-09 Convergence criterion met
 Total energy in the final basis set = -1510.27595175
   14   -1510.2818000213      4.50E-09 Convergence criterion met
 Total energy in the final basis set = -1510.28180002
    2   -1510.2818000213      7.52E-10 Convergence criterion met
 Total energy in the final basis set = -1510.28180002
   13   -1510.2834341787      4.95E-09 Convergence criterion met
 Total energy in the final basis set = -1510.28343418
   13   -1510.2840132665      8.50E-09 Convergence criterion met
   11   -1510.2849255442      4.67E-09 Convergence criterion met
 Total energy in the final basis set = -1510.28492554
   11   -1510.2849320678      3.11E-09 Convergence criterion met
 Total energy in the final basis set = -1510.28493207
   10   -1510.2849357234      9.27E-09 Convergence criterion met
 Total energy in the final basis set = -1510.28493572
   10   -1510.2849377127      4.10E-09 Convergence criterion met
 Total energy in the final basis set = -1510.28493771
    9   -1510.2849391032      4.42E-09 Convergence criterion met
 Total energy in the final basis set = -1510.28493910
    9   -1510.2849402083      3.98E-09 Convergence criterion met
 Total energy in the final basis set = -1510.28494021

             Standard Nuclear Orientation (Angstroms)
    I     Atom           X                Y                Z
 ----------------------------------------------------------------
    1      O      -3.9838269963     1.8261284526     1.4339808868
    2      C      -4.2221200519     1.4882388375     0.2552181289
    3      C      -4.8539619257     0.1440546903    -0.2519081081
    4      C      -3.7492574276    -0.9580256869    -0.5739676325
    5      C      -2.2885516061    -0.4302111504    -0.3797248731
    6      O      -1.7965897960     0.0188784848    -1.6525764507
    7      C      -0.3826126973     0.4452540474    -1.5205853706
    8      C       0.5847565546    -0.7640612428    -1.2627410319
    9      O       1.9276370908    -0.1566778229    -1.1425777918
   10      C       2.9359600598    -1.1569570108    -0.9453518892
   11      C       4.3245662042    -0.4356537016    -1.0199905696
   12      C       4.3506106546     0.9616464646    -0.2670695925
   13      C       3.0339807668     1.2880914481     0.5293307319
   14      O       2.3849813040     2.3560825566     0.4949155576
   15      O      -3.8845789671     2.2785668797    -0.8919567672
   16      O       2.7404624899     0.1877780797     1.4022639053
   17      O       2.7025380442    -2.3745857542    -0.8044954598
   18      C       1.4788362271     0.4359342165     2.1385548119
   19      C       5.4637624864    -1.2295018117    -0.2575774768
   20      C       6.8565999878    -0.7044878610    -0.7820795782
   21      C       6.9119654174     0.7173980201    -0.1087658815
   22      C       5.5694352946     0.7183121901     0.7263698939
   23      O       5.3999285473    -0.6980118641     1.1235217940
   24      H       4.5756903528    -0.3047822367    -2.0892992443
   25      H       4.5415324412     1.7987182163    -0.9606337197
   26      H       5.3248250862    -2.3283401640    -0.2602823622
   27      H       7.6713429479    -1.3523902287    -0.4213717401
   28      H       6.9008168192    -0.6597060960    -1.8820887469
   29      H       7.7817964078     0.8145459463     0.5601753854
   30      H       6.9413591950     1.5357642991    -0.8460274309
   31      H       5.5710022331     1.3735826849     1.6188258786
   32      O      -1.6277419801    -0.3795895716     0.6815205779
   33      C      -3.1780345155     3.5094705866    -0.4675643795
   34      C      -5.6593700556    -0.5798695635     0.9065243841
   35      C      -6.5218212176    -1.7411226119     0.2706463834
   36      C      -5.4147011054    -2.8229614824    -0.0156782422
   37      C      -4.1204262676    -2.0733685809     0.4909464214
   38      O      -4.6010921926    -1.2967864008     1.6553923620
   39      H      -5.4759306322     0.3503900447    -1.1409903094
   40      H      -3.8495015925    -1.3202856904    -1.6123638189
   41      H      -2.2374182858     3.2727779363     0.0709311744
   42      H      -6.2061010917     0.1089562857     1.5789702025
   43      H      -7.2678020742    -2.1073586359     0.9938992428
   44      H      -7.0453524663    -1.4167115313    -0.6428742957
   45      H      -5.5833675383    -3.7392423701     0.5723827344
   46      H      -5.3492231392    -3.0936913735    -1.0816286240
   47      H      -3.2748384038    -2.7251081506     0.7839556482
   48      H      -3.8104896146     4.1391293832     0.1910635741
   49      H      -2.9439465855     4.0626682259    -1.3956020680
   50      H       1.4434436299    -0.3176953744     2.9464626264
   51      H       0.5887781372     0.3082826845     1.4855401450
   52      H       1.4553828807     1.4548193599     2.5742016424
   53      H       0.3009440453    -1.2921553987    -0.3278641718
   54      H       0.5450795245    -1.4892160365    -2.1044769181
   55      H      -0.2631151659     1.1805807201    -0.6953774662
   56      H      -0.1275677111     0.9359358011    -2.4806319498
 ----------------------------------------------------------------

    9   -1510.2849410721      5.35E-09 Convergence criterion met
 Total energy in the final basis set = -1510.28494107
 Final energy is   -1510.28494107211
 **  OPTIMIZATION CONVERGED  **

                    Orbital Energies (a.u.)
 --------------------------------------------------------------

 Alpha MOs
 -- Occupied --
-18.942 -18.936 -18.934 -18.921 -18.889 -18.885 -18.884 -18.880
-18.877 -18.861 -10.106 -10.104 -10.098 -10.091 -10.078 -10.075
-10.064 -10.062 -10.060 -10.058 -10.057 -10.049 -10.042 -10.040
-10.038 -10.033 -10.022 -10.021 -10.019 -10.018  -1.021  -1.016
 -1.010  -0.997  -0.971  -0.967  -0.945  -0.940  -0.935  -0.925
 -0.766  -0.762  -0.730  -0.723  -0.712  -0.705  -0.699  -0.663
 -0.649  -0.620  -0.597  -0.585  -0.549  -0.545  -0.539  -0.536
 -0.514  -0.509  -0.485  -0.471  -0.467  -0.464  -0.456  -0.443
 -0.434  -0.430  -0.427  -0.414  -0.411  -0.405  -0.401  -0.401
 -0.393  -0.385  -0.374  -0.364  -0.362  -0.358  -0.353  -0.350
 -0.347  -0.342  -0.335  -0.332  -0.331  -0.328  -0.321  -0.312
 -0.309  -0.307  -0.304  -0.298  -0.293  -0.288  -0.282  -0.277
 -0.275  -0.261  -0.253  -0.251  -0.241  -0.235  -0.232  -0.187
 -0.180  -0.177  -0.165  -0.162  -0.158  -0.151  -0.145  -0.142
 -0.141

          Ground-State Mulliken Net Atomic Charges

     Atom                 Charge (a.u.)
  ----------------------------------------
      1 O                    -0.205404
      2 C                     0.204390
      3 C                    -0.077544
      4 C                    -0.078516
      5 C                     0.205853
      6 O                    -0.167622
      7 C                    -0.048685
      8 C                    -0.050510
      9 O                    -0.176736
     10 C                     0.218977
     11 C                    -0.078495
     12 C                    -0.078549
     13 C                     0.213936
     14 O                    -0.222454
     15 O                    -0.170563
     16 O                    -0.171272
     17 O                    -0.208846
     18 C                    -0.132809
     19 C                     0.024695
     20 C                    -0.143495
     21 C                    -0.144361
     22 C                     0.025625
     23 O                    -0.185301
     24 H                     0.083654
     25 H                     0.083460
     26 H                     0.089898
     27 H                     0.078057
     28 H                     0.072361
     29 H                     0.077784
     30 H                     0.073195
     31 H                     0.082976
     32 O                    -0.209973
     33 C                    -0.129188
     34 C                     0.025742
     35 C                    -0.144248
     36 C                    -0.143623
     37 C                     0.025870
     38 O                    -0.183438
     39 H                     0.086593
     40 H                     0.086974
     41 H                     0.089708
     42 H                     0.087322
     43 H                     0.078712
     44 H                     0.073363
     45 H                     0.078947
     46 H                     0.073330
     47 H                     0.085924
     48 H                     0.089444
     49 H                     0.090681
     50 H                     0.090839
     51 H                     0.091844
     52 H                     0.089241
     53 H                     0.096680
     54 H                     0.086237
     55 H                     0.095780
     56 H                     0.093541
  ----------------------------------------
  Sum of atomic charges =     0.000000

                    Cartesian Multipole Moments
 -----------------------------------------------------------------
    Charge (ESU x 10^10)
                 0.0000
    Dipole Moment (Debye)
         X      -0.5680      Y       0.3055      Z      -3.6771
       Tot       3.7332
    Quadrupole Moments (Debye-Ang)
        XX    -138.7155     XY       7.3649     YY    -160.0975
        XZ       0.4658     YZ       1.4773     ZZ    -163.1157

 Total job time:  67.25s(wall), 3199.82s(cpu)
        *  Thank you very much for using Q-Chem.  Have a nice day.  *
