 Q-Chem 5.0, Q-Chem, Inc., Pleasanton, CA (2017)
 Q-Chem 5.0.1 for Intel X86 EM64T Linux

User input:
--------------------------------------------------------------
$molecule
0  1
O -3.94934 -3.66094 2.70899
C -3.26408 -4.56952 2.26188
C -3.36658 -6.02376 2.66595
C -2.57384 -6.46574 3.90694
C -1.90938 -5.36863 4.70877
O -0.70085 -5.05584 4.15465
C 0.12161 -4.25671 5.0115
C 0.59058 -5.07959 6.20694
O 1.34318 -4.25072 7.10664
C 1.85033 -4.88176 8.19464
C 2.81202 -4.02112 8.97891
C 2.55642 -2.51006 8.88061
C 1.20511 -2.10303 8.32835
O 1.0068 -1.18638 7.54414
O -2.24617 -4.26532 1.41521
O 0.11349 -2.69486 8.89282
O 1.77569 -6.09255 8.36615
C -1.19459 -2.39283 8.5767
C 2.70092 -4.21712 10.50859
C 4.01333 -3.8 11.17167
C 3.95645 -2.29687 10.9865
C 2.55599 -2.15137 10.37922
O 1.82494 -3.2106 10.94568
H 3.8378 -4.32451 8.67093
H 3.34109 -1.96014 8.31582
H 2.43687 -5.25562 10.80496
H 3.91158 -4.02792 12.25725
H 4.93046 -4.29166 10.78186
H 4.00897 -1.81768 11.98923
H 4.73387 -1.87018 10.31626
H 2.15296 -1.13061 10.56377
O -2.34783 -4.90712 5.75827
C -1.95212 -2.99014 0.9804
C -4.80314 -6.37392 3.1077
C -5.04193 -7.87808 2.98209
C -4.21525 -8.38815 4.14048
C -3.73268 -7.06297 4.73919
O -4.79466 -6.17561 4.49725
H -3.13162 -6.62667 1.75999
H -1.8167 -7.25808 3.71172
H -1.70106 -2.33961 1.84545
H -5.58228 -5.81947 2.53911
H -6.11679 -8.06665 3.20419
H -4.78971 -8.3105 1.98996
H -4.89446 -8.90361 4.85581
H -3.37349 -9.06027 3.86666
H -3.45677 -7.21436 5.80649
H -2.81749 -2.56503 0.42826
H -1.07802 -3.03083 0.29869
H -1.87083 -3.02825 9.18427
H -1.38562 -2.5947 7.50196
H -1.40644 -1.32601 8.80245
H -0.26596 -5.50606 6.76869
H 1.21687 -5.91932 5.82974
H -0.42169 -3.34032 5.33497
H 1.01749 -3.92589 4.4447
$end

$opt
CONSTRAINT
tors           1           2           3           4     -85.492
tors           3           4           5           6     -83.963
tors           4           5           6           7    -166.530
tors           5           6           7           8     +69.302
tors           6           7           8           9    -176.305
tors           7           8           9          10    -178.120
tors           8           9          10          11    +170.609
tors           9          10          11          12     +28.251
tors          11          12          13          14    -138.960
ENDCONSTRAINT
$end

$rem
JOBTYPE                   OPT
METHOD                    B3LYP
DFT_D                     d3_op
BASIS                     STO-3G
GEOM_OPT_MAX_CYCLES       100
GEOM_OPT_TOL_GRADIENT     300
GEOM_OPT_TOL_DISPLACEMENT 1200
GEOM_OPT_TOL_ENERGY       100
SYMMETRY                  False
THRESH                    12
SCF_CONVERGENCE           8
MAX_SUB_FILE_NUM          128
MEM_STATIC                400
MEM_TOTAL                 4000
$end
--------------------------------------------------------------

   15   -1510.1538662729      7.90E-09 Convergence criterion met
 Total energy in the final basis set = -1510.15386627
   13   -1510.2228681001      9.34E-09 Convergence criterion met
 Total energy in the final basis set = -1510.22286810
   14   -1510.2594814101      1.78E-09 Convergence criterion met
 Total energy in the final basis set = -1510.25948141
   14   -1510.2747954551      2.34E-09 Convergence criterion met
 Total energy in the final basis set = -1510.27479546
   13   -1510.2788754171      7.26E-09 Convergence criterion met
 Total energy in the final basis set = -1510.27887542
    2   -1510.2788754171      7.68E-09 Convergence criterion met
 Total energy in the final basis set = -1510.27887542
   13   -1510.2793718415      7.26E-09 Convergence criterion met
 Total energy in the final basis set = -1510.27937184
   13   -1510.2805313216      4.13E-09 Convergence criterion met
   11   -1510.2810515506      4.09E-09 Convergence criterion met
 Total energy in the final basis set = -1510.28105155
   11   -1510.2810583441      4.01E-09 Convergence criterion met
 Total energy in the final basis set = -1510.28105834
   10   -1510.2810637443      5.65E-09 Convergence criterion met
 Total energy in the final basis set = -1510.28106374
    9   -1510.2810677791      8.27E-09 Convergence criterion met
 Total energy in the final basis set = -1510.28106778
    9   -1510.2810696129      6.34E-09 Convergence criterion met
 Total energy in the final basis set = -1510.28106961
   10   -1510.2810721427      6.15E-09 Convergence criterion met
 Total energy in the final basis set = -1510.28107214

             Standard Nuclear Orientation (Angstroms)
    I     Atom           X                Y                Z
 ----------------------------------------------------------------
    1      O      -4.1068851425     1.9050309726     1.2052397508
    2      C      -4.3682422241     1.4727844060     0.0621562981
    3      C      -4.8474379822     0.0341647719    -0.3366185881
    4      C      -3.6341721492    -0.9775767414    -0.5406358257
    5      C      -2.2405561443    -0.3411670639    -0.2061983141
    6      O      -1.7703661859     0.3772681460    -1.3607386447
    7      C      -0.3358291467     0.7076075078    -1.1892574283
    8      C       0.5829090865    -0.5637744618    -1.2535277924
    9      O       1.9417808936    -0.0532867050    -0.9746516068
   10      C       2.9250218925    -1.0930469939    -1.0378593394
   11      C       4.3389915686    -0.4211004314    -0.9710222929
   12      C       4.3839777807     0.9555622701    -0.1874048557
   13      C       3.1136910182     1.2516200826     0.6943681665
   14      O       2.5351387579     2.3540337224     0.8128745423
   15      O      -4.2420273309     2.2443581102    -1.1383425927
   16      O       2.8181920921     0.0924127771     1.4891952589
   17      O       2.6564941302    -2.3033629562    -1.1839343360
   18      C       1.5945879256     0.3185123708     2.2928908486
   19      C       5.4361293925    -1.2697031269    -0.1998377250
   20      C       6.8482431698    -0.8129117438    -0.7365921048
   21      C       6.9502840116     0.6269634778    -0.1069800273
   22      C       5.6309289482     0.6807434002     0.7643162662
   23      O       5.4172150717    -0.7258019948     1.1768952713
   24      H       4.6565174341    -0.2634639279    -2.0194894870
   25      H       4.5452691408     1.8147898105    -0.8607902719
   26      H       5.2487959812    -2.3612621213    -0.1953120180
   27      H       7.6366869425    -1.4774670172    -0.3484302131
   28      H       6.9011332433    -0.8055189942    -1.8370577683
   29      H       7.8413648567     0.7286869619     0.5325074100
   30      H       6.9718378591     1.4219352089    -0.8698278088
   31      H       5.6798506373     1.3405831018     1.6521272313
   32      O      -1.5880467344    -0.4601198633     0.8541490785
   33      C      -3.6980469295     3.5855090238    -0.8226949639
   34      C      -5.6370927175    -0.6839353305     0.8391830359
   35      C      -6.4135549505    -1.9147923333     0.2267614272
   36      C      -5.2308827902    -2.9235396146    -0.0233115249
   37      C      -4.0004500832    -2.0950271110     0.5209142013
   38      O      -4.5676201646    -1.3152987949     1.6448118568
   39      H      -5.4505985459     0.1101462592    -1.2585869037
   40      H      -3.6087168219    -1.3608735116    -1.5762803558
   41      H      -2.6826681420     3.5170132718    -0.3814276733
   42      H      -6.2406063137    -0.0009611097     1.4677017332
   43      H      -7.1378807372    -2.3135884696     0.9548316020
   44      H      -6.9507690402    -1.6500759630    -0.6979748025
   45      H      -5.3592140450    -3.8499032450     0.5588785003
   46      H      -5.1154766532    -3.1873500069    -1.0867852883
   47      H      -3.1350432033    -2.6929764943     0.8660178061
   48      H      -4.3517879760     4.1374569283    -0.1169123734
   49      H      -3.6472451458     4.1286325915    -1.7841504889
   50      H       1.6764954538    -0.3264775161     3.1871034710
   51      H       0.6834977140     0.0350793901     1.7222253639
   52      H       1.5094791888     1.3817121786     2.5931570280
   53      H       0.2728024368    -1.3062300335    -0.4868093850
   54      H       0.5308546677    -1.0460290072    -2.2537539933
   55      H      -0.1554318339     1.2290291143    -0.2239900261
   56      H      -0.0868285878     1.3962282327    -2.0207585196
 ----------------------------------------------------------------

    9   -1510.2810730791      8.55E-09 Convergence criterion met
 Total energy in the final basis set = -1510.28107308
 Final energy is   -1510.28107307910
 **  OPTIMIZATION CONVERGED  **

                    Orbital Energies (a.u.)
 --------------------------------------------------------------

 Alpha MOs
 -- Occupied --
-18.940 -18.939 -18.934 -18.918 -18.889 -18.886 -18.886 -18.881
-18.876 -18.859 -10.106 -10.106 -10.098 -10.091 -10.079 -10.078
-10.064 -10.061 -10.060 -10.058 -10.058 -10.046 -10.042 -10.039
-10.038 -10.034 -10.022 -10.021 -10.020 -10.019  -1.021  -1.017
 -1.010  -0.996  -0.971  -0.968  -0.946  -0.941  -0.935  -0.923
 -0.766  -0.763  -0.730  -0.723  -0.711  -0.705  -0.699  -0.663
 -0.647  -0.620  -0.597  -0.586  -0.549  -0.546  -0.539  -0.536
 -0.514  -0.509  -0.487  -0.471  -0.467  -0.464  -0.457  -0.442
 -0.432  -0.431  -0.427  -0.413  -0.411  -0.406  -0.402  -0.399
 -0.396  -0.386  -0.373  -0.366  -0.362  -0.357  -0.352  -0.352
 -0.346  -0.342  -0.335  -0.332  -0.332  -0.329  -0.320  -0.312
 -0.311  -0.307  -0.305  -0.298  -0.294  -0.290  -0.283  -0.277
 -0.277  -0.259  -0.253  -0.249  -0.238  -0.235  -0.232  -0.187
 -0.182  -0.177  -0.163  -0.160  -0.158  -0.151  -0.145  -0.141
 -0.141

          Ground-State Mulliken Net Atomic Charges

     Atom                 Charge (a.u.)
  ----------------------------------------
      1 O                    -0.208092
      2 C                     0.204351
      3 C                    -0.078264
      4 C                    -0.077945
      5 C                     0.206715
      6 O                    -0.170402
      7 C                    -0.049451
      8 C                    -0.048875
      9 O                    -0.174348
     10 C                     0.218483
     11 C                    -0.078617
     12 C                    -0.077951
     13 C                     0.216004
     14 O                    -0.225278
     15 O                    -0.168389
     16 O                    -0.171379
     17 O                    -0.210338
     18 C                    -0.135453
     19 C                     0.025511
     20 C                    -0.142731
     21 C                    -0.144862
     22 C                     0.025441
     23 O                    -0.184794
     24 H                     0.083368
     25 H                     0.083769
     26 H                     0.089457
     27 H                     0.078195
     28 H                     0.072544
     29 H                     0.078005
     30 H                     0.073179
     31 H                     0.083101
     32 O                    -0.206979
     33 C                    -0.128517
     34 C                     0.025696
     35 C                    -0.143674
     36 C                    -0.144242
     37 C                     0.025671
     38 O                    -0.183945
     39 H                     0.086394
     40 H                     0.086687
     41 H                     0.089252
     42 H                     0.086683
     43 H                     0.078710
     44 H                     0.073399
     45 H                     0.079009
     46 H                     0.073166
     47 H                     0.087255
     48 H                     0.089526
     49 H                     0.090364
     50 H                     0.088661
     51 H                     0.089805
     52 H                     0.093051
     53 H                     0.094279
     54 H                     0.086839
     55 H                     0.098639
     56 H                     0.093318
  ----------------------------------------
  Sum of atomic charges =     0.000000

                    Cartesian Multipole Moments
 -----------------------------------------------------------------
    Charge (ESU x 10^10)
                 0.0000
    Dipole Moment (Debye)
         X      -0.4939      Y       0.2197      Z      -3.7707
       Tot       3.8093
    Quadrupole Moments (Debye-Ang)
        XX    -139.0098     XY       6.8774     YY    -160.1868
        XZ       0.9957     YZ      -0.6794     ZZ    -163.2495

 Total job time:  60.47s(wall), 2877.05s(cpu)
        *  Thank you very much for using Q-Chem.  Have a nice day.  *
