 Q-Chem 5.0, Q-Chem, Inc., Pleasanton, CA (2017)
 Q-Chem 5.0.1 for Intel X86 EM64T Linux

User input:
--------------------------------------------------------------
$molecule
0  1
O -4.1068851425 1.9050309726 1.2052397508
C -4.3682422241 1.472784406 0.0621562981
C -4.8474379822 0.0341647719 -0.3366185881
C -3.6341721492 -0.9775767414 -0.5406358257
C -2.2405561443 -0.3411670639 -0.2061983141
O -1.7703661859 0.377268146 -1.3607386447
C -0.3358291467 0.7076075078 -1.1892574283
C 0.5829090865 -0.5637744618 -1.2535277924
O 1.9417808936 -0.053286705 -0.9746516068
C 2.9250218925 -1.0930469939 -1.0378593394
C 4.3389915686 -0.4211004314 -0.9710222929
C 4.3839777807 0.9555622701 -0.1874048557
C 3.1136910182 1.2516200826 0.6943681665
O 2.5351387579 2.3540337224 0.8128745423
O -4.2420273309 2.2443581102 -1.1383425927
O 2.8181920921 0.0924127771 1.4891952589
O 2.6564941302 -2.3033629562 -1.183934336
C 1.5945879256 0.3185123708 2.2928908486
C 5.4361293925 -1.2697031269 -0.199837725
C 6.8482431698 -0.8129117438 -0.7365921048
C 6.9502840116 0.6269634778 -0.1069800273
C 5.6309289482 0.6807434002 0.7643162662
O 5.4172150717 -0.7258019948 1.1768952713
H 4.6565174341 -0.2634639279 -2.019489487
H 4.5452691408 1.8147898105 -0.8607902719
H 5.2487959812 -2.3612621213 -0.195312018
H 7.6366869425 -1.4774670172 -0.3484302131
H 6.9011332433 -0.8055189942 -1.8370577683
H 7.8413648567 0.7286869619 0.53250741
H 6.9718378591 1.4219352089 -0.8698278088
H 5.6798506373 1.3405831018 1.6521272313
O -1.5880467344 -0.4601198633 0.8541490785
C -3.6980469295 3.5855090238 -0.8226949639
C -5.6370927175 -0.6839353305 0.8391830359
C -6.4135549505 -1.9147923333 0.2267614272
C -5.2308827902 -2.9235396146 -0.0233115249
C -4.0004500832 -2.095027111 0.5209142013
O -4.5676201646 -1.3152987949 1.6448118568
H -5.4505985459 0.1101462592 -1.2585869037
H -3.6087168219 -1.3608735116 -1.5762803558
H -2.682668142 3.5170132718 -0.3814276733
H -6.2406063137 -0.0009611097 1.4677017332
H -7.1378807372 -2.3135884696 0.954831602
H -6.9507690402 -1.650075963 -0.6979748025
H -5.359214045 -3.849903245 0.5588785003
H -5.1154766532 -3.1873500069 -1.0867852883
H -3.1350432033 -2.6929764943 0.8660178061
H -4.351787976 4.1374569283 -0.1169123734
H -3.6472451458 4.1286325915 -1.7841504889
H 1.6764954538 -0.3264775161 3.187103471
H 0.683497714 0.0350793901 1.7222253639
H 1.5094791888 1.3817121786 2.593157028
H 0.2728024368 -1.3062300335 -0.486809385
H 0.5308546677 -1.0460290072 -2.2537539933
H -0.1554318339 1.2290291143 -0.2239900261
H -0.0868285878 1.3962282327 -2.0207585196
$end

$rem
JOBTYPE                   OPT
METHOD                    B3LYP
DFT_D                     d3_op
BASIS                     STO-3G
GEOM_OPT_MAX_CYCLES       100
GEOM_OPT_TOL_GRADIENT     300
GEOM_OPT_TOL_DISPLACEMENT 1200
GEOM_OPT_TOL_ENERGY       100
SYMMETRY                  False
THRESH                    12
SCF_CONVERGENCE           8
MAX_SUB_FILE_NUM          128
MEM_STATIC                400
MEM_TOTAL                 4000
$end
--------------------------------------------------------------

   16   -1510.2810399871      4.95E-09 Convergence criterion met
 Total energy in the final basis set = -1510.28103999
   15   -1510.2848976309      2.54E-09 Convergence criterion met
 Total energy in the final basis set = -1510.28489763
   14   -1510.2859363381      1.23E-09 Convergence criterion met
 Total energy in the final basis set = -1510.28593634
   14   -1510.2864967725      9.61E-09 Convergence criterion met
 Total energy in the final basis set = -1510.28649677
   13   -1510.2879310133      8.70E-09 Convergence criterion met
 Total energy in the final basis set = -1510.28793101
   14   -1510.2879798995      4.87E-09 Convergence criterion met
 Total energy in the final basis set = -1510.28797990
   13   -1510.2893714359      7.91E-09 Convergence criterion met
 Total energy in the final basis set = -1510.28937144
   14   -1510.2896225858      5.46E-09 Convergence criterion met
   11   -1510.2997958388      7.02E-09 Convergence criterion met
 Total energy in the final basis set = -1510.29979584
   11   -1510.2998154897      4.54E-09 Convergence criterion met
 Total energy in the final basis set = -1510.29981549
   11   -1510.2998240964      5.06E-09 Convergence criterion met
 Total energy in the final basis set = -1510.29982410
   11   -1510.2998307832      2.66E-09 Convergence criterion met
 Total energy in the final basis set = -1510.29983078
    9   -1510.2998342305      9.15E-09 Convergence criterion met
 Total energy in the final basis set = -1510.29983423
   10   -1510.2998360286      5.67E-09 Convergence criterion met
 Total energy in the final basis set = -1510.29983603

             Standard Nuclear Orientation (Angstroms)
    I     Atom           X                Y                Z
 ----------------------------------------------------------------
    1      O      -2.8272797482     1.9644856498     1.6387696402
    2      C      -3.0853587697     1.4589054210     0.5253971375
    3      C      -3.9991085665     0.2150048559     0.2291978045
    4      C      -3.3110846704    -0.8633772195    -0.7132469026
    5      C      -1.8333364860    -0.4948986514    -1.0761607940
    6      O      -1.7229175154    -0.2753579791    -2.4843046594
    7      C      -0.3405374907     0.1530267653    -2.8169835959
    8      C       0.6440402098    -1.0723451800    -2.9764316220
    9      O       2.0160186104    -0.6211343570    -2.6410780465
   10      C       2.3366909896    -0.9821411890    -1.2873656554
   11      C       3.6694896547    -0.2588222236    -0.9048789563
   12      C       3.4315493478     1.0389332147    -0.0081053476
   13      C       1.9082444197     1.2739032480     0.3164547562
   14      O       1.0503564797     1.6770071179    -0.5115249643
   15      O      -2.5943811298     1.9389527935    -0.7265736428
   16      O       1.6495295311     0.9559750797     1.6685590612
   17      O       1.6417525162    -1.7396511237    -0.5763313785
   18      C       0.1954683614     1.0184713839     1.9754770870
   19      C       4.5758455346    -1.1281562428     0.0668167624
   20      C       6.0335155798    -0.5220671045     0.0455318880
   21      C       5.8252358913     0.7891845359     0.8905579657
   22      C       4.2948712530     0.6738419603     1.2688098746
   23      O       4.0781655815    -0.7839938469     1.4173120341
   24      H       4.1976719532     0.0039069367    -1.8382597863
   25      H       3.8112971259     1.9379664912    -0.5265580200
   26      H       4.5097392595    -2.2203941649    -0.1020134756
   27      H       6.7417931689    -1.2092062953     0.5351628749
   28      H       6.3871969587    -0.3196790673    -0.9781235255
   29      H       6.4462585323     0.7854823873     1.8001657233
   30      H       6.0438538152     1.7046333902     0.3177273446
   31      H       3.9921772030     1.2054951836     2.1905937758
   32      O      -0.8580110654    -0.4396223954    -0.2924703892
   33      C      -1.5984112824     3.0224564456    -0.5312814736
   34      C      -4.2532508088    -0.6376450153     1.5397047564
   35      C      -5.4798097670    -1.5974862109     1.2843513876
   36      C      -4.8342069433    -2.6631798531     0.3225878168
   37      C      -3.3470571030    -2.1378491360     0.2352133531
   38      O      -3.0952897494    -1.5620648511     1.5757585524
   39      H      -4.9448732395     0.5740323745    -0.2170021961
   40      H      -3.8786282711    -1.0111428752    -1.6485104426
   41      H      -0.5772734068     2.5761188059    -0.4451228282
   42      H      -4.2938970870    -0.0314969713     2.4656451718
   43      H      -5.8111314050    -2.0566617009     2.2292830947
   44      H      -6.3336542172    -1.0717299349     0.8279417697
   45      H      -4.8601205545    -3.6732416999     0.7614503220
   46      H      -5.3210725858    -2.6951954732    -0.6652864275
   47      H      -2.5867190339    -2.9065211473    -0.0036056554
   48      H      -1.8332173498     3.6105087849     0.3773757529
   49      H      -1.6551874462     3.6676975740    -1.4269634380
   50      H       0.0893172355     0.5891676337     2.9877008411
   51      H      -0.3804028754     0.4174875209     1.2323186028
   52      H      -0.1692435255     2.0649165703     1.9803417120
   53      H       0.3494608328    -1.8846518087    -2.2768639273
   54      H       0.6609077171    -1.4519689261    -4.0172632109
   55      H       0.0735602822     0.8126534377    -2.0167808591
   56      H      -0.4226862346     0.7163494593    -3.7667210711
 ----------------------------------------------------------------

   10   -1510.2998358655      4.87E-09 Convergence criterion met
 Total energy in the final basis set = -1510.29983587
 Final energy is   -1510.29983586552
 **  OPTIMIZATION CONVERGED  **

                    Orbital Energies (a.u.)
 --------------------------------------------------------------

 Alpha MOs
 -- Occupied --
-18.938 -18.932 -18.928 -18.927 -18.885 -18.885 -18.876 -18.876
-18.873 -18.873 -10.105 -10.100 -10.097 -10.096 -10.062 -10.058
-10.057 -10.057 -10.056 -10.056 -10.039 -10.038 -10.036 -10.036
-10.036 -10.035 -10.019 -10.018 -10.018 -10.017  -1.015  -1.010
 -1.006  -1.003  -0.968  -0.966  -0.936  -0.935  -0.932  -0.930
 -0.762  -0.760  -0.724  -0.721  -0.709  -0.703  -0.690  -0.652
 -0.647  -0.615  -0.594  -0.577  -0.544  -0.543  -0.535  -0.534
 -0.510  -0.505  -0.477  -0.473  -0.461  -0.458  -0.450  -0.443
 -0.434  -0.430  -0.426  -0.422  -0.409  -0.404  -0.398  -0.392
 -0.382  -0.375  -0.371  -0.362  -0.358  -0.355  -0.353  -0.348
 -0.343  -0.337  -0.330  -0.328  -0.327  -0.322  -0.316  -0.309
 -0.306  -0.304  -0.302  -0.297  -0.287  -0.284  -0.283  -0.275
 -0.269  -0.258  -0.246  -0.241  -0.238  -0.232  -0.229  -0.186
 -0.174  -0.171  -0.160  -0.158  -0.154  -0.149  -0.148  -0.141
 -0.140

          Ground-State Mulliken Net Atomic Charges

     Atom                 Charge (a.u.)
  ----------------------------------------
      1 O                    -0.214256
      2 C                     0.210946
      3 C                    -0.078524
      4 C                    -0.078650
      5 C                     0.219459
      6 O                    -0.168527
      7 C                    -0.060949
      8 C                    -0.057267
      9 O                    -0.174071
     10 C                     0.206972
     11 C                    -0.078886
     12 C                    -0.076969
     13 C                     0.220709
     14 O                    -0.226004
     15 O                    -0.174156
     16 O                    -0.158966
     17 O                    -0.202340
     18 C                    -0.144171
     19 C                     0.025770
     20 C                    -0.143769
     21 C                    -0.144754
     22 C                     0.025564
     23 O                    -0.183897
     24 H                     0.085913
     25 H                     0.083964
     26 H                     0.085040
     27 H                     0.077892
     28 H                     0.072815
     29 H                     0.077866
     30 H                     0.072286
     31 H                     0.090760
     32 O                    -0.217592
     33 C                    -0.150356
     34 C                     0.023486
     35 C                    -0.143769
     36 C                    -0.144167
     37 C                     0.025502
     38 O                    -0.186979
     39 H                     0.084855
     40 H                     0.086546
     41 H                     0.111482
     42 H                     0.090175
     43 H                     0.078279
     44 H                     0.072892
     45 H                     0.078308
     46 H                     0.073288
     47 H                     0.084888
     48 H                     0.086868
     49 H                     0.081680
     50 H                     0.090217
     51 H                     0.121714
     52 H                     0.082829
     53 H                     0.098977
     54 H                     0.083900
     55 H                     0.112257
     56 H                     0.084919
  ----------------------------------------
  Sum of atomic charges =    -0.000000

                    Cartesian Multipole Moments
 -----------------------------------------------------------------
    Charge (ESU x 10^10)
                 0.0000
    Dipole Moment (Debye)
         X      -0.0264      Y       0.6900      Z      -2.3928
       Tot       2.4904
    Quadrupole Moments (Debye-Ang)
        XX    -136.6099     XY       7.5990     YY    -156.7477
        XZ      -1.6599     YZ       4.0250     ZZ    -162.5259

 Total job time:  193.48s(wall), 9215.99s(cpu)
        *  Thank you very much for using Q-Chem.  Have a nice day.  *
