 Q-Chem 5.0, Q-Chem, Inc., Pleasanton, CA (2017)
 Q-Chem 5.0.1 for Intel X86 EM64T Linux

User input:
--------------------------------------------------------------
$molecule
0  1
O -3.94934 -3.66094 2.70899
C -3.26408 -4.56952 2.26188
C -3.36658 -6.02376 2.66595
C -2.67172 -6.44061 3.97257
C -2.10324 -5.32405 4.82004
O -0.90396 -4.91759 4.30826
C -0.2652 -3.91147 5.10133
C 0.33872 -4.53536 6.35519
O 0.96388 -3.51929 7.15496
C 1.55051 -3.95517 8.29734
C 2.24484 -2.85211 9.06013
C 1.47422 -1.52536 9.12458
C 0.00875 -1.59327 8.74446
O -0.59246 -0.7562 8.08686
O -2.43447 -4.3031 1.21879
O -0.71953 -2.59714 9.30787
O 1.37496 -5.07642 8.75922
C -2.06759 -2.79752 9.09746
C 2.48507 -3.13614 10.55431
C 3.63202 -2.26443 11.0656
C 2.9703 -0.90119 11.07361
C 1.54869 -1.28174 10.64702
O 1.36878 -2.56873 11.19103
H 3.21857 -2.70504 8.54135
H 1.94302 -0.69311 8.554
H 2.68978 -4.20569 10.77662
H 3.83516 -2.56573 12.11828
H 4.57174 -2.33256 10.47631
H 2.96739 -0.51953 12.11894
H 3.42324 -0.14684 10.3945
H 0.8238 -0.50719 10.98311
O -2.6112 -4.90563 5.85564
C -2.23912 -3.04795 0.68169
C -4.81941 -6.43945 2.94531
C -4.96867 -7.95436 2.81028
C -4.26062 -8.41761 4.06462
C -3.89062 -7.06938 4.69104
O -4.96047 -6.2307 4.32733
H -2.95869 -6.61677 1.81573
H -1.87858 -7.21181 3.84725
H -1.83128 -2.36149 1.45441
H -5.55361 -5.92002 2.29075
H -6.05046 -8.20144 2.9023
H -4.5731 -8.37112 1.85902
H -5.00147 -8.93719 4.7128
H -3.3784 -9.07336 3.90077
H -3.72256 -7.20079 5.78291
H -3.19722 -2.64549 0.28879
H -1.5121 -3.11861 -0.15312
H -2.39676 -3.68685 9.67275
H -2.26183 -2.97755 8.01852
H -2.64524 -1.91336 9.44179
H -0.45126 -5.02988 6.95882
H 1.08706 -5.30135 6.05074
H -0.96441 -3.07836 5.34407
H 0.56825 -3.47715 4.50954
$end

$opt
CONSTRAINT
tors           1           2           3           4     -80.442
tors           3           4           5           6     -79.477
tors           4           5           6           7    -176.672
tors           5           6           7           8     +75.391
tors           6           7           8           9    -179.300
tors           7           8           9          10    -179.439
tors           8           9          10          11    +177.300
tors           9          10          11          12     +41.694
tors          11          12          13          14    -140.155
ENDCONSTRAINT
$end

$rem
JOBTYPE                   OPT
METHOD                    B3LYP
DFT_D                     d3_op
BASIS                     STO-3G
GEOM_OPT_MAX_CYCLES       100
GEOM_OPT_TOL_GRADIENT     300
GEOM_OPT_TOL_DISPLACEMENT 1200
GEOM_OPT_TOL_ENERGY       100
SYMMETRY                  False
THRESH                    12
SCF_CONVERGENCE           8
MAX_SUB_FILE_NUM          128
MEM_STATIC                400
MEM_TOTAL                 4000
$end
--------------------------------------------------------------

   14   -1510.1586584706      9.58E-09 Convergence criterion met
 Total energy in the final basis set = -1510.15865847
   13   -1510.2276904770      8.99E-09 Convergence criterion met
 Total energy in the final basis set = -1510.22769048
   14   -1510.2645783415      2.71E-09 Convergence criterion met
 Total energy in the final basis set = -1510.26457834
   14   -1510.2803021453      5.55E-09 Convergence criterion met
 Total energy in the final basis set = -1510.28030215
   14   -1510.2845459494      5.96E-09 Convergence criterion met
 Total energy in the final basis set = -1510.28454595
   13   -1510.2845367921      4.44E-09 Convergence criterion met
 Total energy in the final basis set = -1510.28453679
   13   -1510.2858056649      3.98E-09 Convergence criterion met
 Total energy in the final basis set = -1510.28580566
   12   -1510.2859034270      7.08E-09 Convergence criterion met
   11   -1510.2860733249      9.78E-09 Convergence criterion met
 Total energy in the final basis set = -1510.28607332
   11   -1510.2861024328      6.99E-09 Convergence criterion met
 Total energy in the final basis set = -1510.28610243
   11   -1510.2861176548      4.83E-09 Convergence criterion met
 Total energy in the final basis set = -1510.28611765
    9   -1510.2861207202      9.47E-09 Convergence criterion met
 Total energy in the final basis set = -1510.28612072
    9   -1510.2861218726      6.98E-09 Convergence criterion met
 Total energy in the final basis set = -1510.28612187
    9   -1510.2861237640      4.84E-09 Convergence criterion met
 Total energy in the final basis set = -1510.28612376

             Standard Nuclear Orientation (Angstroms)
    I     Atom           X                Y                Z
 ----------------------------------------------------------------
    1      O      -3.7780863678     1.7064266907     1.3854754633
    2      C      -4.2356625706     1.4478542096     0.2515135340
    3      C      -4.8182616352     0.0883305680    -0.2657092191
    4      C      -3.6773395526    -0.9389885004    -0.6912615205
    5      C      -2.2411469784    -0.4228385806    -0.3313069185
    6      O      -1.8312884120     0.5287489367    -1.3276444217
    7      C      -0.4426609836     0.9643853536    -1.0432528024
    8      C       0.5975240958    -0.1398149361    -1.4402552782
    9      O       1.9176070098     0.4247255500    -1.0867732101
   10      C       2.9684731874    -0.4949659573    -1.4168185519
   11      C       4.3246152258     0.2095101787    -1.0754329979
   12      C       4.2879447275     1.0086964941     0.2938624465
   13      C       2.9930848133     0.7697798805     1.1538442869
   14      O       2.3637628038     1.6325506149     1.8038723503
   15      O      -4.2845567640     2.3869853740    -0.8291788413
   16      O       2.7236535830    -0.6386859176     1.2101366600
   17      O       2.7859102282    -1.6188794969    -1.9269548208
   18      C       1.5120316933    -0.9021635260     2.0232540052
   19      C       5.5070405574    -0.8126577874    -0.8223134461
   20      C       6.8667236283    -0.0314755190    -0.9984228711
   21      C       6.8663360326     0.8605845745     0.2988523354
   22      C       5.5497004438     0.3620389937     1.0192296302
   23      O       5.4527904564    -1.0650948139     0.6365643382
   24      H       4.5646557161     0.8925286961    -1.9119244963
   25      H       4.4031667209     2.0961608781     0.1446639291
   26      H       5.4126238717    -1.7607873187    -1.3870321813
   27      H       7.7149252722    -0.7345589755    -1.0042798305
   28      H       6.8926797483     0.5625510777    -1.9259354490
   29      H       7.7490537919     0.6636349573     0.9278092223
   30      H       6.8280116245     1.9380310992     0.0717646471
   31      H       5.5483354241     0.4682856898     2.1214599711
   32      O      -1.5289522576    -0.7680863737     0.6371982711
   33      C      -3.6472429644     3.6603326140    -0.4218842109
   34      C      -5.5575452066    -0.7419224303     0.8680867202
   35      C      -6.4592164422    -1.8293570654     0.1619269321
   36      C      -5.3671926341    -2.8482132935    -0.3360121147
   37      C      -4.0473259797    -2.1814344877     0.2186515072
   38      O      -4.4759354629    -1.5424753382     1.4847176212
   39      H      -5.4845820898     0.3015799704    -1.1200372933
   40      H      -3.7201206428    -1.1606902628    -1.7726374126
   41      H      -2.5739925417     3.5163537493    -0.1810975086
   42      H      -6.0637558192    -0.1232799932     1.6340529135
   43      H      -7.1403096389    -2.2946288133     0.8920873445
   44      H      -7.0572873216    -1.4069634255    -0.6612292563
   45      H      -5.5108689640    -3.8452415195     0.1095344410
   46      H      -5.3501799414    -2.9510226570    -1.4329292982
   47      H      -3.2031698544    -2.8731964833     0.4044424451
   48      H      -4.1486775342     4.1067546707     0.4610514189
   49      H      -3.7435616375     4.3411491391    -1.2874309929
   50      H       1.5298102800    -1.9832580068     2.2532017132
   51      H       0.5768451584    -0.6649847613     1.4693477383
   52      H       1.5236507547    -0.3181897005     2.9649093965
   53      H       0.4023489028    -1.0773037442    -0.8772854967
   54      H       0.5338676883    -0.3653464989    -2.5270983631
   55      H      -0.3149899510     1.2150292788     0.0317397157
   56      H      -0.2803055000     1.8751732404    -1.6532078216
 ----------------------------------------------------------------

    9   -1510.2861239779      5.78E-09 Convergence criterion met
 Total energy in the final basis set = -1510.28612398
 Final energy is   -1510.28612397795
 **  OPTIMIZATION CONVERGED  **

                    Orbital Energies (a.u.)
 --------------------------------------------------------------

 Alpha MOs
 -- Occupied --
-18.942 -18.935 -18.934 -18.920 -18.889 -18.887 -18.885 -18.878
-18.876 -18.861 -10.107 -10.102 -10.099 -10.090 -10.078 -10.075
-10.065 -10.061 -10.061 -10.058 -10.056 -10.045 -10.043 -10.040
-10.037 -10.033 -10.022 -10.021 -10.019 -10.018  -1.022  -1.015
 -1.010  -0.996  -0.971  -0.967  -0.946  -0.939  -0.936  -0.924
 -0.767  -0.762  -0.730  -0.723  -0.711  -0.705  -0.698  -0.664
 -0.647  -0.619  -0.597  -0.585  -0.549  -0.545  -0.539  -0.535
 -0.514  -0.508  -0.486  -0.472  -0.467  -0.463  -0.457  -0.441
 -0.433  -0.432  -0.427  -0.415  -0.411  -0.404  -0.401  -0.400
 -0.395  -0.383  -0.373  -0.364  -0.361  -0.357  -0.354  -0.350
 -0.347  -0.342  -0.335  -0.332  -0.331  -0.328  -0.320  -0.312
 -0.308  -0.307  -0.304  -0.298  -0.292  -0.288  -0.284  -0.277
 -0.273  -0.262  -0.254  -0.251  -0.240  -0.235  -0.231  -0.187
 -0.180  -0.177  -0.166  -0.161  -0.156  -0.151  -0.145  -0.141
 -0.140

          Ground-State Mulliken Net Atomic Charges

     Atom                 Charge (a.u.)
  ----------------------------------------
      1 O                    -0.209252
      2 C                     0.204851
      3 C                    -0.078750
      4 C                    -0.077573
      5 C                     0.209142
      6 O                    -0.170168
      7 C                    -0.050207
      8 C                    -0.049526
      9 O                    -0.176749
     10 C                     0.219769
     11 C                    -0.078889
     12 C                    -0.078028
     13 C                     0.213325
     14 O                    -0.220620
     15 O                    -0.168155
     16 O                    -0.171951
     17 O                    -0.210398
     18 C                    -0.135634
     19 C                     0.024746
     20 C                    -0.143192
     21 C                    -0.144508
     22 C                     0.025371
     23 O                    -0.185775
     24 H                     0.083232
     25 H                     0.083914
     26 H                     0.089911
     27 H                     0.078003
     28 H                     0.072381
     29 H                     0.077841
     30 H                     0.073317
     31 H                     0.082887
     32 O                    -0.207590
     33 C                    -0.128419
     34 C                     0.025603
     35 C                    -0.143365
     36 C                    -0.144549
     37 C                     0.025717
     38 O                    -0.184289
     39 H                     0.086654
     40 H                     0.087248
     41 H                     0.088260
     42 H                     0.086357
     43 H                     0.078791
     44 H                     0.073577
     45 H                     0.079041
     46 H                     0.073339
     47 H                     0.087701
     48 H                     0.090020
     49 H                     0.090229
     50 H                     0.088521
     51 H                     0.095200
     52 H                     0.090172
     53 H                     0.094071
     54 H                     0.086651
     55 H                     0.099804
     56 H                     0.091940
  ----------------------------------------
  Sum of atomic charges =    -0.000000

                    Cartesian Multipole Moments
 -----------------------------------------------------------------
    Charge (ESU x 10^10)
                 0.0000
    Dipole Moment (Debye)
         X      -0.9720      Y       1.3081      Z      -3.2488
       Tot       3.6347
    Quadrupole Moments (Debye-Ang)
        XX    -138.3640     XY       9.5842     YY    -157.7479
        XZ       3.2649     YZ      -2.8338     ZZ    -164.4192

 Total job time:  48.73s(wall), 2316.30s(cpu)
        *  Thank you very much for using Q-Chem.  Have a nice day.  *
