 Q-Chem 5.0, Q-Chem, Inc., Pleasanton, CA (2017)
 Q-Chem 5.0.1 for Intel X86 EM64T Linux

User input:
--------------------------------------------------------------
$molecule
0  1
O -3.7780863678 1.7064266907 1.3854754633
C -4.2356625706 1.4478542096 0.251513534
C -4.8182616352 0.088330568 -0.2657092191
C -3.6773395526 -0.9389885004 -0.6912615205
C -2.2411469784 -0.4228385806 -0.3313069185
O -1.831288412 0.5287489367 -1.3276444217
C -0.4426609836 0.9643853536 -1.0432528024
C 0.5975240958 -0.1398149361 -1.4402552782
O 1.9176070098 0.42472555 -1.0867732101
C 2.9684731874 -0.4949659573 -1.4168185519
C 4.3246152258 0.2095101787 -1.0754329979
C 4.2879447275 1.0086964941 0.2938624465
C 2.9930848133 0.7697798805 1.1538442869
O 2.3637628038 1.6325506149 1.8038723503
O -4.284556764 2.386985374 -0.8291788413
O 2.723653583 -0.6386859176 1.21013666
O 2.7859102282 -1.6188794969 -1.9269548208
C 1.5120316933 -0.902163526 2.0232540052
C 5.5070405574 -0.8126577874 -0.8223134461
C 6.8667236283 -0.031475519 -0.9984228711
C 6.8663360326 0.8605845745 0.2988523354
C 5.5497004438 0.3620389937 1.0192296302
O 5.4527904564 -1.0650948139 0.6365643382
H 4.5646557161 0.8925286961 -1.9119244963
H 4.4031667209 2.0961608781 0.1446639291
H 5.4126238717 -1.7607873187 -1.3870321813
H 7.7149252722 -0.7345589755 -1.0042798305
H 6.8926797483 0.5625510777 -1.925935449
H 7.7490537919 0.6636349573 0.9278092223
H 6.8280116245 1.9380310992 0.0717646471
H 5.5483354241 0.4682856898 2.1214599711
O -1.5289522576 -0.7680863737 0.6371982711
C -3.6472429644 3.660332614 -0.4218842109
C -5.5575452066 -0.7419224303 0.8680867202
C -6.4592164422 -1.8293570654 0.1619269321
C -5.3671926341 -2.8482132935 -0.3360121147
C -4.0473259797 -2.1814344877 0.2186515072
O -4.4759354629 -1.5424753382 1.4847176212
H -5.4845820898 0.3015799704 -1.1200372933
H -3.7201206428 -1.1606902628 -1.7726374126
H -2.5739925417 3.5163537493 -0.1810975086
H -6.0637558192 -0.1232799932 1.6340529135
H -7.1403096389 -2.2946288133 0.8920873445
H -7.0572873216 -1.4069634255 -0.6612292563
H -5.510868964 -3.8452415195 0.109534441
H -5.3501799414 -2.951022657 -1.4329292982
H -3.2031698544 -2.8731964833 0.4044424451
H -4.1486775342 4.1067546707 0.4610514189
H -3.7435616375 4.3411491391 -1.2874309929
H 1.52981028 -1.9832580068 2.2532017132
H 0.5768451584 -0.6649847613 1.4693477383
H 1.5236507547 -0.3181897005 2.9649093965
H 0.4023489028 -1.0773037442 -0.8772854967
H 0.5338676883 -0.3653464989 -2.5270983631
H -0.314989951 1.2150292788 0.0317397157
H -0.2803055 1.8751732404 -1.6532078216
$end

$rem
JOBTYPE                   OPT
METHOD                    B3LYP
DFT_D                     d3_op
BASIS                     STO-3G
GEOM_OPT_MAX_CYCLES       100
GEOM_OPT_TOL_GRADIENT     300
GEOM_OPT_TOL_DISPLACEMENT 1200
GEOM_OPT_TOL_ENERGY       100
SYMMETRY                  False
THRESH                    12
SCF_CONVERGENCE           8
MAX_SUB_FILE_NUM          128
MEM_STATIC                400
MEM_TOTAL                 4000
$end
--------------------------------------------------------------

   16   -1510.2860407349      4.88E-09 Convergence criterion met
 Total energy in the final basis set = -1510.28604073
   15   -1510.2847292221      2.86E-09 Convergence criterion met
 Total energy in the final basis set = -1510.28472922
   14   -1510.2878926098      8.01E-09 Convergence criterion met
 Total energy in the final basis set = -1510.28789261
   15   -1510.2883565190      2.18E-09 Convergence criterion met
 Total energy in the final basis set = -1510.28835652
   13   -1510.2897962369      8.50E-09 Convergence criterion met
 Total energy in the final basis set = -1510.28979624
   14   -1510.2901519783      4.97E-09 Convergence criterion met
 Total energy in the final basis set = -1510.29015198
   13   -1510.2908201642      2.46E-09 Convergence criterion met
 Total energy in the final basis set = -1510.29082016
   13   -1510.2911109406      3.36E-09 Convergence criterion met
   12   -1510.2942462803      2.77E-09 Convergence criterion met
 Total energy in the final basis set = -1510.29424628
   12   -1510.2942720103      1.81E-09 Convergence criterion met
 Total energy in the final basis set = -1510.29427201
   11   -1510.2942635440      8.94E-09 Convergence criterion met
 Total energy in the final basis set = -1510.29426354
   10   -1510.2942673144      9.91E-09 Convergence criterion met
 Total energy in the final basis set = -1510.29426731
    9   -1510.2942538637      8.62E-09 Convergence criterion met
 Total energy in the final basis set = -1510.29425386
    9   -1510.2942666194      6.24E-09 Convergence criterion met
 Total energy in the final basis set = -1510.29426662

             Standard Nuclear Orientation (Angstroms)
    I     Atom           X                Y                Z
 ----------------------------------------------------------------
    1      O      -2.1759212853     1.3516501585     0.3679172186
    2      C      -3.4283344072     1.3652367951     0.3263103843
    3      C      -4.3617896150     0.2633174790    -0.2789219378
    4      C      -3.5478186330    -0.9178499563    -0.9491234401
    5      C      -1.9887138290    -0.7022494436    -0.9330317203
    6      O      -1.6535142304     0.1266859856    -2.0532955172
    7      C      -0.2356657620     0.5594481185    -2.0019187577
    8      C       0.7890990906    -0.6040436535    -2.2666558317
    9      O       2.1364884665    -0.0435530770    -2.0082491443
   10      C       2.9605789950    -0.9846896233    -1.3019212436
   11      C       4.3063771925    -0.2490099362    -0.9748818491
   12      C       4.1048591426     1.0457664372    -0.0775769956
   13      C       2.6168401398     1.2733194984     0.3638983882
   14      O       1.9344626343     2.3130200048     0.2205655746
   15      O      -4.2322887159     2.4121204877     0.8644553309
   16      O       2.1619987596     0.0775672809     0.9973687361
   17      O       2.6373011415    -2.1626865420    -1.0471556976
   18      C       0.7699690038     0.2193808257     1.4930490573
   19      C       5.2534285672    -1.1229155376    -0.0544927181
   20      C       6.7107150684    -0.5220195906    -0.1378176950
   21      C       6.5412937731     0.7928866202     0.7118219243
   22      C       5.0298306858     0.6762962153     1.1622080304
   23      O       4.8218006073    -0.7797510650     1.3203525435
   24      H       4.7961811110     0.0137642563    -1.9305179224
   25      H       4.4519041717     1.9574217635    -0.5939601901
   26      H       5.1658220318    -2.2135104730    -0.2254584724
   27      H       7.4371890805    -1.2093898220     0.3241013215
   28      H       7.0228078186    -0.3225763218    -1.1754889911
   29      H       7.2057838801     0.7947360517     1.5903094662
   30      H       6.7288406820     1.7060414235     0.1245105612
   31      H       4.7755570198     1.2081392994     2.0995475517
   32      O      -1.1714188813    -1.2725039823    -0.1733363054
   33      C      -3.3690542087     3.4474437865     1.4825909778
   34      C      -5.1296046854    -0.5207461501     0.8731222299
   35      C      -6.2717028007    -1.3941730183     0.2185955914
   36      C      -5.4352479963    -2.5710846229    -0.4081519185
   37      C      -3.9673462139    -2.1367045829    -0.0254732796
   38      O      -4.1293345405    -1.5187456559     1.3124486186
   39      H      -5.0648153910     0.7395615961    -0.9856990661
   40      H      -3.8641598475    -1.0631862508    -1.9973213094
   41      H      -2.6454889379     3.8629329117     0.7521899727
   42      H      -5.4481580471     0.1179108371     1.7199224407
   43      H      -6.9656499799    -1.7583866297     0.9928160436
   44      H      -6.8472157121    -0.8315561915    -0.5339320629
   45      H      -5.6837853591    -3.5360392745     0.0613871986
   46      H      -5.5737973663    -2.6613746201    -1.4974505427
   47      H      -3.2173014036    -2.9501376366     0.0168586866
   48      H      -2.8048573047     3.0397313846     2.3461210902
   49      H      -4.0517062114     4.2451559856     1.8283231249
   50      H       0.7543465425    -0.1179077772     2.5467810665
   51      H       0.0869708553    -0.4170140536     0.8816109429
   52      H       0.4495570258     1.2776733610     1.4253886362
   53      H       0.5948152713    -1.4561955853    -1.5816249053
   54      H       0.7197290851    -0.9577921682    -3.3177587162
   55      H      -0.0099034082     1.0292124865    -1.0214850523
   56      H      -0.1411083769     1.3322798819    -2.7909129081
 ----------------------------------------------------------------

    9   -1510.2942530117      3.90E-09 Convergence criterion met
 Total energy in the final basis set = -1510.29425301
 Final energy is   -1510.29425301169
 **  OPTIMIZATION CONVERGED  **

                    Orbital Energies (a.u.)
 --------------------------------------------------------------

 Alpha MOs
 -- Occupied --
-18.949 -18.929 -18.922 -18.917 -18.891 -18.890 -18.881 -18.873
-18.871 -18.859 -10.112 -10.103 -10.094 -10.087 -10.072 -10.064
-10.064 -10.060 -10.059 -10.054 -10.051 -10.045 -10.038 -10.031
-10.029 -10.026 -10.023 -10.022 -10.015 -10.014  -1.025  -1.008
 -1.004  -0.994  -0.973  -0.963  -0.948  -0.936  -0.930  -0.921
 -0.767  -0.757  -0.727  -0.720  -0.712  -0.700  -0.691  -0.669
 -0.639  -0.613  -0.594  -0.580  -0.548  -0.540  -0.538  -0.531
 -0.515  -0.502  -0.484  -0.468  -0.463  -0.459  -0.457  -0.438
 -0.434  -0.429  -0.424  -0.419  -0.414  -0.400  -0.398  -0.394
 -0.384  -0.382  -0.370  -0.368  -0.357  -0.353  -0.350  -0.347
 -0.340  -0.339  -0.333  -0.330  -0.325  -0.323  -0.316  -0.316
 -0.309  -0.304  -0.302  -0.298  -0.291  -0.280  -0.278  -0.276
 -0.270  -0.262  -0.252  -0.240  -0.237  -0.230  -0.227  -0.190
 -0.178  -0.168  -0.165  -0.157  -0.151  -0.148  -0.146  -0.141
 -0.136

          Ground-State Mulliken Net Atomic Charges

     Atom                 Charge (a.u.)
  ----------------------------------------
      1 O                    -0.207028
      2 C                     0.216541
      3 C                    -0.077890
      4 C                    -0.081350
      5 C                     0.224532
      6 O                    -0.174909
      7 C                    -0.051046
      8 C                    -0.058700
      9 O                    -0.179976
     10 C                     0.217350
     11 C                    -0.077640
     12 C                    -0.077906
     13 C                     0.208455
     14 O                    -0.222751
     15 O                    -0.166974
     16 O                    -0.170321
     17 O                    -0.207562
     18 C                    -0.151536
     19 C                     0.024976
     20 C                    -0.143877
     21 C                    -0.144283
     22 C                     0.026139
     23 O                    -0.184326
     24 H                     0.083161
     25 H                     0.083095
     26 H                     0.089452
     27 H                     0.077217
     28 H                     0.071981
     29 H                     0.076901
     30 H                     0.072636
     31 H                     0.081927
     32 O                    -0.217990
     33 C                    -0.128221
     34 C                     0.025063
     35 C                    -0.143730
     36 C                    -0.143908
     37 C                     0.025086
     38 O                    -0.188665
     39 H                     0.088301
     40 H                     0.085505
     41 H                     0.094064
     42 H                     0.086059
     43 H                     0.079066
     44 H                     0.074023
     45 H                     0.079141
     46 H                     0.073795
     47 H                     0.090368
     48 H                     0.092359
     49 H                     0.093374
     50 H                     0.080581
     51 H                     0.110114
     52 H                     0.091031
     53 H                     0.108184
     54 H                     0.079281
     55 H                     0.102060
     56 H                     0.088768
  ----------------------------------------
  Sum of atomic charges =     0.000000

                    Cartesian Multipole Moments
 -----------------------------------------------------------------
    Charge (ESU x 10^10)
                 0.0000
    Dipole Moment (Debye)
         X      -2.1529      Y       1.9111      Z      -1.7631
       Tot       3.3758
    Quadrupole Moments (Debye-Ang)
        XX    -132.8884     XY       3.6053     YY    -160.9686
        XZ      -1.7848     YZ       7.4355     ZZ    -156.8325

 Total job time:  110.52s(wall), 5267.12s(cpu)
        *  Thank you very much for using Q-Chem.  Have a nice day.  *
