 Q-Chem 5.0, Q-Chem, Inc., Pleasanton, CA (2017)
 Q-Chem 5.0.1 for Intel X86 EM64T Linux

User input:
--------------------------------------------------------------
$molecule
0  1
O -3.94934 -3.66094 2.70899
C -3.26408 -4.56952 2.26188
C -3.36658 -6.02376 2.66595
C -2.47373 -6.49548 3.82533
C -1.70912 -5.42196 4.56764
O -0.53106 -5.16392 3.92654
C 0.29452 -4.22389 4.62226
C 0.56486 -4.71153 6.04186
O 1.32247 -3.72634 6.7618
C 1.78272 -4.11748 7.97601
C 2.5971 -3.05053 8.66817
C 2.27267 -1.61095 8.24315
C 0.97545 -1.42299 7.48249
O 0.82059 -0.69171 6.51511
O -2.20545 -4.25838 1.46954
O -0.1441 -1.96127 8.04701
O 1.75098 -5.27649 8.37122
C -1.42429 -1.79834 7.56013
C 2.31565 -2.95461 10.1858
C 3.51662 -2.31997 10.88655
C 3.40388 -0.88986 10.39748
C 2.07841 -0.96954 9.63057
O 1.34274 -1.95091 10.31818
H 3.66696 -3.32967 8.53966
H 3.08705 -1.1242 7.66267
H 2.07339 -3.93308 10.65483
H 3.29829 -2.33982 11.97868
H 4.49816 -2.80783 10.70382
H 3.31453 -0.22228 11.28301
H 4.2308 -0.54551 9.73921
H 1.60324 0.03448 9.56306
O -2.27446 -4.60128 5.28415
C -1.88276 -2.97844 1.07059
C -4.75619 -6.34437 3.26741
C -5.0472 -7.84111 3.15445
C -4.10658 -8.38983 4.20501
C -3.5359 -7.08575 4.77047
O -4.5961 -6.171 4.65259
H -3.26281 -6.6274 1.73651
H -1.74216 -7.27309 3.50929
H -1.66796 -2.34442 1.95746
H -5.58087 -5.76609 2.79519
H -6.09376 -8.00125 3.50012
H -4.92817 -8.27107 2.13673
H -4.7105 -8.91411 4.97882
H -3.30895 -9.06398 3.82449
H -3.14192 -7.24846 5.79839
H -2.71836 -2.53779 0.48581
H -0.9777 -3.01448 0.43031
H -2.1331 -2.35133 8.2097
H -1.49652 -2.20052 6.52838
H -1.70018 -0.72235 7.56275
H -0.35098 -4.91711 6.6321
H 1.1419 -5.65984 5.95161
H -0.21181 -3.23353 4.65618
H 1.25172 -4.09504 4.0743
$end

$opt
CONSTRAINT
tors           1           2           3           4     -91.047
tors           3           4           5           6     -85.743
tors           4           5           6           7    -175.827
tors           5           6           7           8     +56.211
tors           6           7           8           9    -176.394
tors           7           8           9          10    -171.382
tors           8           9          10          11    +178.674
tors           9          10          11          12     +25.454
tors          11          12          13          14    -139.039
ENDCONSTRAINT
$end

$rem
JOBTYPE                   OPT
METHOD                    B3LYP
DFT_D                     d3_op
BASIS                     STO-3G
GEOM_OPT_MAX_CYCLES       100
GEOM_OPT_TOL_GRADIENT     300
GEOM_OPT_TOL_DISPLACEMENT 1200
GEOM_OPT_TOL_ENERGY       100
SYMMETRY                  False
THRESH                    12
SCF_CONVERGENCE           8
MAX_SUB_FILE_NUM          128
MEM_STATIC                400
MEM_TOTAL                 4000
$end
--------------------------------------------------------------

   14   -1510.1437479855      9.17E-09 Convergence criterion met
 Total energy in the final basis set = -1510.14374799
   14   -1510.2140170656      1.68E-09 Convergence criterion met
 Total energy in the final basis set = -1510.21401707
   13   -1510.2520211858      9.45E-09 Convergence criterion met
 Total energy in the final basis set = -1510.25202119
   14   -1510.2697786503      8.00E-09 Convergence criterion met
 Total energy in the final basis set = -1510.26977865
   13   -1510.2765375245      8.42E-09 Convergence criterion met
 Total energy in the final basis set = -1510.27653752
   14   -1510.2793473702      5.25E-09 Convergence criterion met
 Total energy in the final basis set = -1510.27934737
   13   -1510.2800268234      3.98E-09 Convergence criterion met
 Total energy in the final basis set = -1510.28002682
   13   -1510.2805314270      4.48E-09 Convergence criterion met
   11   -1510.2813291852      3.68E-09 Convergence criterion met
 Total energy in the final basis set = -1510.28132919
   11   -1510.2813328528      4.20E-09 Convergence criterion met
 Total energy in the final basis set = -1510.28133285
   10   -1510.2813363253      5.79E-09 Convergence criterion met
 Total energy in the final basis set = -1510.28133633
   10   -1510.2813382720      2.57E-09 Convergence criterion met
 Total energy in the final basis set = -1510.28133827
    9   -1510.2813397550      8.20E-09 Convergence criterion met
 Total energy in the final basis set = -1510.28133976
    9   -1510.2813409732      5.35E-09 Convergence criterion met
 Total energy in the final basis set = -1510.28134097

             Standard Nuclear Orientation (Angstroms)
    I     Atom           X                Y                Z
 ----------------------------------------------------------------
    1      O      -3.7560780808     1.8153146581     1.3789743741
    2      C      -4.0290641017     1.4788102003     0.2070176013
    3      C      -4.7697569881     0.1817195025    -0.2743411571
    4      C      -3.7624405020    -1.0140075195    -0.5863113372
    5      C      -2.2649361643    -0.6091466190    -0.3610770929
    6      O      -1.7937818183     0.0058619730    -1.5677640565
    7      C      -0.3496666760     0.3366814294    -1.4884971580
    8      C       0.5833906450    -0.8829730926    -1.1568408705
    9      O       1.9315343042    -0.2860618085    -1.0468719489
   10      C       2.9527964060    -1.2825972888    -0.9402212829
   11      C       4.3318905064    -0.5423165531    -0.8645192567
   12      C       4.2666190929     0.9363001100    -0.2981895612
   13      C       2.9328933754     1.3002586599     0.4574249359
   14      O       2.3088858390     2.3810805265     0.3704784369
   15      O      -3.6546402517     2.2305041569    -0.9537972527
   16      O       2.6422016901     0.2750880500     1.4204348335
   17      O       2.7382643739    -2.5123163057    -0.9439102153
   18      C       1.3862700193     0.5871059021     2.1418270259
   19      C       5.3993655021    -1.2149267620     0.0987476310
   20      C       6.8278462235    -0.7846944429    -0.4172046199
   21      C       6.8336170337     0.7404316254    -0.0245567955
   22      C       5.4609356002     0.8679117002     0.7530641311
   23      O       5.2717402630    -0.4655361148     1.3687250819
   24      H       4.7283698908    -0.5226936926    -1.8979516796
   25      H       4.4343887814     1.6931933071    -1.0833689658
   26      H       5.2486433962    -2.2998276388     0.2632521609
   27      H       7.6119962021    -1.3410540690     0.1209614788
   28      H       6.9542663555    -0.9500488629    -1.4990856953
   29      H       7.6792091093     0.9881543235     0.6361397474
   30      H       6.8664081537     1.4029910598    -0.9042052465
   31      H       5.4328144982     1.6578938068     1.5287503279
   32      O      -1.5850473283    -0.7591403091     0.6788330019
   33      C      -2.8591683716     3.4148248294    -0.5547749004
   34      C      -5.6323412400    -0.4585312958     0.8905233687
   35      C      -6.6028721116    -1.5352223767     0.2614762477
   36      C      -5.6016480800    -2.7141860590    -0.0308899868
   37      C      -4.2416034301    -2.0910464852     0.4742270884
   38      O      -4.6454839264    -1.2715307202     1.6388550623
   39      H      -5.3740794423     0.4281110087    -1.1653356793
   40      H      -3.8787140968    -1.3631615946    -1.6276481818
   41      H      -1.9326014375     3.1208332966    -0.0204769793
   42      H      -6.1098162113     0.2803468673     1.5625849950
   43      H      -7.3733284829    -1.8319151302     0.9909118238
   44      H      -7.1015313984    -1.1647607568    -0.6483922803
   45      H      -5.8526285542    -3.6121998002     0.5557712107
   46      H      -5.5643634447    -2.9881840287    -1.0974556602
   47      H      -3.4608722540    -2.8192303907     0.7675322442
   48      H      -3.4399378075     4.0974211573     0.0986204857
   49      H      -2.5954134466     3.9354678755    -1.4935552777
   50      H       1.4531264587     0.0891872306     3.1265996317
   51      H       0.5022884927     0.1926692274     1.5957608632
   52      H       1.2650294221     1.6807500838     2.2734684190
   53      H       0.2716039260    -1.3416666996    -0.1953182851
   54      H       0.5454210655    -1.6544270658    -1.9558621535
   55      H      -0.1721097295     1.1242451254    -0.7222688032
   56      H      -0.0922638905     0.7514953428    -2.4831901259
 ----------------------------------------------------------------

    9   -1510.2813411834      5.00E-09 Convergence criterion met
 Total energy in the final basis set = -1510.28134118
 Final energy is   -1510.28134118342
 **  OPTIMIZATION CONVERGED  **

                    Orbital Energies (a.u.)
 --------------------------------------------------------------

 Alpha MOs
 -- Occupied --
-18.944 -18.940 -18.934 -18.917 -18.888 -18.886 -18.886 -18.880
-18.877 -18.857 -10.108 -10.105 -10.098 -10.090 -10.079 -10.074
-10.064 -10.061 -10.060 -10.058 -10.058 -10.046 -10.042 -10.040
-10.038 -10.033 -10.022 -10.021 -10.020 -10.018  -1.022  -1.017
 -1.010  -0.995  -0.971  -0.968  -0.947  -0.942  -0.936  -0.922
 -0.766  -0.762  -0.731  -0.723  -0.712  -0.704  -0.699  -0.663
 -0.648  -0.620  -0.597  -0.587  -0.549  -0.545  -0.539  -0.536
 -0.514  -0.509  -0.486  -0.471  -0.466  -0.463  -0.457  -0.445
 -0.432  -0.431  -0.427  -0.415  -0.411  -0.406  -0.400  -0.399
 -0.390  -0.388  -0.375  -0.365  -0.362  -0.359  -0.353  -0.352
 -0.347  -0.342  -0.335  -0.332  -0.332  -0.328  -0.320  -0.312
 -0.311  -0.307  -0.305  -0.298  -0.294  -0.290  -0.282  -0.278
 -0.276  -0.261  -0.253  -0.249  -0.237  -0.235  -0.232  -0.190
 -0.182  -0.176  -0.162  -0.160  -0.158  -0.151  -0.145  -0.141
 -0.140

          Ground-State Mulliken Net Atomic Charges

     Atom                 Charge (a.u.)
  ----------------------------------------
      1 O                    -0.206960
      2 C                     0.203884
      3 C                    -0.077725
      4 C                    -0.077922
      5 C                     0.208148
      6 O                    -0.167082
      7 C                    -0.048949
      8 C                    -0.053616
      9 O                    -0.173796
     10 C                     0.218038
     11 C                    -0.078925
     12 C                    -0.077745
     13 C                     0.216001
     14 O                    -0.228380
     15 O                    -0.168871
     16 O                    -0.171494
     17 O                    -0.210140
     18 C                    -0.135617
     19 C                     0.025692
     20 C                    -0.142498
     21 C                    -0.145054
     22 C                     0.025524
     23 O                    -0.184639
     24 H                     0.083141
     25 H                     0.083658
     26 H                     0.089553
     27 H                     0.078196
     28 H                     0.072644
     29 H                     0.077993
     30 H                     0.073093
     31 H                     0.082827
     32 O                    -0.209360
     33 C                    -0.128855
     34 C                     0.025488
     35 C                    -0.144073
     36 C                    -0.143861
     37 C                     0.025587
     38 O                    -0.184085
     39 H                     0.086659
     40 H                     0.086924
     41 H                     0.089384
     42 H                     0.087221
     43 H                     0.078674
     44 H                     0.073327
     45 H                     0.078911
     46 H                     0.073146
     47 H                     0.086795
     48 H                     0.089321
     49 H                     0.090982
     50 H                     0.089187
     51 H                     0.089388
     52 H                     0.091815
     53 H                     0.103007
     54 H                     0.088053
     55 H                     0.093462
     56 H                     0.093922
  ----------------------------------------
  Sum of atomic charges =     0.000000

                    Cartesian Multipole Moments
 -----------------------------------------------------------------
    Charge (ESU x 10^10)
                 0.0000
    Dipole Moment (Debye)
         X      -0.5380      Y       0.3170      Z      -3.6266
       Tot       3.6800
    Quadrupole Moments (Debye-Ang)
        XX    -137.7822     XY       6.3862     YY    -160.7550
        XZ       0.8273     YZ       1.4595     ZZ    -163.8674

 Total job time:  65.80s(wall), 3128.45s(cpu)
        *  Thank you very much for using Q-Chem.  Have a nice day.  *
