 Q-Chem 5.0, Q-Chem, Inc., Pleasanton, CA (2017)
 Q-Chem 5.0.1 for Intel X86 EM64T Linux

User input:
--------------------------------------------------------------
$molecule
0  1
O -3.7560780808 1.8153146581 1.3789743741
C -4.0290641017 1.4788102003 0.2070176013
C -4.7697569881 0.1817195025 -0.2743411571
C -3.762440502 -1.0140075195 -0.5863113372
C -2.2649361643 -0.609146619 -0.3610770929
O -1.7937818183 0.005861973 -1.5677640565
C -0.349666676 0.3366814294 -1.488497158
C 0.583390645 -0.8829730926 -1.1568408705
O 1.9315343042 -0.2860618085 -1.0468719489
C 2.952796406 -1.2825972888 -0.9402212829
C 4.3318905064 -0.5423165531 -0.8645192567
C 4.2666190929 0.93630011 -0.2981895612
C 2.9328933754 1.3002586599 0.4574249359
O 2.308885839 2.3810805265 0.3704784369
O -3.6546402517 2.2305041569 -0.9537972527
O 2.6422016901 0.27508805 1.4204348335
O 2.7382643739 -2.5123163057 -0.9439102153
C 1.3862700193 0.5871059021 2.1418270259
C 5.3993655021 -1.214926762 0.098747631
C 6.8278462235 -0.7846944429 -0.4172046199
C 6.8336170337 0.7404316254 -0.0245567955
C 5.4609356002 0.8679117002 0.7530641311
O 5.271740263 -0.4655361148 1.3687250819
H 4.7283698908 -0.5226936926 -1.8979516796
H 4.4343887814 1.6931933071 -1.0833689658
H 5.2486433962 -2.2998276388 0.2632521609
H 7.6119962021 -1.341054069 0.1209614788
H 6.9542663555 -0.9500488629 -1.4990856953
H 7.6792091093 0.9881543235 0.6361397474
H 6.8664081537 1.4029910598 -0.9042052465
H 5.4328144982 1.6578938068 1.5287503279
O -1.5850473283 -0.7591403091 0.6788330019
C -2.8591683716 3.4148248294 -0.5547749004
C -5.63234124 -0.4585312958 0.8905233687
C -6.6028721116 -1.5352223767 0.2614762477
C -5.60164808 -2.714186059 -0.0308899868
C -4.2416034301 -2.0910464852 0.4742270884
O -4.6454839264 -1.2715307202 1.6388550623
H -5.3740794423 0.4281110087 -1.1653356793
H -3.8787140968 -1.3631615946 -1.6276481818
H -1.9326014375 3.1208332966 -0.0204769793
H -6.1098162113 0.2803468673 1.562584995
H -7.3733284829 -1.8319151302 0.9909118238
H -7.1015313984 -1.1647607568 -0.6483922803
H -5.8526285542 -3.6121998002 0.5557712107
H -5.5643634447 -2.9881840287 -1.0974556602
H -3.460872254 -2.8192303907 0.7675322442
H -3.4399378075 4.0974211573 0.0986204857
H -2.5954134466 3.9354678755 -1.4935552777
H 1.4531264587 0.0891872306 3.1265996317
H 0.5022884927 0.1926692274 1.5957608632
H 1.2650294221 1.6807500838 2.273468419
H 0.271603926 -1.3416666996 -0.1953182851
H 0.5454210655 -1.6544270658 -1.9558621535
H -0.1721097295 1.1242451254 -0.7222688032
H -0.0922638905 0.7514953428 -2.4831901259
$end

$rem
JOBTYPE                   OPT
METHOD                    B3LYP
DFT_D                     d3_op
BASIS                     STO-3G
GEOM_OPT_MAX_CYCLES       100
GEOM_OPT_TOL_GRADIENT     300
GEOM_OPT_TOL_DISPLACEMENT 1200
GEOM_OPT_TOL_ENERGY       100
SYMMETRY                  False
THRESH                    12
SCF_CONVERGENCE           8
MAX_SUB_FILE_NUM          128
MEM_STATIC                400
MEM_TOTAL                 4000
$end
--------------------------------------------------------------

   16   -1510.2813674473      5.33E-09 Convergence criterion met
 Total energy in the final basis set = -1510.28136745
   14   -1510.2842927839      4.73E-09 Convergence criterion met
 Total energy in the final basis set = -1510.28429278
   14   -1510.2848659952      2.32E-09 Convergence criterion met
 Total energy in the final basis set = -1510.28486600
   14   -1510.2859571808      3.29E-09 Convergence criterion met
 Total energy in the final basis set = -1510.28595718
   14   -1510.2873566772      4.12E-09 Convergence criterion met
 Total energy in the final basis set = -1510.28735668
   13   -1510.2885808148      7.41E-09 Convergence criterion met
 Total energy in the final basis set = -1510.28858081
   14   -1510.2895866115      4.35E-09 Convergence criterion met
 Total energy in the final basis set = -1510.28958661
   13   -1510.2902347870      6.13E-09 Convergence criterion met
   12   -1510.2999301801      4.98E-09 Convergence criterion met
 Total energy in the final basis set = -1510.29993018
   12   -1510.2999845500      3.12E-09 Convergence criterion met
 Total energy in the final basis set = -1510.29998455
   11   -1510.2999693430      8.35E-09 Convergence criterion met
 Total energy in the final basis set = -1510.29996934
   11   -1510.2999793763      5.01E-09 Convergence criterion met
 Total energy in the final basis set = -1510.29997938
   11   -1510.2999886741      3.85E-09 Convergence criterion met
 Total energy in the final basis set = -1510.29998867
   11   -1510.2999862707      2.26E-09 Convergence criterion met
 Total energy in the final basis set = -1510.29998627

             Standard Nuclear Orientation (Angstroms)
    I     Atom           X                Y                Z
 ----------------------------------------------------------------
    1      O      -2.7672011760     2.2582881181     1.3394022549
    2      C      -3.0310374051     1.6544311780     0.2773172008
    3      C      -4.0442380391     0.4700346662     0.0770163704
    4      C      -3.4005427889    -0.7998702666    -0.6297138968
    5      C      -1.8772696961    -0.6138003046    -0.9396704375
    6      O      -1.6830650732    -0.6183246669    -2.3553019823
    7      C      -0.2584883011    -0.3460813139    -2.6728529107
    8      C       0.6374048867    -1.6418524010    -2.5688603345
    9      O       2.0422157300    -1.2163753008    -2.3567417687
   10      C       2.3764104863    -1.3042774809    -0.9612467625
   11      C       3.7312933461    -0.5534838369    -0.7498044051
   12      C       3.5246825566     0.9143638208    -0.1620440291
   13      C       2.0119748989     1.2273716385     0.1423945490
   14      O       1.1497628408     1.5223320699    -0.7262861624
   15      O      -2.4597183752     1.9485798801    -0.9975665078
   16      O       1.7628897577     1.1117751002     1.5272222517
   17      O       1.6690738936    -1.8716861817    -0.1008763998
   18      C       0.3146947616     1.2626431697     1.8337170355
   19      C       4.6349072090    -1.2030116986     0.3828431305
   20      C       6.1043591396    -0.6560390894     0.1977722013
   21      C       5.9393152928     0.8228080248     0.7102024618
   22      C       4.4182793982     0.8336427689     1.1431527548
   23      O       4.1786688473    -0.5455216110     1.6275892909
   24      H       4.2552500255    -0.5122278876    -1.7206619549
   25      H       3.8900480385     1.6723960938    -0.8784312267
   26      H       4.5405833146    -2.3026982433     0.4699650026
   27      H       6.8068764304    -1.2248888286     0.8275389496
   28      H       6.4424865910    -0.7121070344    -0.8493361690
   29      H       6.5879979689     1.0264505597     1.5768128244
   30      H       6.1508904028     1.5694187394    -0.0720418936
   31      H       4.1520289211     1.5704331629     1.9244881855
   32      O      -0.9425492561    -0.5109644258    -0.1127559982
   33      C      -1.4139720809     2.9964064931    -0.8847282296
   34      C      -4.4953571846    -0.1438987697     1.4636469598
   35      C      -5.7845357578    -1.0221705795     1.2260320924
   36      C      -5.1652349262    -2.2819640462     0.5128956368
   37      C      -3.6318004438    -1.9008764016     0.4936689309
   38      O      -3.4415696916    -1.1452715831     1.7522566667
   39      H      -4.9049066726     0.8426735373    -0.5081262060
   40      H      -3.9196305644    -1.0440233575    -1.5726964035
   41      H      -0.4144465420     2.5095005298    -0.7738364461
   42      H      -4.5566297013     0.5992448188     2.2823307324
   43      H      -6.2507771708    -1.2916271362     2.1869653310
   44      H      -6.5312731280    -0.5043680771     0.6032213734
   45      H      -5.3257025000    -3.1996992173     1.1009522682
   46      H      -5.5673893206    -2.4378346493    -0.5010242295
   47      H      -2.9316781968    -2.7576176969     0.4485185998
   48      H      -1.6156778817     3.6488295668    -0.0130092454
   49      H      -1.4488659759     3.5853037517    -1.8196910895
   50      H       0.2086369356     0.9811749439     2.8965642588
   51      H      -0.2945846306     0.5860049555     1.1890241557
   52      H      -0.0148673660     2.3118680127     1.6974675747
   53      H       0.3136915530    -2.2571792311    -1.7014225951
   54      H       0.6014129512    -2.2411859077    -3.4999608320
   55      H       0.1680602544     0.4179740959    -1.9775498476
   56      H      -0.2551229846     0.0472719446    -3.7081693385
 ----------------------------------------------------------------

    9   -1510.2999871111      7.79E-09 Convergence criterion met
 Total energy in the final basis set = -1510.29998711
 Final energy is   -1510.29998711108
 **  OPTIMIZATION CONVERGED  **

                    Orbital Energies (a.u.)
 --------------------------------------------------------------

 Alpha MOs
 -- Occupied --
-18.941 -18.933 -18.928 -18.927 -18.886 -18.885 -18.878 -18.878
-18.874 -18.872 -10.107 -10.101 -10.097 -10.095 -10.062 -10.058
-10.058 -10.058 -10.056 -10.055 -10.039 -10.038 -10.037 -10.037
-10.036 -10.035 -10.019 -10.019 -10.018 -10.018  -1.016  -1.011
 -1.007  -1.003  -0.968  -0.967  -0.938  -0.937  -0.932  -0.931
 -0.763  -0.761  -0.725  -0.721  -0.709  -0.704  -0.691  -0.652
 -0.648  -0.615  -0.594  -0.577  -0.546  -0.543  -0.536  -0.534
 -0.511  -0.505  -0.479  -0.473  -0.463  -0.457  -0.450  -0.444
 -0.434  -0.430  -0.427  -0.422  -0.410  -0.405  -0.399  -0.393
 -0.382  -0.375  -0.371  -0.363  -0.358  -0.357  -0.354  -0.349
 -0.343  -0.338  -0.330  -0.329  -0.327  -0.323  -0.316  -0.309
 -0.307  -0.305  -0.302  -0.299  -0.286  -0.285  -0.284  -0.276
 -0.269  -0.259  -0.245  -0.242  -0.238  -0.232  -0.231  -0.188
 -0.176  -0.171  -0.161  -0.159  -0.155  -0.149  -0.148  -0.141
 -0.141

          Ground-State Mulliken Net Atomic Charges

     Atom                 Charge (a.u.)
  ----------------------------------------
      1 O                    -0.214667
      2 C                     0.210516
      3 C                    -0.078223
      4 C                    -0.078815
      5 C                     0.219064
      6 O                    -0.168237
      7 C                    -0.061747
      8 C                    -0.058132
      9 O                    -0.174267
     10 C                     0.206065
     11 C                    -0.079003
     12 C                    -0.076877
     13 C                     0.220498
     14 O                    -0.226483
     15 O                    -0.174714
     16 O                    -0.156972
     17 O                    -0.201960
     18 C                    -0.143674
     19 C                     0.025797
     20 C                    -0.143542
     21 C                    -0.144724
     22 C                     0.025943
     23 O                    -0.183326
     24 H                     0.086368
     25 H                     0.084521
     26 H                     0.085619
     27 H                     0.078128
     28 H                     0.073031
     29 H                     0.078096
     30 H                     0.072466
     31 H                     0.089680
     32 O                    -0.217886
     33 C                    -0.151398
     34 C                     0.023664
     35 C                    -0.143901
     36 C                    -0.143955
     37 C                     0.025416
     38 O                    -0.186814
     39 H                     0.084803
     40 H                     0.086621
     41 H                     0.110793
     42 H                     0.090179
     43 H                     0.078164
     44 H                     0.072859
     45 H                     0.078159
     46 H                     0.073237
     47 H                     0.084368
     48 H                     0.087284
     49 H                     0.080840
     50 H                     0.091342
     51 H                     0.121953
     52 H                     0.083177
     53 H                     0.099916
     54 H                     0.083877
     55 H                     0.112019
     56 H                     0.084853
  ----------------------------------------
  Sum of atomic charges =    -0.000000

                    Cartesian Multipole Moments
 -----------------------------------------------------------------
    Charge (ESU x 10^10)
                -0.0000
    Dipole Moment (Debye)
         X       0.1746      Y       0.3741      Z      -2.6431
       Tot       2.6751
    Quadrupole Moments (Debye-Ang)
        XX    -135.5182     XY       6.2760     YY    -155.7072
        XZ      -1.8874     YZ       3.3442     ZZ    -165.0326

 Total job time:  115.24s(wall), 5498.60s(cpu)
        *  Thank you very much for using Q-Chem.  Have a nice day.  *
