 Q-Chem 5.0, Q-Chem, Inc., Pleasanton, CA (2017)
 Q-Chem 5.0.1 for Intel X86 EM64T Linux

User input:
--------------------------------------------------------------
$molecule
0  1
O -3.9507470636 1.7978320271 1.4226629374
C -4.2149751506 1.4364082024 0.2560258579
C -4.7697837527 0.0484655329 -0.2200069569
C -3.6062357883 -0.9768543034 -0.5880953288
C -2.175468808 -0.3931532959 -0.3266561645
O -1.7615748378 0.3548984966 -1.4799827561
C -0.3247687044 0.7010416395 -1.3637355974
C 0.6114775323 -0.556660058 -1.4514618556
O 1.9645736357 -0.009629367 -1.2245470204
C 2.9774875382 -1.0151589125 -1.2816947808
C 4.3524687444 -0.2968860014 -1.0563106573
C 4.2847854783 0.9686504637 -0.0972211108
C 2.8892016435 1.2260172683 0.5905986697
O 2.2050684485 2.2709482783 0.5122843632
O -4.0128448315 2.2500447629 -0.9052666492
O 2.5685827909 0.1045856898 1.4241688293
O 2.7597945593 -2.2245638966 -1.5003238919
C 1.2710414313 0.3185822215 2.1102332829
C 5.4034032562 -1.2128565306 -0.3024684917
C 6.843514143 -0.62806538 -0.5758906883
C 6.8137941707 0.667602265 0.3176230266
C 5.3815489678 0.5555279893 0.979194919
O 5.1759719997 -0.9035970631 1.1275976962
H 4.7329951709 -0.001082519 -2.0524220869
H 4.5607477258 1.8923964053 -0.635036686
H 5.2761766956 -2.2962218138 -0.4949251451
H 7.6161892629 -1.3359243805 -0.2356159837
H 7.0102341998 -0.4086206562 -1.64259331
H 7.5982939067 0.644994823 1.090684231
H 6.9247244972 1.5919376374 -0.2716028843
H 5.2749002957 1.0617542248 1.9580716072
O -1.4677996984 -0.5616000199 0.6924860475
C -3.3851133324 3.5353759415 -0.5206368615
C -5.4958898226 -0.73602896 0.9519880388
C -6.3409497925 -1.9064440282 0.3106056508
C -5.2035869747 -2.9229940919 -0.0782441002
C -3.9194996871 -2.153845112 0.4256875524
O -4.3875172217 -1.4408577132 1.635687354
H -5.4331665458 0.211814256 -1.087805225
H -3.6727119454 -1.2900828616 -1.6451196942
H -2.3836406461 3.3787764118 -0.0697895513
H -6.0382644667 -0.0877114902 1.6669630324
H -7.0307774041 -2.3362009393 1.0541727966
H -6.9248404286 -1.5680833167 -0.5601911522
H -5.314559138 -3.8788001458 0.4580530268
H -5.1676080282 -3.1271506645 -1.1603679139
H -3.0455021317 -2.7889675072 0.6673721308
H -4.0116414828 4.0979051504 0.2012631587
H -3.2817023781 4.1169242505 -1.4550036386
H 1.31015146 -0.2717326917 3.0442274662
H 0.4126466325 -0.0344575737 1.4943024848
H 1.1214590766 1.3907567241 2.3459379027
H 0.3469979302 -1.2968236946 -0.6666122804
H 0.5340434536 -1.0482119257 -2.4455319424
H -0.1110076523 1.2391223773 -0.4144740463
H -0.1163476323 1.3825947947 -2.2119612171
$end

$rem
JOBTYPE                   OPT
METHOD                    B3LYP
DFT_D                     d3_op
BASIS                     STO-3G
GEOM_OPT_MAX_CYCLES       100
GEOM_OPT_TOL_GRADIENT     300
GEOM_OPT_TOL_DISPLACEMENT 1200
GEOM_OPT_TOL_ENERGY       100
SYMMETRY                  False
THRESH                    12
SCF_CONVERGENCE           8
MAX_SUB_FILE_NUM          128
MEM_STATIC                400
MEM_TOTAL                 4000
$end
--------------------------------------------------------------

   16   -1510.2853507815      5.00E-09 Convergence criterion met
 Total energy in the final basis set = -1510.28535078
   15   -1510.2819747251      2.87E-09 Convergence criterion met
 Total energy in the final basis set = -1510.28197473
   14   -1510.2860137129      2.96E-09 Convergence criterion met
 Total energy in the final basis set = -1510.28601371
   15   -1510.2875955935      1.85E-09 Convergence criterion met
 Total energy in the final basis set = -1510.28759559
   13   -1510.2885289185      7.17E-09 Convergence criterion met
 Total energy in the final basis set = -1510.28852892
   13   -1510.2891139751      6.10E-09 Convergence criterion met
 Total energy in the final basis set = -1510.28911398
   13   -1510.2898460289      3.31E-09 Convergence criterion met
 Total energy in the final basis set = -1510.28984603
   13   -1510.2902601068      8.64E-09 Convergence criterion met
   11   -1510.2998542795      5.60E-09 Convergence criterion met
 Total energy in the final basis set = -1510.29985428
   11   -1510.2998593320      3.24E-09 Convergence criterion met
 Total energy in the final basis set = -1510.29985933
   11   -1510.2998607765      4.38E-09 Convergence criterion met
 Total energy in the final basis set = -1510.29986078
   11   -1510.2998597719      3.62E-09 Convergence criterion met
 Total energy in the final basis set = -1510.29985977
   11   -1510.2998595939      3.34E-09 Convergence criterion met
 Total energy in the final basis set = -1510.29985959
   11   -1510.2998601721      2.21E-09 Convergence criterion met
 Total energy in the final basis set = -1510.29986017

             Standard Nuclear Orientation (Angstroms)
    I     Atom           X                Y                Z
 ----------------------------------------------------------------
    1      O      -2.8144674787     2.0250313079     1.6024160598
    2      C      -3.0688523305     1.5183920858     0.4887002301
    3      C      -4.0051686424     0.2927617280     0.1868551342
    4      C      -3.3227626628    -0.8098777069    -0.7311735027
    5      C      -1.8296135487    -0.4775595428    -1.0651925603
    6      O      -1.6834381815    -0.2826586737    -2.4737141606
    7      C      -0.2854566793     0.1116223616    -2.7823721542
    8      C       0.6778764311    -1.1352939167    -2.8950868274
    9      O       2.0536301979    -0.6970277568    -2.5576055196
   10      C       2.3519641281    -1.0241957741    -1.1902754998
   11      C       3.6882615552    -0.3075812516    -0.8077293371
   12      C       3.4517768646     1.0061604509     0.0657531465
   13      C       1.9263841787     1.2613219311     0.3636760683
   14      O       1.0849512625     1.6593833218    -0.4835101886
   15      O      -2.5529350842     1.9813071130    -0.7597316710
   16      O       1.6440357476     0.9665392822     1.7160707090
   17      O       1.6371316249    -1.7518653509    -0.4677184709
   18      C       0.1861647203     1.0492485126     1.9994196019
   19      C       4.5756400164    -1.1691071590     0.1878689149
   20      C       6.0380331830    -0.5741989368     0.1770202342
   21      C       5.8297833612     0.7491744519     1.0028719209
   22      C       4.2932382589     0.6519137629     1.3604614256
   23      O       4.0624641664    -0.8018697702     1.5264121207
   24      H       4.2279091471    -0.0652727396    -1.7401087816
   25      H       3.8482373753     1.8932420622    -0.4607567677
   26      H       4.5038327903    -2.2631869013     0.0339274776
   27      H       6.7351159495    -1.2603281328     0.6838255258
   28      H       6.4055645843    -0.3873079588    -0.8446846876
   29      H       6.4376317859     0.7509067964     1.9213544521
   30      H       6.0651374564     1.6556184385     0.4224287674
   31      H       3.9814615334     1.1990310489     2.2701073741
   32      O      -0.8717724111    -0.4275766057    -0.2598829092
   33      C      -1.5396003320     3.0472226474    -0.5576172193
   34      C      -4.3061933854    -0.5412138726     1.4993143139
   35      C      -5.5499794213    -1.4737532955     1.2268423339
   36      C      -4.9109968387    -2.5621065352     0.2863246368
   37      C      -3.4096004195    -2.0743923903     0.2271604675
   38      O      -3.1722063062    -1.4930366879     1.5678696511
   39      H      -4.9326543831     0.6695095950    -0.2825396554
   40      H      -3.8733823985    -0.9528887022    -1.6772486435
   41      H      -0.5282198990     2.5830087439    -0.4523689487
   42      H      -4.3514217022     0.0741942993     2.4189136175
   43      H      -5.9104555969    -1.9173136883     2.1685895450
   44      H      -6.3821801944    -0.9317935855     0.7499210760
   45      H      -4.9720006125    -3.5680971033     0.7309986430
   46      H      -5.3771205448    -2.5888594476    -0.7116578354
   47      H      -2.6635272381    -2.8634325084     0.0109543192
   48      H      -1.7768513998     3.6468542150     0.3427848208
   49      H      -1.5707538827     3.6863432985    -1.4589344156
   50      H       0.0596052344     0.6326306359     3.0145919441
   51      H      -0.3862218795     0.4470766903     1.2546106826
   52      H      -0.1660612325     2.0998751110     1.9871736925
   53      H       0.3622600886    -1.9207766222    -2.1743980725
   54      H       0.6988050928    -1.5459506178    -3.9239612919
   55      H       0.1233236661     0.7791791765    -1.9859035968
   56      H      -0.3341602812     0.6572690858    -3.7446099597
 ----------------------------------------------------------------

    9   -1510.2998605945      4.94E-09 Convergence criterion met
 Total energy in the final basis set = -1510.29986059
 Final energy is   -1510.29986059450
 **  OPTIMIZATION CONVERGED  **

                    Orbital Energies (a.u.)
 --------------------------------------------------------------

 Alpha MOs
 -- Occupied --
-18.939 -18.932 -18.928 -18.927 -18.885 -18.885 -18.876 -18.876
-18.873 -18.873 -10.105 -10.100 -10.096 -10.096 -10.062 -10.058
-10.058 -10.057 -10.056 -10.056 -10.039 -10.038 -10.036 -10.036
-10.036 -10.035 -10.019 -10.019 -10.018 -10.017  -1.015  -1.010
 -1.006  -1.003  -0.968  -0.967  -0.936  -0.935  -0.932  -0.930
 -0.762  -0.760  -0.724  -0.721  -0.709  -0.703  -0.690  -0.652
 -0.647  -0.615  -0.594  -0.577  -0.544  -0.543  -0.535  -0.534
 -0.510  -0.505  -0.478  -0.473  -0.461  -0.458  -0.450  -0.443
 -0.434  -0.430  -0.426  -0.422  -0.409  -0.404  -0.398  -0.392
 -0.382  -0.375  -0.371  -0.362  -0.358  -0.355  -0.353  -0.348
 -0.343  -0.338  -0.330  -0.328  -0.327  -0.322  -0.316  -0.309
 -0.307  -0.304  -0.302  -0.297  -0.286  -0.284  -0.283  -0.275
 -0.269  -0.259  -0.246  -0.241  -0.238  -0.232  -0.230  -0.186
 -0.175  -0.171  -0.161  -0.158  -0.154  -0.149  -0.148  -0.141
 -0.140

          Ground-State Mulliken Net Atomic Charges

     Atom                 Charge (a.u.)
  ----------------------------------------
      1 O                    -0.214310
      2 C                     0.210947
      3 C                    -0.078533
      4 C                    -0.078611
      5 C                     0.219340
      6 O                    -0.168479
      7 C                    -0.060961
      8 C                    -0.057413
      9 O                    -0.174036
     10 C                     0.206819
     11 C                    -0.078878
     12 C                    -0.077010
     13 C                     0.220731
     14 O                    -0.226104
     15 O                    -0.174305
     16 O                    -0.158847
     17 O                    -0.202331
     18 C                    -0.144140
     19 C                     0.025815
     20 C                    -0.143796
     21 C                    -0.144730
     22 C                     0.025573
     23 O                    -0.183845
     24 H                     0.085953
     25 H                     0.083975
     26 H                     0.084996
     27 H                     0.077920
     28 H                     0.072857
     29 H                     0.077896
     30 H                     0.072318
     31 H                     0.090799
     32 O                    -0.217509
     33 C                    -0.150389
     34 C                     0.023538
     35 C                    -0.143749
     36 C                    -0.144170
     37 C                     0.025500
     38 O                    -0.186890
     39 H                     0.084835
     40 H                     0.086570
     41 H                     0.111409
     42 H                     0.090169
     43 H                     0.078263
     44 H                     0.072907
     45 H                     0.078286
     46 H                     0.073290
     47 H                     0.084727
     48 H                     0.086703
     49 H                     0.081605
     50 H                     0.090287
     51 H                     0.121808
     52 H                     0.083006
     53 H                     0.099214
     54 H                     0.083891
     55 H                     0.112128
     56 H                     0.084962
  ----------------------------------------
  Sum of atomic charges =    -0.000000

                    Cartesian Multipole Moments
 -----------------------------------------------------------------
    Charge (ESU x 10^10)
                 0.0000
    Dipole Moment (Debye)
         X       0.0312      Y       0.6765      Z      -2.4134
       Tot       2.5066
    Quadrupole Moments (Debye-Ang)
        XX    -136.2486     XY       7.2213     YY    -156.7871
        XZ      -1.2589     YZ       4.1754     ZZ    -162.9484

 Total job time:  144.83s(wall), 6911.56s(cpu)
        *  Thank you very much for using Q-Chem.  Have a nice day.  *
