 Q-Chem 5.0, Q-Chem, Inc., Pleasanton, CA (2017)
 Q-Chem 5.0.1 for Intel X86 EM64T Linux

User input:
--------------------------------------------------------------
$molecule
0  1
O -3.94934 -3.66094 2.70899
C -3.26408 -4.56952 2.26188
C -3.36658 -6.02376 2.66595
C -2.47373 -6.49548 3.82533
C -1.70912 -5.42196 4.56764
O -0.53106 -5.16392 3.92654
C 0.35592 -4.33853 4.68895
C 0.8483 -5.09285 5.91968
O 1.66845 -4.23217 6.72557
C 2.17979 -4.79688 7.84752
C 3.05446 -3.85138 8.63596
C 2.64373 -2.37364 8.55938
C 1.25297 -2.10134 8.02241
O 0.99076 -1.39672 7.05839
O -2.22903 -4.26241 1.43749
O 0.2179 -2.69989 8.67493
O 2.16956 -6.0039 8.05674
C -1.10982 -2.55432 8.33252
C 2.99344 -4.05903 10.16834
C 4.27635 -3.52204 10.80345
C 4.08027 -2.02941 10.6189
C 2.65504 -2.01016 10.05322
O 2.04078 -3.13541 10.63292
H 4.10186 -4.04427 8.31174
H 3.35738 -1.77546 7.9508
H 2.83348 -5.11765 10.46747
H 4.21603 -3.75566 11.89083
H 5.22802 -3.92851 10.39867
H 4.12396 -1.5432 11.61854
H 4.79414 -1.53896 9.92198
H 2.16348 -1.03126 10.24808
O -2.08248 -4.89521 5.61112
C -1.94573 -2.99028 0.98689
C -4.76319 -6.33388 3.25091
C -5.06032 -7.82933 3.14508
C -4.13871 -8.3714 4.21318
C -3.56093 -7.0646 4.76562
O -4.61339 -6.14452 4.63313
H -3.25459 -6.62583 1.73652
H -1.76165 -7.3088 3.55963
H -1.72865 -2.31883 1.84481
H -5.57968 -5.75549 2.76449
H -6.11291 -7.98538 3.47374
H -4.9233 -8.26425 2.1317
H -4.75823 -8.87287 4.98998
H -3.34759 -9.06452 3.85403
H -3.18444 -7.22902 5.79989
H -2.80424 -2.59188 0.40462
H -1.05473 -3.02807 0.32725
H -1.73231 -3.15544 9.02633
H -1.27901 -2.91406 7.29641
H -1.41045 -1.48794 8.41262
H 0.00871 -5.4493 6.55022
H 1.42825 -5.9797 5.5783
H -0.14639 -3.3866 4.97541
H 1.23428 -4.0761 4.06219
$end

$opt
CONSTRAINT
tors           1           2           3           4     -91.047
tors           3           4           5           6     -85.743
tors           4           5           6           7    -169.462
tors           5           6           7           8     +67.569
tors           6           7           8           9    -176.305
tors           7           8           9          10    -179.344
tors           8           9          10          11    +178.826
tors           9          10          11          12     +32.159
tors          11          12          13          14    -122.922
ENDCONSTRAINT
$end

$rem
JOBTYPE                   OPT
METHOD                    B3LYP
DFT_D                     d3_op
BASIS                     STO-3G
GEOM_OPT_MAX_CYCLES       100
GEOM_OPT_TOL_GRADIENT     300
GEOM_OPT_TOL_DISPLACEMENT 1200
GEOM_OPT_TOL_ENERGY       100
SYMMETRY                  False
THRESH                    12
SCF_CONVERGENCE           8
MAX_SUB_FILE_NUM          128
MEM_STATIC                400
MEM_TOTAL                 4000
$end
--------------------------------------------------------------

   14   -1510.1555634234      9.07E-09 Convergence criterion met
 Total energy in the final basis set = -1510.15556342
   14   -1510.2247416074      3.84E-09 Convergence criterion met
 Total energy in the final basis set = -1510.22474161
   14   -1510.2616167362      2.01E-09 Convergence criterion met
 Total energy in the final basis set = -1510.26161674
   15   -1510.2775213139      1.59E-09 Convergence criterion met
 Total energy in the final basis set = -1510.27752131
   14   -1510.2804269877      5.05E-09 Convergence criterion met
 Total energy in the final basis set = -1510.28042699
   14   -1510.2825814783      4.64E-09 Convergence criterion met
 Total energy in the final basis set = -1510.28258148
   13   -1510.2838862208      7.27E-09 Convergence criterion met
 Total energy in the final basis set = -1510.28388622
   13   -1510.2844584926      3.77E-09 Convergence criterion met
   11   -1510.2853661855      5.39E-09 Convergence criterion met
 Total energy in the final basis set = -1510.28536619
    9   -1510.2853761851      8.89E-09 Convergence criterion met
 Total energy in the final basis set = -1510.28537619
    9   -1510.2853815323      6.22E-09 Convergence criterion met
 Total energy in the final basis set = -1510.28538153
   10   -1510.2853842554      5.80E-09 Convergence criterion met
 Total energy in the final basis set = -1510.28538426
    9   -1510.2853852804      5.47E-09 Convergence criterion met
 Total energy in the final basis set = -1510.28538528
    9   -1510.2853884412      3.60E-09 Convergence criterion met
 Total energy in the final basis set = -1510.28538844

             Standard Nuclear Orientation (Angstroms)
    I     Atom           X                Y                Z
 ----------------------------------------------------------------
    1      O      -3.9507470636     1.7978320271     1.4226629374
    2      C      -4.2149751506     1.4364082024     0.2560258579
    3      C      -4.7697837527     0.0484655329    -0.2200069569
    4      C      -3.6062357883    -0.9768543034    -0.5880953288
    5      C      -2.1754688080    -0.3931532959    -0.3266561645
    6      O      -1.7615748378     0.3548984966    -1.4799827561
    7      C      -0.3247687044     0.7010416395    -1.3637355974
    8      C       0.6114775323    -0.5566600580    -1.4514618556
    9      O       1.9645736357    -0.0096293670    -1.2245470204
   10      C       2.9774875382    -1.0151589125    -1.2816947808
   11      C       4.3524687444    -0.2968860014    -1.0563106573
   12      C       4.2847854783     0.9686504637    -0.0972211108
   13      C       2.8892016435     1.2260172683     0.5905986697
   14      O       2.2050684485     2.2709482783     0.5122843632
   15      O      -4.0128448315     2.2500447629    -0.9052666492
   16      O       2.5685827909     0.1045856898     1.4241688293
   17      O       2.7597945593    -2.2245638966    -1.5003238919
   18      C       1.2710414313     0.3185822215     2.1102332829
   19      C       5.4034032562    -1.2128565306    -0.3024684917
   20      C       6.8435141430    -0.6280653800    -0.5758906883
   21      C       6.8137941707     0.6676022650     0.3176230266
   22      C       5.3815489678     0.5555279893     0.9791949190
   23      O       5.1759719997    -0.9035970631     1.1275976962
   24      H       4.7329951709    -0.0010825190    -2.0524220869
   25      H       4.5607477258     1.8923964053    -0.6350366860
   26      H       5.2761766956    -2.2962218138    -0.4949251451
   27      H       7.6161892629    -1.3359243805    -0.2356159837
   28      H       7.0102341998    -0.4086206562    -1.6425933100
   29      H       7.5982939067     0.6449948230     1.0906842310
   30      H       6.9247244972     1.5919376374    -0.2716028843
   31      H       5.2749002957     1.0617542248     1.9580716072
   32      O      -1.4677996984    -0.5616000199     0.6924860475
   33      C      -3.3851133324     3.5353759415    -0.5206368615
   34      C      -5.4958898226    -0.7360289600     0.9519880388
   35      C      -6.3409497925    -1.9064440282     0.3106056508
   36      C      -5.2035869747    -2.9229940919    -0.0782441002
   37      C      -3.9194996871    -2.1538451120     0.4256875524
   38      O      -4.3875172217    -1.4408577132     1.6356873540
   39      H      -5.4331665458     0.2118142560    -1.0878052250
   40      H      -3.6727119454    -1.2900828616    -1.6451196942
   41      H      -2.3836406461     3.3787764118    -0.0697895513
   42      H      -6.0382644667    -0.0877114902     1.6669630324
   43      H      -7.0307774041    -2.3362009393     1.0541727966
   44      H      -6.9248404286    -1.5680833167    -0.5601911522
   45      H      -5.3145591380    -3.8788001458     0.4580530268
   46      H      -5.1676080282    -3.1271506645    -1.1603679139
   47      H      -3.0455021317    -2.7889675072     0.6673721308
   48      H      -4.0116414828     4.0979051504     0.2012631587
   49      H      -3.2817023781     4.1169242505    -1.4550036386
   50      H       1.3101514600    -0.2717326917     3.0442274662
   51      H       0.4126466325    -0.0344575737     1.4943024848
   52      H       1.1214590766     1.3907567241     2.3459379027
   53      H       0.3469979302    -1.2968236946    -0.6666122804
   54      H       0.5340434536    -1.0482119257    -2.4455319424
   55      H      -0.1110076523     1.2391223773    -0.4144740463
   56      H      -0.1163476323     1.3825947947    -2.2119612171
 ----------------------------------------------------------------

    9   -1510.2853888914      2.80E-09 Convergence criterion met
 Total energy in the final basis set = -1510.28538889
 Final energy is   -1510.28538889136
 **  OPTIMIZATION CONVERGED  **

                    Orbital Energies (a.u.)
 --------------------------------------------------------------

 Alpha MOs
 -- Occupied --
-18.944 -18.943 -18.935 -18.916 -18.889 -18.889 -18.885 -18.882
-18.877 -18.854 -10.109 -10.106 -10.099 -10.089 -10.079 -10.078
-10.064 -10.062 -10.061 -10.057 -10.056 -10.044 -10.040 -10.039
-10.038 -10.032 -10.022 -10.021 -10.018 -10.017  -1.024  -1.019
 -1.011  -0.993  -0.971  -0.966  -0.948  -0.943  -0.936  -0.920
 -0.767  -0.761  -0.731  -0.723  -0.711  -0.705  -0.699  -0.663
 -0.645  -0.621  -0.597  -0.586  -0.550  -0.544  -0.539  -0.535
 -0.515  -0.509  -0.487  -0.470  -0.468  -0.463  -0.458  -0.443
 -0.432  -0.431  -0.427  -0.414  -0.412  -0.403  -0.401  -0.399
 -0.397  -0.387  -0.373  -0.365  -0.362  -0.357  -0.353  -0.352
 -0.345  -0.340  -0.335  -0.333  -0.331  -0.327  -0.320  -0.313
 -0.309  -0.308  -0.304  -0.298  -0.295  -0.289  -0.284  -0.278
 -0.276  -0.261  -0.253  -0.247  -0.236  -0.235  -0.231  -0.189
 -0.183  -0.177  -0.167  -0.159  -0.157  -0.151  -0.145  -0.141
 -0.138

          Ground-State Mulliken Net Atomic Charges

     Atom                 Charge (a.u.)
  ----------------------------------------
      1 O                    -0.207413
      2 C                     0.204196
      3 C                    -0.077846
      4 C                    -0.077847
      5 C                     0.208732
      6 O                    -0.167204
      7 C                    -0.050019
      8 C                    -0.048869
      9 O                    -0.172197
     10 C                     0.218166
     11 C                    -0.078477
     12 C                    -0.078668
     13 C                     0.215117
     14 O                    -0.229434
     15 O                    -0.168471
     16 O                    -0.173450
     17 O                    -0.208873
     18 C                    -0.141492
     19 C                     0.024617
     20 C                    -0.143440
     21 C                    -0.144602
     22 C                     0.026008
     23 O                    -0.185052
     24 H                     0.084014
     25 H                     0.082488
     26 H                     0.089108
     27 H                     0.077990
     28 H                     0.072317
     29 H                     0.077608
     30 H                     0.072986
     31 H                     0.083310
     32 O                    -0.207697
     33 C                    -0.128607
     34 C                     0.025455
     35 C                    -0.143820
     36 C                    -0.144138
     37 C                     0.025820
     38 O                    -0.184096
     39 H                     0.086558
     40 H                     0.087310
     41 H                     0.089431
     42 H                     0.087508
     43 H                     0.078855
     44 H                     0.073386
     45 H                     0.079188
     46 H                     0.073247
     47 H                     0.087117
     48 H                     0.089659
     49 H                     0.090759
     50 H                     0.086446
     51 H                     0.096348
     52 H                     0.088524
     53 H                     0.096007
     54 H                     0.087923
     55 H                     0.101078
     56 H                     0.094436
  ----------------------------------------
  Sum of atomic charges =    -0.000000

                    Cartesian Multipole Moments
 -----------------------------------------------------------------
    Charge (ESU x 10^10)
                 0.0000
    Dipole Moment (Debye)
         X      -0.6971      Y       0.5599      Z      -3.4157
       Tot       3.5308
    Quadrupole Moments (Debye-Ang)
        XX    -137.6895     XY       8.0745     YY    -160.3529
        XZ       1.9708     YZ       0.7050     ZZ    -163.3901

 Total job time:  57.74s(wall), 2744.62s(cpu)
        *  Thank you very much for using Q-Chem.  Have a nice day.  *
