 Q-Chem 5.0, Q-Chem, Inc., Pleasanton, CA (2017)
 Q-Chem 5.0.1 for Intel X86 EM64T Linux

User input:
--------------------------------------------------------------
$molecule
0  1
O -4.1237850747 1.85715737 1.3683320003
C -4.3247471061 1.4670123723 0.1986247794
C -4.829162486 0.0584478396 -0.2739323569
C -3.6302715353 -0.9384644249 -0.6045786503
C -2.2209511634 -0.3012855191 -0.3549679655
O -1.7693924964 0.3114489676 -1.5741692655
C -0.3395693897 0.6827007307 -1.4463513924
C 0.6002837166 -0.5696010037 -1.3460229461
O 1.9575019916 -0.0046132628 -1.1933916144
C 2.9485438541 -1.0397487975 -1.1293754853
C 4.3411638215 -0.3327206522 -1.0151588547
C 4.3064560864 0.982519069 -0.1318697225
C 2.9882814805 1.17039455 0.7086406968
O 2.3966394026 2.2502382447 0.9270637461
O -4.0780232536 2.2593867292 -0.9692161543
O 2.6583809002 -0.0721132168 1.3473465087
O 2.6979620782 -2.2601425414 -1.1959370976
C 1.4281269021 0.0754056044 2.1617999936
C 5.4410398649 -1.1959887987 -0.2677340147
C 6.8533200879 -0.6455939041 -0.7070723913
C 6.8759958639 0.7389985224 0.0420269916
C 5.5197577363 0.6789954429 0.8529931242
O 5.3432857007 -0.7623741672 1.1457990367
H 4.6722920072 -0.092211408 -2.0430415508
H 4.4655278364 1.895704253 -0.7310720856
H 5.2950133074 -2.2905546403 -0.3533491804
H 7.6533049166 -1.3111356699 -0.3451202164
H 6.9447577901 -0.5437852434 -1.8002713953
H 7.733300943 0.8140156924 0.7296298375
H 6.9045826306 1.5954627295 -0.6507263661
H 5.5067937723 1.2699359952 1.789212669
O -1.5532923518 -0.3274604403 0.7033339121
C -3.5007869129 3.5672335298 -0.581637308
C -5.5531722822 -0.7278760822 0.8981137255
C -6.3461401262 -1.9380124626 0.2655872708
C -5.1687994314 -2.9249490903 -0.0778379799
C -3.9204463401 -2.1020935186 0.4320492756
O -4.4352247738 -1.380508232 1.6176487564
H -5.4805347198 0.1918017245 -1.1559235645
H -3.6783525482 -1.2794157753 -1.6538743027
H -2.52542779 3.4441998546 -0.067493064
H -6.130494917 -0.0837814569 1.5891566074
H -7.0369942744 -2.3745226852 1.0042312029
H -6.9225845878 -1.637389306 -0.6238821673
H -5.2587296139 -3.87055787 0.4800399927
H -5.10488678 -3.1539221366 -1.1536412511
H -3.0313317645 -2.7036128616 0.7029550929
H -4.1809569707 4.134016707 0.0864220498
H -3.3534834178 4.1273059625 -1.5232678326
H 1.4155846836 -0.7851424296 2.8554747885
H 0.5088549816 0.0491269561 1.535494254
H 1.437962281 1.0223372001 2.737161127
H 0.3305583149 -1.1944223443 -0.4685303035
H 0.5234539729 -1.1959398211 -2.2612481279
H -0.1705421519 1.3266731828 -0.5556920981
H -0.1006873539 1.2630854625 -2.3594691355
$end

$rem
JOBTYPE                   OPT
METHOD                    B3LYP
DFT_D                     d3_op
BASIS                     STO-3G
GEOM_OPT_MAX_CYCLES       100
GEOM_OPT_TOL_GRADIENT     300
GEOM_OPT_TOL_DISPLACEMENT 1200
GEOM_OPT_TOL_ENERGY       100
SYMMETRY                  False
THRESH                    12
SCF_CONVERGENCE           8
MAX_SUB_FILE_NUM          128
MEM_STATIC                400
MEM_TOTAL                 4000
$end
--------------------------------------------------------------

   16   -1510.2839444446      5.05E-09 Convergence criterion met
 Total energy in the final basis set = -1510.28394444
   15   -1510.2835467564      2.88E-09 Convergence criterion met
 Total energy in the final basis set = -1510.28354676
   14   -1510.2871052849      7.64E-09 Convergence criterion met
 Total energy in the final basis set = -1510.28710528
   14   -1510.2876397184      8.93E-09 Convergence criterion met
 Total energy in the final basis set = -1510.28763972
   14   -1510.2892718464      4.49E-09 Convergence criterion met
 Total energy in the final basis set = -1510.28927185
   14   -1510.2899466928      5.70E-09 Convergence criterion met
 Total energy in the final basis set = -1510.28994669
   14   -1510.2907715305      6.60E-09 Convergence criterion met
 Total energy in the final basis set = -1510.29077153
   14   -1510.2917396078      8.49E-09 Convergence criterion met
    9   -1510.2998270899      6.60E-09 Convergence criterion met
 Total energy in the final basis set = -1510.29982709
   11   -1510.2998276250      2.10E-09 Convergence criterion met
 Total energy in the final basis set = -1510.29982762
   11   -1510.2998285663      5.24E-09 Convergence criterion met
 Total energy in the final basis set = -1510.29982857
   11   -1510.2998282963      4.82E-09 Convergence criterion met
 Total energy in the final basis set = -1510.29982830
   11   -1510.2998288022      2.22E-09 Convergence criterion met
 Total energy in the final basis set = -1510.29982880
   11   -1510.2998301803      2.12E-09 Convergence criterion met
 Total energy in the final basis set = -1510.29983018

             Standard Nuclear Orientation (Angstroms)
    I     Atom           X                Y                Z
 ----------------------------------------------------------------
    1      O      -2.8017805621     1.9386245967     1.6930693529
    2      C      -3.0684162954     1.4718195524     0.5648722025
    3      C      -3.9989936276     0.2498141535     0.2319187818
    4      C      -3.3177354409    -0.8179900718    -0.7274326923
    5      C      -1.8340954507    -0.4591983261    -1.0753492667
    6      O      -1.7159544431    -0.2067637556    -2.4771985903
    7      C      -0.3278655103     0.2144667331    -2.7945863891
    8      C       0.6442385021    -1.0171266870    -2.9793490103
    9      O       2.0202284013    -0.5859343468    -2.6333203876
   10      C       2.3374071896    -0.9828512492    -1.2889318578
   11      C       3.6755927042    -0.2799342930    -0.8877163363
   12      C       3.4469786750     1.0044363380     0.0307281272
   13      C       1.9257841629     1.2435419917     0.3616634331
   14      O       1.0703253548     1.6709722116    -0.4565630401
   15      O      -2.5717329604     1.9831482975    -0.6723089641
   16      O       1.6647918537     0.8971109115     1.7063353919
   17      O       1.6359099288    -1.7518212996    -0.5967996487
   18      C       0.2110824179     0.9632530037     2.0142700332
   19      C       4.5705160396    -1.1748747845     0.0715205396
   20      C       6.0350001676    -0.5852965763     0.0614018668
   21      C       5.8392611826     0.7173177628     0.9226142553
   22      C       4.3080509844     0.6117483999     1.3005986307
   23      O       4.0759692266    -0.8458460784     1.4270195897
   24      H       4.2102190258    -0.0051999744    -1.8139276757
   25      H       3.8314939847     1.9096616866    -0.4732844787
   26      H       4.4919673395    -2.2635547149    -0.1141724546
   27      H       6.7338899146    -1.2867565825     0.5441881899
   28      H       6.3939665413    -0.3741258412    -0.9586368232
   29      H       6.4610092529     0.6970964095     1.8315177437
   30      H       6.0659271653     1.6375243520     0.3606627027
   31      H       4.0117727850     1.1323997927     2.2307124522
   32      O      -0.8616025957    -0.4331446508    -0.2866271321
   33      C      -1.5626619391     3.0480317222    -0.4443355884
   34      C      -4.2784054055    -0.6270868677     1.5208155631
   35      C      -5.5136807485    -1.5660559904     1.2312846521
   36      C      -4.8694552602    -2.6208011599     0.2566132146
   37      C      -3.3757530141    -2.1107974555     0.1948806589
   38      O      -3.1316768994    -1.5656742305     1.5495270541
   39      H      -4.9342710626     0.6340092692    -0.2155057203
   40      H      -3.8815664798    -0.9403904894    -1.6685843972
   41      H      -1.7938919928     3.6154679911     0.4782558824
   42      H      -4.3220205519    -0.0403588098     2.4590483216
   43      H      -5.8630329775    -2.0393616219     2.1626256798
   44      H      -6.3546174033    -1.0202069324     0.7746248166
   45      H      -4.9114651387    -3.6384762017     0.6763470695
   46      H      -5.3456420902    -2.6294155828    -0.7369425183
   47      H      -2.6214223384    -2.8827524979    -0.0522808257
   48      H      -1.6070833849     3.7169699537    -1.3231580396
   49      H      -0.5475761305     2.5867582090    -0.3657266544
   50      H       0.1009259881     0.5090326769     3.0151170490
   51      H      -0.3695435583     0.3863303166     1.2560025392
   52      H      -0.1453302032     2.0120950064     2.0459048073
   53      H       0.3419070659    -1.8406657936    -2.2963986805
   54      H       0.6582775113    -1.3753394210    -4.0277787861
   55      H       0.0905243146     0.8498127494    -1.9771921192
   56      H      -0.4003004917     0.8012408664    -3.7308140854
 ----------------------------------------------------------------

   10   -1510.2998304466      9.08E-09 Convergence criterion met
 Total energy in the final basis set = -1510.29983045
 Final energy is   -1510.29983044658
 **  OPTIMIZATION CONVERGED  **

                    Orbital Energies (a.u.)
 --------------------------------------------------------------

 Alpha MOs
 -- Occupied --
-18.939 -18.932 -18.928 -18.927 -18.885 -18.885 -18.876 -18.876
-18.873 -18.873 -10.105 -10.100 -10.096 -10.096 -10.062 -10.058
-10.057 -10.056 -10.056 -10.056 -10.039 -10.038 -10.036 -10.036
-10.036 -10.035 -10.019 -10.019 -10.018 -10.017  -1.015  -1.010
 -1.006  -1.003  -0.968  -0.966  -0.936  -0.935  -0.932  -0.930
 -0.762  -0.760  -0.724  -0.721  -0.709  -0.703  -0.690  -0.652
 -0.647  -0.615  -0.594  -0.577  -0.544  -0.543  -0.535  -0.534
 -0.510  -0.505  -0.477  -0.473  -0.461  -0.458  -0.450  -0.443
 -0.434  -0.430  -0.426  -0.422  -0.409  -0.404  -0.398  -0.392
 -0.382  -0.375  -0.371  -0.362  -0.358  -0.355  -0.353  -0.348
 -0.343  -0.337  -0.330  -0.328  -0.327  -0.322  -0.316  -0.308
 -0.307  -0.304  -0.302  -0.297  -0.286  -0.284  -0.283  -0.275
 -0.269  -0.259  -0.246  -0.241  -0.238  -0.232  -0.230  -0.186
 -0.175  -0.171  -0.160  -0.158  -0.154  -0.149  -0.148  -0.141
 -0.140

          Ground-State Mulliken Net Atomic Charges

     Atom                 Charge (a.u.)
  ----------------------------------------
      1 O                    -0.214270
      2 C                     0.210825
      3 C                    -0.078471
      4 C                    -0.078686
      5 C                     0.219301
      6 O                    -0.168452
      7 C                    -0.061077
      8 C                    -0.057371
      9 O                    -0.174038
     10 C                     0.206928
     11 C                    -0.078899
     12 C                    -0.076934
     13 C                     0.220652
     14 O                    -0.225986
     15 O                    -0.174239
     16 O                    -0.158873
     17 O                    -0.202437
     18 C                    -0.144104
     19 C                     0.025744
     20 C                    -0.143717
     21 C                    -0.144796
     22 C                     0.025593
     23 O                    -0.183867
     24 H                     0.085908
     25 H                     0.084021
     26 H                     0.085137
     27 H                     0.077919
     28 H                     0.072818
     29 H                     0.077868
     30 H                     0.072298
     31 H                     0.090666
     32 O                    -0.217518
     33 C                    -0.150248
     34 C                     0.023527
     35 C                    -0.143826
     36 C                    -0.144113
     37 C                     0.025493
     38 O                    -0.186971
     39 H                     0.084824
     40 H                     0.086546
     41 H                     0.086743
     42 H                     0.090185
     43 H                     0.078263
     44 H                     0.072902
     45 H                     0.078275
     46 H                     0.073268
     47 H                     0.084907
     48 H                     0.081687
     49 H                     0.111347
     50 H                     0.090314
     51 H                     0.121677
     52 H                     0.082947
     53 H                     0.099080
     54 H                     0.083887
     55 H                     0.112410
     56 H                     0.084934
  ----------------------------------------
  Sum of atomic charges =    -0.000000

                    Cartesian Multipole Moments
 -----------------------------------------------------------------
    Charge (ESU x 10^10)
                 0.0000
    Dipole Moment (Debye)
         X      -0.0023      Y       0.7515      Z      -2.3908
       Tot       2.5062
    Quadrupole Moments (Debye-Ang)
        XX    -136.4200     XY       7.3837     YY    -157.0280
        XZ      -1.3909     YZ       4.2395     ZZ    -162.4924

 Total job time:  177.37s(wall), 8459.44s(cpu)
        *  Thank you very much for using Q-Chem.  Have a nice day.  *
