 Q-Chem 5.0, Q-Chem, Inc., Pleasanton, CA (2017)
 Q-Chem 5.0.1 for Intel X86 EM64T Linux

User input:
--------------------------------------------------------------
$molecule
0  1
O -3.94934 -3.66094 2.70899
C -3.26408 -4.56952 2.26188
C -3.36658 -6.02376 2.66595
C -2.44623 -6.5045 3.79984
C -1.6537 -5.43824 4.52308
O -0.43779 -5.27633 3.92244
C 0.46689 -4.47473 4.68941
C 0.85892 -5.20401 5.97026
O 1.74167 -4.38255 6.75055
C 2.19264 -4.94072 7.9013
C 3.14827 -4.04595 8.65418
C 2.81463 -2.5481 8.59597
C 1.41969 -2.19998 8.11674
O 1.13177 -1.24953 7.40377
O -2.20837 -4.25932 1.46533
O 0.39345 -2.90006 8.67698
O 1.70969 -5.95588 8.38869
C -0.94128 -2.68329 8.40601
C 3.20487 -4.28224 10.17551
C 4.53304 -3.76408 10.72701
C 4.3218 -2.26784 10.61518
C 2.87736 -2.23082 10.10522
O 2.28248 -3.36114 10.69865
H 4.14837 -4.23935 8.20579
H 3.54331 -1.93607 8.01951
H 3.06005 -5.34486 10.46719
H 4.57324 -4.03638 11.80612
H 5.43895 -4.15525 10.21588
H 4.38028 -1.82859 11.63595
H 5.01963 -1.73716 9.93191
H 2.40686 -1.2518 10.34717
O -2.15205 -4.6188 5.28748
C -1.88978 -2.98038 1.05994
C -4.74062 -6.33462 3.30813
C -5.04702 -7.82872 3.20103
C -4.08042 -8.38736 4.22233
C -3.48336 -7.08925 4.77406
O -4.53879 -6.16549 4.68866
H -3.29468 -6.62652 1.73295
H -1.73127 -7.28543 3.45441
H -1.6743 -2.3418 1.9433
H -5.57465 -5.74947 2.86151
H -6.08417 -7.98084 3.57736
H -4.96193 -8.25773 2.17951
H -4.6654 -8.90944 5.01201
H -3.29925 -9.06626 3.8169
H -3.06062 -7.25755 5.78961
H -2.72799 -2.54437 0.47539
H -0.98636 -3.01708 0.41737
H -1.55207 -3.39864 8.99373
H -1.14206 -2.84477 7.3256
H -1.22722 -1.6485 8.69137
H -0.04632 -5.42831 6.57578
H 1.3594 -6.1605 5.69789
H 0.02666 -3.47629 4.91205
H 1.38624 -4.30546 4.08991
$end

$opt
CONSTRAINT
tors           1           2           3           4     -92.663
tors           3           4           5           6     -91.364
tors           4           5           6           7    -168.845
tors           5           6           7           8     +67.322
tors           6           7           8           9    -178.659
tors           7           8           9          10    -178.180
tors           8           9          10          11    +178.228
tors           9          10          11          12     +36.647
tors          11          12          13          14    -142.124
ENDCONSTRAINT
$end

$rem
JOBTYPE                   OPT
METHOD                    B3LYP
DFT_D                     d3_op
BASIS                     STO-3G
GEOM_OPT_MAX_CYCLES       100
GEOM_OPT_TOL_GRADIENT     300
GEOM_OPT_TOL_DISPLACEMENT 1200
GEOM_OPT_TOL_ENERGY       100
SYMMETRY                  False
THRESH                    12
SCF_CONVERGENCE           8
MAX_SUB_FILE_NUM          128
MEM_STATIC                400
MEM_TOTAL                 4000
$end
--------------------------------------------------------------

   15   -1510.1507165643      7.37E-09 Convergence criterion met
 Total energy in the final basis set = -1510.15071656
   13   -1510.2204311867      9.67E-09 Convergence criterion met
 Total energy in the final basis set = -1510.22043119
   14   -1510.2580689824      7.93E-09 Convergence criterion met
 Total energy in the final basis set = -1510.25806898
   14   -1510.2750647862      9.73E-09 Convergence criterion met
 Total energy in the final basis set = -1510.27506479
   13   -1510.2809086044      9.41E-09 Convergence criterion met
 Total energy in the final basis set = -1510.28090860
   13   -1510.2828515856      9.17E-09 Convergence criterion met
 Total energy in the final basis set = -1510.28285159
   13   -1510.2827347394      6.39E-09 Convergence criterion met
 Total energy in the final basis set = -1510.28273474
   12   -1510.2834911521      9.27E-09 Convergence criterion met
   11   -1510.2837736931      8.50E-09 Convergence criterion met
 Total energy in the final basis set = -1510.28377369
   11   -1510.2838279478      6.71E-09 Convergence criterion met
 Total energy in the final basis set = -1510.28382795
   11   -1510.2839260544      8.72E-09 Convergence criterion met
 Total energy in the final basis set = -1510.28392605
   12   -1510.2839770168      4.72E-09 Convergence criterion met
 Total energy in the final basis set = -1510.28397702
   11   -1510.2840002344      6.10E-09 Convergence criterion met
 Total energy in the final basis set = -1510.28400023
   11   -1510.2840128646      5.91E-09 Convergence criterion met
 Total energy in the final basis set = -1510.28401286

             Standard Nuclear Orientation (Angstroms)
    I     Atom           X                Y                Z
 ----------------------------------------------------------------
    1      O      -4.1237850747     1.8571573700     1.3683320003
    2      C      -4.3247471061     1.4670123723     0.1986247794
    3      C      -4.8291624860     0.0584478396    -0.2739323569
    4      C      -3.6302715353    -0.9384644249    -0.6045786503
    5      C      -2.2209511634    -0.3012855191    -0.3549679655
    6      O      -1.7693924964     0.3114489676    -1.5741692655
    7      C      -0.3395693897     0.6827007307    -1.4463513924
    8      C       0.6002837166    -0.5696010037    -1.3460229461
    9      O       1.9575019916    -0.0046132628    -1.1933916144
   10      C       2.9485438541    -1.0397487975    -1.1293754853
   11      C       4.3411638215    -0.3327206522    -1.0151588547
   12      C       4.3064560864     0.9825190690    -0.1318697225
   13      C       2.9882814805     1.1703945500     0.7086406968
   14      O       2.3966394026     2.2502382447     0.9270637461
   15      O      -4.0780232536     2.2593867292    -0.9692161543
   16      O       2.6583809002    -0.0721132168     1.3473465087
   17      O       2.6979620782    -2.2601425414    -1.1959370976
   18      C       1.4281269021     0.0754056044     2.1617999936
   19      C       5.4410398649    -1.1959887987    -0.2677340147
   20      C       6.8533200879    -0.6455939041    -0.7070723913
   21      C       6.8759958639     0.7389985224     0.0420269916
   22      C       5.5197577363     0.6789954429     0.8529931242
   23      O       5.3432857007    -0.7623741672     1.1457990367
   24      H       4.6722920072    -0.0922114080    -2.0430415508
   25      H       4.4655278364     1.8957042530    -0.7310720856
   26      H       5.2950133074    -2.2905546403    -0.3533491804
   27      H       7.6533049166    -1.3111356699    -0.3451202164
   28      H       6.9447577901    -0.5437852434    -1.8002713953
   29      H       7.7333009430     0.8140156924     0.7296298375
   30      H       6.9045826306     1.5954627295    -0.6507263661
   31      H       5.5067937723     1.2699359952     1.7892126690
   32      O      -1.5532923518    -0.3274604403     0.7033339121
   33      C      -3.5007869129     3.5672335298    -0.5816373080
   34      C      -5.5531722822    -0.7278760822     0.8981137255
   35      C      -6.3461401262    -1.9380124626     0.2655872708
   36      C      -5.1687994314    -2.9249490903    -0.0778379799
   37      C      -3.9204463401    -2.1020935186     0.4320492756
   38      O      -4.4352247738    -1.3805082320     1.6176487564
   39      H      -5.4805347198     0.1918017245    -1.1559235645
   40      H      -3.6783525482    -1.2794157753    -1.6538743027
   41      H      -2.5254277900     3.4441998546    -0.0674930640
   42      H      -6.1304949170    -0.0837814569     1.5891566074
   43      H      -7.0369942744    -2.3745226852     1.0042312029
   44      H      -6.9225845878    -1.6373893060    -0.6238821673
   45      H      -5.2587296139    -3.8705578700     0.4800399927
   46      H      -5.1048867800    -3.1539221366    -1.1536412511
   47      H      -3.0313317645    -2.7036128616     0.7029550929
   48      H      -4.1809569707     4.1340167070     0.0864220498
   49      H      -3.3534834178     4.1273059625    -1.5232678326
   50      H       1.4155846836    -0.7851424296     2.8554747885
   51      H       0.5088549816     0.0491269561     1.5354942540
   52      H       1.4379622810     1.0223372001     2.7371611270
   53      H       0.3305583149    -1.1944223443    -0.4685303035
   54      H       0.5234539729    -1.1959398211    -2.2612481279
   55      H      -0.1705421519     1.3266731828    -0.5556920981
   56      H      -0.1006873539     1.2630854625    -2.3594691355
 ----------------------------------------------------------------

    9   -1510.2840135868      5.69E-09 Convergence criterion met
 Total energy in the final basis set = -1510.28401359
 Final energy is   -1510.28401358681
 **  OPTIMIZATION CONVERGED  **

                    Orbital Energies (a.u.)
 --------------------------------------------------------------

 Alpha MOs
 -- Occupied --
-18.942 -18.936 -18.934 -18.919 -18.889 -18.887 -18.885 -18.880
-18.877 -18.859 -10.107 -10.104 -10.099 -10.090 -10.079 -10.076
-10.064 -10.062 -10.060 -10.058 -10.057 -10.045 -10.043 -10.040
-10.037 -10.033 -10.022 -10.021 -10.019 -10.018  -1.022  -1.016
 -1.010  -0.996  -0.971  -0.967  -0.946  -0.941  -0.936  -0.923
 -0.767  -0.762  -0.730  -0.723  -0.712  -0.705  -0.699  -0.663
 -0.647  -0.620  -0.597  -0.586  -0.549  -0.545  -0.539  -0.535
 -0.514  -0.509  -0.486  -0.472  -0.467  -0.463  -0.457  -0.443
 -0.433  -0.431  -0.427  -0.414  -0.412  -0.404  -0.401  -0.400
 -0.394  -0.385  -0.373  -0.364  -0.361  -0.357  -0.355  -0.351
 -0.347  -0.343  -0.335  -0.332  -0.332  -0.328  -0.320  -0.312
 -0.309  -0.308  -0.304  -0.298  -0.294  -0.288  -0.283  -0.278
 -0.275  -0.261  -0.254  -0.251  -0.239  -0.235  -0.231  -0.187
 -0.181  -0.177  -0.165  -0.160  -0.158  -0.151  -0.145  -0.141
 -0.140

          Ground-State Mulliken Net Atomic Charges

     Atom                 Charge (a.u.)
  ----------------------------------------
      1 O                    -0.206375
      2 C                     0.204367
      3 C                    -0.077751
      4 C                    -0.078118
      5 C                     0.207063
      6 O                    -0.167727
      7 C                    -0.049440
      8 C                    -0.050367
      9 O                    -0.175837
     10 C                     0.219858
     11 C                    -0.078942
     12 C                    -0.077556
     13 C                     0.214126
     14 O                    -0.223922
     15 O                    -0.169415
     16 O                    -0.172383
     17 O                    -0.209837
     18 C                    -0.136437
     19 C                     0.024984
     20 C                    -0.142885
     21 C                    -0.144704
     22 C                     0.025075
     23 O                    -0.185440
     24 H                     0.083292
     25 H                     0.083879
     26 H                     0.089815
     27 H                     0.078054
     28 H                     0.072411
     29 H                     0.077912
     30 H                     0.073262
     31 H                     0.082982
     32 O                    -0.208452
     33 C                    -0.128792
     34 C                     0.025519
     35 C                    -0.143957
     36 C                    -0.143972
     37 C                     0.025865
     38 O                    -0.183768
     39 H                     0.086418
     40 H                     0.087224
     41 H                     0.089369
     42 H                     0.087679
     43 H                     0.078832
     44 H                     0.073396
     45 H                     0.079098
     46 H                     0.073355
     47 H                     0.086222
     48 H                     0.089644
     49 H                     0.090607
     50 H                     0.088749
     51 H                     0.094324
     52 H                     0.089965
     53 H                     0.095390
     54 H                     0.086786
     55 H                     0.097023
     56 H                     0.093529
  ----------------------------------------
  Sum of atomic charges =     0.000000

                    Cartesian Multipole Moments
 -----------------------------------------------------------------
    Charge (ESU x 10^10)
                 0.0000
    Dipole Moment (Debye)
         X      -0.5902      Y       0.3323      Z      -3.6882
       Tot       3.7499
    Quadrupole Moments (Debye-Ang)
        XX    -138.6871     XY       7.8005     YY    -159.9882
        XZ       1.1941     YZ      -0.7519     ZZ    -163.3757

 Total job time:  47.62s(wall), 2262.57s(cpu)
        *  Thank you very much for using Q-Chem.  Have a nice day.  *
