 Q-Chem 5.0, Q-Chem, Inc., Pleasanton, CA (2017)
 Q-Chem 5.0.1 for Intel X86 EM64T Linux

User input:
--------------------------------------------------------------
$molecule
0  1
O -3.6981146961 1.7531468619 1.4611917926
C -4.0572046052 1.456019188 0.301757242
C -4.7637284154 0.1416597012 -0.1817843134
C -3.7220011914 -0.9815982416 -0.6234750969
C -2.2343172055 -0.5371377068 -0.4086769817
O -1.813528811 0.199514413 -1.56552955
C -0.3749367529 0.5516852782 -1.4747613138
C 0.5817816964 -0.6851625811 -1.3316161684
O 1.9297702696 -0.08672527 -1.2331883936
C 2.9466808966 -1.0887158367 -1.1315771384
C 4.3205872685 -0.3364187895 -1.0899157928
C 4.2910540733 0.9629932794 -0.175365435
C 2.9220950817 1.2291018115 0.5552709612
O 2.2553219027 2.2870219723 0.5168332572
O -3.8343585351 2.2826798547 -0.8469348891
O 2.6069202868 0.1006870299 1.3835876002
O 2.7303265918 -2.3173499408 -1.1177047124
C 1.3263911163 0.3239205371 2.0979400855
C 5.4409564632 -1.1984701639 -0.3769269656
C 6.8471273472 -0.5819958593 -0.7406655544
C 6.8375819723 0.7260885845 0.1348210382
C 5.4400568662 0.5998378106 0.8636383979
O 5.276343702 -0.8589027825 1.0561052437
H 4.6031087184 -0.0793770623 -2.127822407
H 4.5333772957 1.8699964963 -0.7564466494
H 5.3335030651 -2.2897229771 -0.5335247072
H 7.6563622706 -1.265202256 -0.4371202455
H 6.9456780585 -0.374687149 -1.8182976617
H 7.6568297479 0.7266868347 0.871332131
H 6.9072299311 1.6435873732 -0.47121892
H 5.3659622687 1.1292354172 1.8332097472
O -1.5192347966 -0.7526682362 0.5959834333
C -3.0693835411 3.4909490015 -0.4605958856
C -5.5138458497 -0.5994109617 1.0032269313
C -6.4972385165 -1.6644454197 0.3762949776
C -5.4831957633 -2.7736659517 -0.0928851746
C -4.1089291643 -2.150173571 0.3736640689
O -4.4537231961 -1.428936517 1.6201702569
H -5.4416890149 0.3925600883 -1.0167768336
H -3.8626578444 -1.2564601874 -1.6838132484
H -2.0724457418 3.2266787179 -0.052002646
H -5.9591002461 0.0789239815 1.7563518198
H -7.1876315838 -2.0484249129 1.1441730249
H -7.089098688 -1.2476837648 -0.4542859683
H -5.6650835447 -3.7309717821 0.4208923983
H -5.5134951688 -2.9452070528 -1.1808384331
H -3.2940789462 -2.8754795913 0.5620866331
H -3.6107403645 4.0942323079 0.29638335
H -2.9436606846 4.0821019911 -1.3861969728
H 1.3861015596 -0.2474066016 3.0426069429
H 0.4602998601 -0.0448799584 1.505880794
H 1.1784285633 1.4010944337 2.310865818
H 0.3315585084 -1.2642197352 -0.4188704685
H 0.5013443374 -1.35582279 -2.2144248498
H -0.1906110713 1.2334135376 -0.6147602091
H -0.1492111175 1.0978908515 -2.4120861241
$end

$rem
JOBTYPE                   OPT
METHOD                    B3LYP
DFT_D                     d3_op
BASIS                     STO-3G
GEOM_OPT_MAX_CYCLES       100
GEOM_OPT_TOL_GRADIENT     300
GEOM_OPT_TOL_DISPLACEMENT 1200
GEOM_OPT_TOL_ENERGY       100
SYMMETRY                  False
THRESH                    12
SCF_CONVERGENCE           8
MAX_SUB_FILE_NUM          128
MEM_STATIC                400
MEM_TOTAL                 4000
$end
--------------------------------------------------------------

   16   -1510.2848735790      4.93E-09 Convergence criterion met
 Total energy in the final basis set = -1510.28487358
   15   -1510.2831588202      2.75E-09 Convergence criterion met
 Total energy in the final basis set = -1510.28315882
   14   -1510.2870790621      8.31E-09 Convergence criterion met
 Total energy in the final basis set = -1510.28707906
   15   -1510.2877042789      2.15E-09 Convergence criterion met
 Total energy in the final basis set = -1510.28770428
   13   -1510.2892926075      6.86E-09 Convergence criterion met
 Total energy in the final basis set = -1510.28929261
   13   -1510.2896217341      9.99E-09 Convergence criterion met
 Total energy in the final basis set = -1510.28962173
   13   -1510.2902993605      6.66E-09 Convergence criterion met
 Total energy in the final basis set = -1510.29029936
   14   -1510.2908757358      9.00E-09 Convergence criterion met
   11   -1510.2998637699      4.87E-09 Convergence criterion met
 Total energy in the final basis set = -1510.29986377
   11   -1510.2998665415      5.02E-09 Convergence criterion met
 Total energy in the final basis set = -1510.29986654
   11   -1510.2998525633      8.96E-09 Convergence criterion met
 Total energy in the final basis set = -1510.29985256
   11   -1510.2998663357      6.29E-09 Convergence criterion met
 Total energy in the final basis set = -1510.29986634
    9   -1510.2998671195      9.77E-09 Convergence criterion met
 Total energy in the final basis set = -1510.29986712
    9   -1510.2998663621      8.55E-09 Convergence criterion met
 Total energy in the final basis set = -1510.29986636

             Standard Nuclear Orientation (Angstroms)
    I     Atom           X                Y                Z
 ----------------------------------------------------------------
    1      O      -2.7785555003     2.1581327459     1.5013486830
    2      C      -3.0423189401     1.6099794466     0.4095763729
    3      C      -4.0146975859     0.4014976666     0.1562828405
    4      C      -3.3573541789    -0.7698092866    -0.6930104245
    5      C      -1.8530752475    -0.4988687085    -1.0331951865
    6      O      -1.6992143075    -0.3660262330    -2.4480832865
    7      C      -0.2916448226    -0.0192643650    -2.7701722483
    8      C       0.6429924753    -1.2912632807    -2.8220429299
    9      O       2.0321374873    -0.8616950594    -2.5306805876
   10      C       2.3418253627    -1.1108047259    -1.1492891151
   11      C       3.6894171641    -0.3885301486    -0.8210255862
   12      C       3.4735455395     0.9578492336     0.0063724971
   13      C       1.9524814120     1.2430285748     0.2987142079
   14      O       1.1131732996     1.6130906025    -0.5632252296
   15      O      -2.5075615596     2.0017995791    -0.8548734100
   16      O       1.6704217059     1.0116562538     1.6631244152
   17      O       1.6260609057    -1.7856474309    -0.3779768075
   18      C       0.2143082583     1.1262645379     1.9457652437
   19      C       4.5872537051    -1.2169803401     0.1926025088
   20      C       6.0502007256    -0.6245948569     0.1471168181
   21      C       5.8542945227     0.7217088498     0.9383668081
   22      C       4.3196613558     0.6414245051     1.3083189449
   23      O       4.0863077704    -0.8054812150     1.5226214406
   24      H       4.2131906660    -0.1868643067    -1.7719350987
   25      H       3.8786340098     1.8204836681    -0.5531295818
   26      H       4.5136132082    -2.3154797393     0.0753931465
   27      H       6.7532240960    -1.2974416992     0.6634084860
   28      H       6.4043943267    -0.4662421010    -0.8840730962
   29      H       6.4680132208     0.7447913368     1.8526490078
   30      H       6.0900788985     1.6110602223     0.3322425545
   31      H       4.0144555999     1.2186663509     2.2014393878
   32      O      -0.8959025400    -0.4434482362    -0.2274361505
   33      C      -1.4752235283     3.0565251987    -0.6944024126
   34      C      -4.3618057989    -0.3519188607     1.5043258569
   35      C      -5.6302267210    -1.2581329147     1.2609178603
   36      C      -5.0119232689    -2.4163583860     0.3922895783
   37      C      -3.4952947319    -1.9778448232     0.3305956513
   38      O      -3.2595988401    -1.3332421162     1.6423608689
   39      H      -4.9218628137     0.7838202083    -0.3470057809
   40      H      -3.9044096876    -0.9459737168    -1.6355749204
   41      H      -0.4723634738     2.5781994452    -0.5735399056
   42      H      -4.4012534047     0.3125626286     2.3893508930
   43      H      -6.0204152154    -1.6376342342     2.2187508722
   44      H      -6.4365887844    -0.7169358578     0.7406170229
   45      H      -5.1101679858    -3.3935334202     0.8911445553
   46      H      -5.4647134649    -2.4847986971    -0.6098268168
   47      H      -2.7709978189    -2.7996036678     0.1687753051
   48      H      -1.7004612364     3.6912859804     0.1846182927
   49      H      -1.4971468764     3.6631022902    -1.6182131482
   50      H       0.0861698552     0.7620299690     2.9806816170
   51      H      -0.3689716678     0.4954676184     1.2335671305
   52      H      -0.1251000119     2.1792909383     1.8824799422
   53      H       0.3234447328    -2.0245491293    -2.0499101680
   54      H       0.6393565335    -1.7632175950    -3.8244065049
   55      H       0.1309617664     0.6760364145    -2.0051306188
   56      H      -0.3258355428     0.4816858018    -3.7570750505
 ----------------------------------------------------------------

    9   -1510.2998664861      3.17E-09 Convergence criterion met
 Total energy in the final basis set = -1510.29986649
 Final energy is   -1510.29986648607
 **  OPTIMIZATION CONVERGED  **

                    Orbital Energies (a.u.)
 --------------------------------------------------------------

 Alpha MOs
 -- Occupied --
-18.939 -18.933 -18.928 -18.927 -18.885 -18.885 -18.876 -18.876
-18.873 -18.873 -10.106 -10.101 -10.096 -10.096 -10.062 -10.058
-10.058 -10.056 -10.056 -10.056 -10.039 -10.038 -10.036 -10.036
-10.036 -10.035 -10.019 -10.019 -10.018 -10.018  -1.015  -1.011
 -1.007  -1.003  -0.968  -0.967  -0.936  -0.936  -0.932  -0.931
 -0.762  -0.761  -0.724  -0.721  -0.709  -0.704  -0.691  -0.652
 -0.647  -0.615  -0.594  -0.577  -0.544  -0.543  -0.535  -0.534
 -0.510  -0.505  -0.478  -0.473  -0.461  -0.458  -0.450  -0.444
 -0.434  -0.430  -0.427  -0.422  -0.410  -0.404  -0.398  -0.392
 -0.382  -0.375  -0.371  -0.362  -0.358  -0.356  -0.353  -0.348
 -0.343  -0.338  -0.330  -0.328  -0.327  -0.322  -0.316  -0.309
 -0.307  -0.304  -0.302  -0.297  -0.286  -0.284  -0.283  -0.275
 -0.270  -0.259  -0.246  -0.241  -0.238  -0.232  -0.230  -0.187
 -0.175  -0.171  -0.160  -0.159  -0.154  -0.149  -0.148  -0.141
 -0.140

          Ground-State Mulliken Net Atomic Charges

     Atom                 Charge (a.u.)
  ----------------------------------------
      1 O                    -0.214500
      2 C                     0.210817
      3 C                    -0.078478
      4 C                    -0.078651
      5 C                     0.219209
      6 O                    -0.168343
      7 C                    -0.061014
      8 C                    -0.057655
      9 O                    -0.174054
     10 C                     0.206638
     11 C                    -0.078838
     12 C                    -0.077086
     13 C                     0.220920
     14 O                    -0.226424
     15 O                    -0.174297
     16 O                    -0.158678
     17 O                    -0.202217
     18 C                    -0.144162
     19 C                     0.025933
     20 C                    -0.143891
     21 C                    -0.144614
     22 C                     0.025512
     23 O                    -0.183861
     24 H                     0.086083
     25 H                     0.084005
     26 H                     0.084876
     27 H                     0.077959
     28 H                     0.072924
     29 H                     0.077950
     30 H                     0.072344
     31 H                     0.090960
     32 O                    -0.217367
     33 C                    -0.150613
     34 C                     0.023504
     35 C                    -0.143741
     36 C                    -0.144141
     37 C                     0.025446
     38 O                    -0.186924
     39 H                     0.084869
     40 H                     0.086568
     41 H                     0.111301
     42 H                     0.090146
     43 H                     0.078228
     44 H                     0.072887
     45 H                     0.078294
     46 H                     0.073295
     47 H                     0.084686
     48 H                     0.086856
     49 H                     0.081505
     50 H                     0.090367
     51 H                     0.121896
     52 H                     0.083224
     53 H                     0.099545
     54 H                     0.083867
     55 H                     0.111972
     56 H                     0.084965
  ----------------------------------------
  Sum of atomic charges =    -0.000000

                    Cartesian Multipole Moments
 -----------------------------------------------------------------
    Charge (ESU x 10^10)
                 0.0000
    Dipole Moment (Debye)
         X       0.0435      Y       0.6163      Z      -2.4566
       Tot       2.5331
    Quadrupole Moments (Debye-Ang)
        XX    -135.9140     XY       6.8865     YY    -156.6781
        XZ      -1.4516     YZ       3.9248     ZZ    -163.4198

 Total job time:  125.78s(wall), 6000.16s(cpu)
        *  Thank you very much for using Q-Chem.  Have a nice day.  *
