 Q-Chem 5.0, Q-Chem, Inc., Pleasanton, CA (2017)
 Q-Chem 5.0.1 for Intel X86 EM64T Linux

User input:
--------------------------------------------------------------
$molecule
0  1
O -3.94934 -3.66094 2.70899
C -3.26408 -4.56952 2.26188
C -3.36658 -6.02376 2.66595
C -2.48872 -6.49073 3.83862
C -1.73925 -5.4134 4.59079
O -0.55404 -5.14975 3.96535
C 0.26372 -4.2162 4.6788
C 0.56491 -4.74331 6.07793
O 1.36332 -3.79117 6.79826
C 1.72593 -4.16332 8.05092
C 2.605 -3.14432 8.73615
C 2.1839 -1.68217 8.52866
C 0.78439 -1.46793 7.9881
O 0.49967 -0.80632 7.00029
O -2.20557 -4.2584 1.46936
O -0.23049 -2.05983 8.67611
O 1.23849 -5.12233 8.63731
C -1.55934 -1.99663 8.31321
C 2.64702 -3.21947 10.27506
C 3.93905 -2.58019 10.78387
C 3.66153 -1.11543 10.50593
C 2.22038 -1.19973 9.99109
O 1.67546 -2.29285 10.6942
H 3.62559 -3.31389 8.32505
H 2.8852 -1.12042 7.87218
H 2.54847 -4.25232 10.67338
H 3.96747 -2.73184 11.88684
H 4.87449 -2.97924 10.33596
H 3.69845 -0.5625 11.47082
H 4.33678 -0.63506 9.76511
H 1.69926 -0.22567 10.12325
O -2.30931 -4.60407 5.31641
C -1.88411 -2.97869 1.06866
C -4.76368 -6.34864 3.24695
C -5.04757 -7.84656 3.13165
C -4.12052 -8.39049 4.19665
C -3.56286 -7.08361 4.76869
O -4.62452 -6.17285 4.63406
H -3.24678 -6.62816 1.7389
H -1.74992 -7.26645 3.53508
H -1.67014 -2.34315 1.95462
H -5.5832 -5.77369 2.76182
H -6.09853 -8.0101 3.46203
H -4.91192 -8.27731 2.11634
H -4.7339 -8.91588 4.96223
H -3.31502 -9.06232 3.82884
H -3.18365 -7.24381 5.80255
H -2.72008 -2.53975 0.4831
H -0.97894 -3.01471 0.42853
H -2.16393 -2.56783 9.04699
H -1.70142 -2.44506 7.30657
H -1.90521 -0.94097 8.30758
H -0.36072 -4.9235 6.66248
H 1.11538 -5.70607 5.98009
H -0.24667 -3.22879 4.74547
H 1.21431 -4.07048 4.12368
$end

$opt
CONSTRAINT
tors           1           2           3           4     -90.184
tors           3           4           5           6     -85.647
tors           4           5           6           7    -175.215
tors           5           6           7           8     +58.496
tors           6           7           8           9    -178.867
tors           7           8           9          10    -178.425
tors           8           9          10          11    +177.869
tors           9          10          11          12     +41.694
tors          11          12          13          14    -126.439
ENDCONSTRAINT
$end

$rem
JOBTYPE                   OPT
METHOD                    B3LYP
DFT_D                     d3_op
BASIS                     STO-3G
GEOM_OPT_MAX_CYCLES       100
GEOM_OPT_TOL_GRADIENT     300
GEOM_OPT_TOL_DISPLACEMENT 1200
GEOM_OPT_TOL_ENERGY       100
SYMMETRY                  False
THRESH                    12
SCF_CONVERGENCE           8
MAX_SUB_FILE_NUM          128
MEM_STATIC                400
MEM_TOTAL                 4000
$end
--------------------------------------------------------------

   15   -1510.1474271451      6.86E-09 Convergence criterion met
 Total energy in the final basis set = -1510.14742715
   14   -1510.2174567310      5.47E-09 Convergence criterion met
 Total energy in the final basis set = -1510.21745673
   15   -1510.2555815109      1.18E-09 Convergence criterion met
 Total energy in the final basis set = -1510.25558151
   14   -1510.2735766118      9.79E-09 Convergence criterion met
 Total energy in the final basis set = -1510.27357661
   14   -1510.2804421344      4.89E-09 Convergence criterion met
 Total energy in the final basis set = -1510.28044213
   13   -1510.2829320138      7.49E-09 Convergence criterion met
 Total energy in the final basis set = -1510.28293201
   14   -1510.2835889052      3.19E-09 Convergence criterion met
 Total energy in the final basis set = -1510.28358891
   13   -1510.2841881354      3.53E-09 Convergence criterion met
   11   -1510.2849321013      4.20E-09 Convergence criterion met
 Total energy in the final basis set = -1510.28493210
   11   -1510.2849388989      4.12E-09 Convergence criterion met
 Total energy in the final basis set = -1510.28493890
   11   -1510.2849429396      2.51E-09 Convergence criterion met
 Total energy in the final basis set = -1510.28494294
   10   -1510.2849467245      9.15E-09 Convergence criterion met
 Total energy in the final basis set = -1510.28494672
    9   -1510.2849495258      7.69E-09 Convergence criterion met
 Total energy in the final basis set = -1510.28494953
   10   -1510.2849505741      5.45E-09 Convergence criterion met
 Total energy in the final basis set = -1510.28495057

             Standard Nuclear Orientation (Angstroms)
    I     Atom           X                Y                Z
 ----------------------------------------------------------------
    1      O      -3.6981146961     1.7531468619     1.4611917926
    2      C      -4.0572046052     1.4560191880     0.3017572420
    3      C      -4.7637284154     0.1416597012    -0.1817843134
    4      C      -3.7220011914    -0.9815982416    -0.6234750969
    5      C      -2.2343172055    -0.5371377068    -0.4086769817
    6      O      -1.8135288110     0.1995144130    -1.5655295500
    7      C      -0.3749367529     0.5516852782    -1.4747613138
    8      C       0.5817816964    -0.6851625811    -1.3316161684
    9      O       1.9297702696    -0.0867252700    -1.2331883936
   10      C       2.9466808966    -1.0887158367    -1.1315771384
   11      C       4.3205872685    -0.3364187895    -1.0899157928
   12      C       4.2910540733     0.9629932794    -0.1753654350
   13      C       2.9220950817     1.2291018115     0.5552709612
   14      O       2.2553219027     2.2870219723     0.5168332572
   15      O      -3.8343585351     2.2826798547    -0.8469348891
   16      O       2.6069202868     0.1006870299     1.3835876002
   17      O       2.7303265918    -2.3173499408    -1.1177047124
   18      C       1.3263911163     0.3239205371     2.0979400855
   19      C       5.4409564632    -1.1984701639    -0.3769269656
   20      C       6.8471273472    -0.5819958593    -0.7406655544
   21      C       6.8375819723     0.7260885845     0.1348210382
   22      C       5.4400568662     0.5998378106     0.8636383979
   23      O       5.2763437020    -0.8589027825     1.0561052437
   24      H       4.6031087184    -0.0793770623    -2.1278224070
   25      H       4.5333772957     1.8699964963    -0.7564466494
   26      H       5.3335030651    -2.2897229771    -0.5335247072
   27      H       7.6563622706    -1.2652022560    -0.4371202455
   28      H       6.9456780585    -0.3746871490    -1.8182976617
   29      H       7.6568297479     0.7266868347     0.8713321310
   30      H       6.9072299311     1.6435873732    -0.4712189200
   31      H       5.3659622687     1.1292354172     1.8332097472
   32      O      -1.5192347966    -0.7526682362     0.5959834333
   33      C      -3.0693835411     3.4909490015    -0.4605958856
   34      C      -5.5138458497    -0.5994109617     1.0032269313
   35      C      -6.4972385165    -1.6644454197     0.3762949776
   36      C      -5.4831957633    -2.7736659517    -0.0928851746
   37      C      -4.1089291643    -2.1501735710     0.3736640689
   38      O      -4.4537231961    -1.4289365170     1.6201702569
   39      H      -5.4416890149     0.3925600883    -1.0167768336
   40      H      -3.8626578444    -1.2564601874    -1.6838132484
   41      H      -2.0724457418     3.2266787179    -0.0520026460
   42      H      -5.9591002461     0.0789239815     1.7563518198
   43      H      -7.1876315838    -2.0484249129     1.1441730249
   44      H      -7.0890986880    -1.2476837648    -0.4542859683
   45      H      -5.6650835447    -3.7309717821     0.4208923983
   46      H      -5.5134951688    -2.9452070528    -1.1808384331
   47      H      -3.2940789462    -2.8754795913     0.5620866331
   48      H      -3.6107403645     4.0942323079     0.2963833500
   49      H      -2.9436606846     4.0821019911    -1.3861969728
   50      H       1.3861015596    -0.2474066016     3.0426069429
   51      H       0.4602998601    -0.0448799584     1.5058807940
   52      H       1.1784285633     1.4010944337     2.3108658180
   53      H       0.3315585084    -1.2642197352    -0.4188704685
   54      H       0.5013443374    -1.3558227900    -2.2144248498
   55      H      -0.1906110713     1.2334135376    -0.6147602091
   56      H      -0.1492111175     1.0978908515    -2.4120861241
 ----------------------------------------------------------------

    9   -1510.2849509479      7.43E-09 Convergence criterion met
 Total energy in the final basis set = -1510.28495095
 Final energy is   -1510.28495094794
 **  OPTIMIZATION CONVERGED  **

                    Orbital Energies (a.u.)
 --------------------------------------------------------------

 Alpha MOs
 -- Occupied --
-18.944 -18.938 -18.935 -18.919 -18.889 -18.887 -18.885 -18.882
-18.877 -18.859 -10.108 -10.104 -10.099 -10.091 -10.079 -10.074
-10.064 -10.061 -10.060 -10.057 -10.056 -10.044 -10.043 -10.040
-10.038 -10.032 -10.022 -10.021 -10.019 -10.018  -1.022  -1.017
 -1.010  -0.996  -0.971  -0.967  -0.947  -0.942  -0.936  -0.923
 -0.766  -0.761  -0.730  -0.723  -0.711  -0.704  -0.699  -0.663
 -0.647  -0.620  -0.597  -0.586  -0.549  -0.545  -0.539  -0.535
 -0.514  -0.509  -0.485  -0.470  -0.467  -0.463  -0.458  -0.444
 -0.433  -0.431  -0.427  -0.414  -0.411  -0.405  -0.400  -0.399
 -0.392  -0.385  -0.375  -0.364  -0.362  -0.359  -0.353  -0.351
 -0.347  -0.342  -0.335  -0.332  -0.332  -0.328  -0.321  -0.312
 -0.308  -0.307  -0.304  -0.298  -0.292  -0.288  -0.283  -0.278
 -0.275  -0.261  -0.253  -0.250  -0.238  -0.235  -0.231  -0.189
 -0.181  -0.176  -0.164  -0.160  -0.158  -0.151  -0.145  -0.142
 -0.140

          Ground-State Mulliken Net Atomic Charges

     Atom                 Charge (a.u.)
  ----------------------------------------
      1 O                    -0.207455
      2 C                     0.203989
      3 C                    -0.077951
      4 C                    -0.077705
      5 C                     0.208367
      6 O                    -0.167037
      7 C                    -0.049397
      8 C                    -0.052773
      9 O                    -0.175242
     10 C                     0.219189
     11 C                    -0.078483
     12 C                    -0.078603
     13 C                     0.213932
     14 O                    -0.226320
     15 O                    -0.168577
     16 O                    -0.172761
     17 O                    -0.207404
     18 C                    -0.138328
     19 C                     0.024381
     20 C                    -0.143802
     21 C                    -0.144212
     22 C                     0.025877
     23 O                    -0.185293
     24 H                     0.084120
     25 H                     0.082968
     26 H                     0.089654
     27 H                     0.078038
     28 H                     0.072332
     29 H                     0.077707
     30 H                     0.073114
     31 H                     0.083204
     32 O                    -0.208854
     33 C                    -0.128681
     34 C                     0.025482
     35 C                    -0.143725
     36 C                    -0.144173
     37 C                     0.025680
     38 O                    -0.184108
     39 H                     0.086613
     40 H                     0.087129
     41 H                     0.089078
     42 H                     0.087343
     43 H                     0.078731
     44 H                     0.073329
     45 H                     0.078969
     46 H                     0.073193
     47 H                     0.086961
     48 H                     0.089587
     49 H                     0.090817
     50 H                     0.088482
     51 H                     0.093287
     52 H                     0.091523
     53 H                     0.102609
     54 H                     0.085857
     55 H                     0.095065
     56 H                     0.094274
  ----------------------------------------
  Sum of atomic charges =    -0.000000

                    Cartesian Multipole Moments
 -----------------------------------------------------------------
    Charge (ESU x 10^10)
                 0.0000
    Dipole Moment (Debye)
         X      -0.7850      Y       0.7609      Z      -3.4956
       Tot       3.6626
    Quadrupole Moments (Debye-Ang)
        XX    -137.2844     XY       7.7577     YY    -160.9811
        XZ       0.5741     YZ       1.9843     ZZ    -162.4220

 Total job time:  68.52s(wall), 3260.33s(cpu)
        *  Thank you very much for using Q-Chem.  Have a nice day.  *
