 Q-Chem 5.0, Q-Chem, Inc., Pleasanton, CA (2017)
 Q-Chem 5.0.1 for Intel X86 EM64T Linux

User input:
--------------------------------------------------------------
$molecule
0  1
O -3.94934 -3.66094 2.70899
C -3.26408 -4.56952 2.26188
C -3.36658 -6.02376 2.66595
C -2.47373 -6.49548 3.82533
C -1.70912 -5.42196 4.56764
O -0.52693 -5.17036 3.9316
C 0.26852 -4.18049 4.59242
C 0.86807 -4.7559 5.87131
O 1.59372 -3.73495 6.57413
C 2.17669 -4.12742 7.73398
C 2.93119 -3.01333 8.41969
C 2.2223 -1.65109 8.41206
C 0.74986 -1.67443 8.05416
O 0.23605 -1.06543 7.12697
O -2.20476 -4.25821 1.47044
O -0.04877 -2.46607 8.82139
O 1.95108 -5.20511 8.2714
C -1.40405 -2.62826 8.62638
C 3.18482 -3.19614 9.92953
C 4.39417 -2.36069 10.34962
C 3.82296 -0.95915 10.24775
C 2.36504 -1.27906 9.89892
O 2.12525 -2.5071 10.54791
H 3.90476 -2.94575 7.88383
H 2.71546 -0.92421 7.72877
H 3.32779 -4.2559 10.23217
H 4.58926 -2.58602 11.42274
H 5.32237 -2.53835 9.76502
H 3.88949 -0.4798 11.24965
H 4.29501 -0.30751 9.48085
H 1.69757 -0.43624 10.1849
O -2.09479 -4.87778 5.59755
C -1.88236 -2.97841 1.07078
C -4.7632 -6.33438 3.25028
C -5.05935 -7.83007 3.1451
C -4.13864 -8.37096 4.21465
C -3.56111 -7.06361 4.76598
O -4.61391 -6.144 4.63241
H -3.25234 -6.62515 1.7364
H -1.76239 -7.3097 3.56038
H -1.66879 -2.34351 1.95728
H -5.57966 -5.75659 2.76311
H -6.11222 -7.98682 3.47252
H -4.92062 -8.26517 2.13203
H -4.75888 -8.871 4.9918
H -3.34767 -9.06505 3.85705
H -3.18468 -7.22661 5.80051
H -2.71762 -2.53873 0.48476
H -0.97663 -3.0145 0.43145
H -1.79998 -3.32874 9.38979
H -1.59617 -3.05168 7.61801
H -1.92501 -1.65258 8.72974
H 0.072 -5.13985 6.54174
H 1.54144 -5.60166 5.60588
H -0.32845 -3.26161 4.79558
H 1.10553 -3.88846 3.92354
$end

$opt
CONSTRAINT
tors           1           2           3           4     -91.047
tors           3           4           5           6     -86.152
tors           4           5           6           7    -178.809
tors           5           6           7           8     +72.794
tors           6           7           8           9    -176.305
tors           7           8           9          10    -179.965
tors           8           9          10          11    +179.603
tors           9          10          11          12     +41.694
tors          11          12          13          14    -121.845
ENDCONSTRAINT
$end

$rem
JOBTYPE                   OPT
METHOD                    B3LYP
DFT_D                     d3_op
BASIS                     STO-3G
GEOM_OPT_MAX_CYCLES       100
GEOM_OPT_TOL_GRADIENT     300
GEOM_OPT_TOL_DISPLACEMENT 1200
GEOM_OPT_TOL_ENERGY       100
SYMMETRY                  False
THRESH                    12
SCF_CONVERGENCE           8
MAX_SUB_FILE_NUM          128
MEM_STATIC                400
MEM_TOTAL                 4000
$end
--------------------------------------------------------------

   15   -1510.1576243680      6.53E-09 Convergence criterion met
 Total energy in the final basis set = -1510.15762437
   14   -1510.2267195561      6.60E-09 Convergence criterion met
 Total energy in the final basis set = -1510.22671956
   14   -1510.2638474567      8.53E-09 Convergence criterion met
 Total energy in the final basis set = -1510.26384746
   14   -1510.2802055626      9.18E-09 Convergence criterion met
 Total energy in the final basis set = -1510.28020556
   14   -1510.2845032269      6.60E-09 Convergence criterion met
 Total energy in the final basis set = -1510.28450323
   13   -1510.2850719897      6.27E-09 Convergence criterion met
 Total energy in the final basis set = -1510.28507199
   13   -1510.2865118024      4.46E-09 Convergence criterion met
 Total energy in the final basis set = -1510.28651180
   13   -1510.2868579830      3.62E-09 Convergence criterion met
   11   -1510.2878377632      2.52E-09 Convergence criterion met
 Total energy in the final basis set = -1510.28783776
    9   -1510.2878402858      6.52E-09 Convergence criterion met
 Total energy in the final basis set = -1510.28784029
    9   -1510.2878413758      5.51E-09 Convergence criterion met
 Total energy in the final basis set = -1510.28784138
    9   -1510.2878426219      5.37E-09 Convergence criterion met
 Total energy in the final basis set = -1510.28784262
    9   -1510.2878446915      4.47E-09 Convergence criterion met
 Total energy in the final basis set = -1510.28784469
   10   -1510.2878461810      7.27E-09 Convergence criterion met
 Total energy in the final basis set = -1510.28784618

             Standard Nuclear Orientation (Angstroms)
    I     Atom           X                Y                Z
 ----------------------------------------------------------------
    1      O      -3.7803553858     1.5967559433     1.6684491061
    2      C      -4.0708068349     1.4174558564     0.4664763462
    3      C      -4.7533777165     0.1609121488    -0.1797200170
    4      C      -3.6879478140    -0.9135703247    -0.6837550598
    5      C      -2.2115286803    -0.4489011929    -0.4474751751
    6      O      -1.8064709325     0.3485417219    -1.5678783773
    7      C      -0.4007163660     0.7869348711    -1.3981336880
    8      C       0.6223816876    -0.3843199522    -1.6093865897
    9      O       1.9380115503     0.2216103103    -1.3118150827
   10      C       3.0006139033    -0.7247370834    -1.4592672981
   11      C       4.3359022085     0.0269281488    -1.1311338922
   12      C       4.2320291937     1.0000941873     0.1217222567
   13      C       2.8247530610     1.0275927225     0.8276845694
   14      O       2.0962833305     2.0304933072     0.9975497740
   15      O      -3.7678971769     2.3464936729    -0.5813303065
   16      O       2.5385180994    -0.2799716165     1.3358621654
   17      O       2.8442820278    -1.9122258477    -1.8094491147
   18      C       1.2400662206    -0.2887565890     2.0537633408
   19      C       5.4638641017    -0.9780304356    -0.6554826984
   20      C       6.8582657618    -0.2456345923    -0.7573684166
   21      C       6.7701298025     0.7399131819     0.4665945848
   22      C       5.3518764493     0.3698482957     1.0592279050
   23      O       5.2357375410    -1.0839148740     0.8044485124
   24      H       4.6436170239     0.5851699532    -2.0351078436
   25      H       4.4754471313     2.0386574537    -0.1628317435
   26      H       5.4025996649    -1.9758599374    -1.1324042667
   27      H       7.6812589071    -0.9675328480    -0.6350326065
   28      H       6.9865403316     0.2771426890    -1.7186955331
   29      H       7.5610522569     0.5366813038     1.2058729643
   30      H       6.8303825466     1.7983449351     0.1667885563
   31      H       5.2216916138     0.5850856725     2.1374490984
   32      O      -1.4833091371    -0.7028159137     0.5384838520
   33      C      -3.0133193268     3.4975603103    -0.0336586137
   34      C      -5.5348760846    -0.6905055307     0.9059066238
   35      C      -6.4604662351    -1.7311397184     0.1616365078
   36      C      -5.4004882714    -2.7869105848    -0.3285997601
   37      C      -4.0633629002    -2.1559581977     0.2257790256
   38      O      -4.4742260773    -1.5334201261     1.5046003242
   39      H      -5.4000866193     0.4924270625    -1.0113245668
   40      H      -3.8212579405    -1.1209719776    -1.7604548221
   41      H      -2.0571703855     3.1740614490     0.4263921416
   42      H      -6.0291850257    -0.0836029576     1.6888083361
   43      H      -7.1778147202    -2.1786354004     0.8676927300
   44      H      -7.0220170029    -1.2723651260    -0.6680783800
   45      H      -5.5751361621    -3.7750257168     0.1258202743
   46      H      -5.3853521773    -2.8993104561    -1.4244855410
   47      H      -3.2312898498    -2.8668823972     0.3931104478
   48      H      -3.6010463924     4.0485527802     0.7287228105
   49      H      -2.8047709075     4.1618045963    -0.8922647486
   50      H       1.2581600565    -1.1821590695     2.7044895665
   51      H       0.3730830346    -0.3657906013     1.3588089462
   52      H       1.1180165984     0.6219824263     2.6728953871
   53      H       0.4055153072    -1.2233669545    -0.9147476608
   54      H       0.5806772255    -0.7685519722    -2.6517574147
   55      H      -0.2358539508     1.2246472679    -0.3895452395
   56      H      -0.2383536141     1.5720925101    -2.1626350371
 ----------------------------------------------------------------

    9   -1510.2878471970      7.73E-09 Convergence criterion met
 Total energy in the final basis set = -1510.28784720
 Final energy is   -1510.28784719696
 **  OPTIMIZATION CONVERGED  **

                    Orbital Energies (a.u.)
 --------------------------------------------------------------

 Alpha MOs
 -- Occupied --
-18.946 -18.939 -18.935 -18.917 -18.890 -18.889 -18.884 -18.881
-18.877 -18.856 -10.110 -10.104 -10.099 -10.089 -10.079 -10.077
-10.064 -10.062 -10.061 -10.056 -10.056 -10.044 -10.041 -10.039
-10.037 -10.031 -10.022 -10.021 -10.018 -10.017  -1.024  -1.018
 -1.011  -0.994  -0.971  -0.966  -0.948  -0.942  -0.936  -0.921
 -0.767  -0.761  -0.731  -0.723  -0.712  -0.704  -0.699  -0.664
 -0.645  -0.620  -0.597  -0.585  -0.550  -0.544  -0.539  -0.534
 -0.515  -0.508  -0.487  -0.470  -0.468  -0.463  -0.458  -0.444
 -0.433  -0.431  -0.427  -0.415  -0.412  -0.402  -0.401  -0.400
 -0.396  -0.385  -0.373  -0.363  -0.362  -0.358  -0.354  -0.351
 -0.346  -0.341  -0.335  -0.333  -0.331  -0.327  -0.321  -0.313
 -0.308  -0.307  -0.304  -0.298  -0.293  -0.287  -0.283  -0.278
 -0.275  -0.263  -0.254  -0.249  -0.237  -0.235  -0.230  -0.190
 -0.181  -0.177  -0.168  -0.159  -0.158  -0.152  -0.145  -0.141
 -0.138

          Ground-State Mulliken Net Atomic Charges

     Atom                 Charge (a.u.)
  ----------------------------------------
      1 O                    -0.206356
      2 C                     0.203666
      3 C                    -0.077665
      4 C                    -0.077770
      5 C                     0.209539
      6 O                    -0.166216
      7 C                    -0.049359
      8 C                    -0.049130
      9 O                    -0.173918
     10 C                     0.218249
     11 C                    -0.078459
     12 C                    -0.078983
     13 C                     0.212895
     14 O                    -0.226246
     15 O                    -0.169173
     16 O                    -0.173547
     17 O                    -0.208144
     18 C                    -0.141013
     19 C                     0.024288
     20 C                    -0.143920
     21 C                    -0.144288
     22 C                     0.026013
     23 O                    -0.185515
     24 H                     0.083977
     25 H                     0.082442
     26 H                     0.089432
     27 H                     0.077905
     28 H                     0.072249
     29 H                     0.077534
     30 H                     0.073002
     31 H                     0.083302
     32 O                    -0.208451
     33 C                    -0.129065
     34 C                     0.025722
     35 C                    -0.144098
     36 C                    -0.143863
     37 C                     0.025584
     38 O                    -0.184094
     39 H                     0.086912
     40 H                     0.087360
     41 H                     0.089972
     42 H                     0.087506
     43 H                     0.078944
     44 H                     0.073484
     45 H                     0.079096
     46 H                     0.073330
     47 H                     0.087104
     48 H                     0.089603
     49 H                     0.090637
     50 H                     0.086648
     51 H                     0.098591
     52 H                     0.086963
     53 H                     0.095920
     54 H                     0.087642
     55 H                     0.099599
     56 H                     0.094162
  ----------------------------------------
  Sum of atomic charges =    -0.000000

                    Cartesian Multipole Moments
 -----------------------------------------------------------------
    Charge (ESU x 10^10)
                 0.0000
    Dipole Moment (Debye)
         X      -0.8542      Y       1.2003      Z      -3.2087
       Tot       3.5307
    Quadrupole Moments (Debye-Ang)
        XX    -138.0797     XY       9.4171     YY    -160.3579
        XZ       3.4196     YZ       0.0637     ZZ    -162.9223

 Total job time:  65.18s(wall), 3098.61s(cpu)
        *  Thank you very much for using Q-Chem.  Have a nice day.  *
