 Q-Chem 5.0, Q-Chem, Inc., Pleasanton, CA (2017)
 Q-Chem 5.0.1 for Intel X86 EM64T Linux

User input:
--------------------------------------------------------------
$molecule
0  1
O -3.7803553858 1.5967559433 1.6684491061
C -4.0708068349 1.4174558564 0.4664763462
C -4.7533777165 0.1609121488 -0.179720017
C -3.687947814 -0.9135703247 -0.6837550598
C -2.2115286803 -0.4489011929 -0.4474751751
O -1.8064709325 0.3485417219 -1.5678783773
C -0.400716366 0.7869348711 -1.398133688
C 0.6223816876 -0.3843199522 -1.6093865897
O 1.9380115503 0.2216103103 -1.3118150827
C 3.0006139033 -0.7247370834 -1.4592672981
C 4.3359022085 0.0269281488 -1.1311338922
C 4.2320291937 1.0000941873 0.1217222567
C 2.824753061 1.0275927225 0.8276845694
O 2.0962833305 2.0304933072 0.997549774
O -3.7678971769 2.3464936729 -0.5813303065
O 2.5385180994 -0.2799716165 1.3358621654
O 2.8442820278 -1.9122258477 -1.8094491147
C 1.2400662206 -0.288756589 2.0537633408
C 5.4638641017 -0.9780304356 -0.6554826984
C 6.8582657618 -0.2456345923 -0.7573684166
C 6.7701298025 0.7399131819 0.4665945848
C 5.3518764493 0.3698482957 1.059227905
O 5.235737541 -1.083914874 0.8044485124
H 4.6436170239 0.5851699532 -2.0351078436
H 4.4754471313 2.0386574537 -0.1628317435
H 5.4025996649 -1.9758599374 -1.1324042667
H 7.6812589071 -0.967532848 -0.6350326065
H 6.9865403316 0.277142689 -1.7186955331
H 7.5610522569 0.5366813038 1.2058729643
H 6.8303825466 1.7983449351 0.1667885563
H 5.2216916138 0.5850856725 2.1374490984
O -1.4833091371 -0.7028159137 0.538483852
C -3.0133193268 3.4975603103 -0.0336586137
C -5.5348760846 -0.6905055307 0.9059066238
C -6.4604662351 -1.7311397184 0.1616365078
C -5.4004882714 -2.7869105848 -0.3285997601
C -4.0633629002 -2.1559581977 0.2257790256
O -4.4742260773 -1.5334201261 1.5046003242
H -5.4000866193 0.4924270625 -1.0113245668
H -3.8212579405 -1.1209719776 -1.7604548221
H -2.0571703855 3.174061449 0.4263921416
H -6.0291850257 -0.0836029576 1.6888083361
H -7.1778147202 -2.1786354004 0.86769273
H -7.0220170029 -1.272365126 -0.66807838
H -5.5751361621 -3.7750257168 0.1258202743
H -5.3853521773 -2.8993104561 -1.424485541
H -3.2312898498 -2.8668823972 0.3931104478
H -3.6010463924 4.0485527802 0.7287228105
H -2.8047709075 4.1618045963 -0.8922647486
H 1.2581600565 -1.1821590695 2.7044895665
H 0.3730830346 -0.3657906013 1.3588089462
H 1.1180165984 0.6219824263 2.6728953871
H 0.4055153072 -1.2233669545 -0.9147476608
H 0.5806772255 -0.7685519722 -2.6517574147
H -0.2358539508 1.2246472679 -0.3895452395
H -0.2383536141 1.5720925101 -2.1626350371
$end

$rem
JOBTYPE                   OPT
METHOD                    B3LYP
DFT_D                     d3_op
BASIS                     STO-3G
GEOM_OPT_MAX_CYCLES       100
GEOM_OPT_TOL_GRADIENT     300
GEOM_OPT_TOL_DISPLACEMENT 1200
GEOM_OPT_TOL_ENERGY       100
SYMMETRY                  False
THRESH                    12
SCF_CONVERGENCE           8
MAX_SUB_FILE_NUM          128
MEM_STATIC                400
MEM_TOTAL                 4000
$end
--------------------------------------------------------------

   16   -1510.2880718157      5.06E-09 Convergence criterion met
 Total energy in the final basis set = -1510.28807182
   15   -1510.2776009501      3.05E-09 Convergence criterion met
 Total energy in the final basis set = -1510.27760095
   14   -1510.2877309787      8.88E-09 Convergence criterion met
 Total energy in the final basis set = -1510.28773098
   15   -1510.2885440133      1.80E-09 Convergence criterion met
 Total energy in the final basis set = -1510.28854401
   13   -1510.2892408998      7.08E-09 Convergence criterion met
 Total energy in the final basis set = -1510.28924090
   13   -1510.2895244890      7.45E-09 Convergence criterion met
 Total energy in the final basis set = -1510.28952449
   13   -1510.2900539791      3.21E-09 Convergence criterion met
 Total energy in the final basis set = -1510.29005398
   14   -1510.2901960390      5.32E-09 Convergence criterion met
   12   -1510.2998545822      4.98E-09 Convergence criterion met
 Total energy in the final basis set = -1510.29985458
   11   -1510.2998566368      9.36E-09 Convergence criterion met
 Total energy in the final basis set = -1510.29985664
   11   -1510.2998606467      5.54E-09 Convergence criterion met
 Total energy in the final basis set = -1510.29986065
   11   -1510.2998634223      5.63E-09 Convergence criterion met
 Total energy in the final basis set = -1510.29986342
   10   -1510.2998670372      8.56E-09 Convergence criterion met
 Total energy in the final basis set = -1510.29986704
   11   -1510.2998718602      2.69E-09 Convergence criterion met
 Total energy in the final basis set = -1510.29987186

             Standard Nuclear Orientation (Angstroms)
    I     Atom           X                Y                Z
 ----------------------------------------------------------------
    1      O      -2.7873950021     2.0117150140     1.6562788693
    2      C      -3.0540005592     1.5497647964     0.5261093924
    3      C      -4.0123294809     0.3519888085     0.1841455832
    4      C      -3.3397555698    -0.7432386814    -0.7499092629
    5      C      -1.8401229071    -0.4260461034    -1.0684291202
    6      O      -1.6839553907    -0.2024715522    -2.4714189477
    7      C      -0.2790667934     0.1788757032    -2.7646163401
    8      C       0.6667803132    -1.0789117349    -2.8996466472
    9      O       2.0485091784    -0.6646714788    -2.5555881653
   10      C       2.3448981518    -1.0247020632    -1.1961278115
   11      C       3.6888406433    -0.3298610762    -0.8002995967
   12      C       3.4657855105     0.9730926059     0.0928943977
   13      C       1.9434803561     1.2364223960     0.3993379509
   14      O       1.1037348052     1.6596396013    -0.4373034212
   15      O      -2.5321799160     2.0460790811    -0.7068853705
   16      O       1.6607895471     0.9155509335     1.7456511250
   17      O       1.6226267573    -1.7593129884    -0.4881041086
   18      C       0.2041700975     1.0047886247     2.0332297925
   19      C       4.5664163314    -1.2161337943     0.1824825679
   20      C       6.0359215002    -0.6388878395     0.1782970736
   21      C       5.8434156509     0.6771364179     1.0195429074
   22      C       4.3067877317     0.5920991558     1.3799264301
   23      O       4.0597270492    -0.8610992527     1.5267989198
   24      H       4.2322553510    -0.0787318713    -1.7281338411
   25      H       3.8680110861     1.8645204148    -0.4218258993
   26      H       4.4811058687    -2.3070453628     0.0135931926
   27      H       6.7245537806    -1.3393055877     0.6770335537
   28      H       6.4058534505    -0.4446824714    -0.8411820516
   29      H       6.4535205899     0.6622312510     1.9364209796
   30      H       6.0870392174     1.5874967141     0.4487465731
   31      H       4.0037611596     1.1302615999     2.2978339623
   32      O      -0.8863579100    -0.4053953990    -0.2569941845
   33      C      -1.5015777425     3.0881913845    -0.4704070341
   34      C      -4.3474505890    -0.5050030991     1.4730163709
   35      C      -5.6016446236    -1.4109368207     1.1599874678
   36      C      -4.9642351915    -2.4915103680     0.2095875279
   37      C      -3.4551485553    -2.0251363723     0.1822420089
   38      O      -3.2292385989    -1.4755553541     1.5380511916
   39      H      -4.9252231913     0.7592212941    -0.2885186211
   40      H      -3.8862869657    -0.8599886786    -1.7018986372
   41      H      -1.7304396082     3.6644075177     0.4473114248
   42      H      -4.3975422977     0.0907727833     2.4051936771
   43      H      -5.9872110884    -1.8663307828     2.0860220330
   44      H      -6.4153174041    -0.8452952080     0.6786825422
   45      H      -5.0469731740    -3.5043155403     0.6349375081
   46      H      -5.4145494141    -2.4934961810    -0.7959905662
   47      H      -2.7173179246    -2.8201790233    -0.0401651067
   48      H      -1.5203272878     3.7548388237    -1.3518925068
   49      H      -0.4978782498     2.6048822243    -0.3778672991
   50      H       0.0748395188     0.5634728843     3.0375662474
   51      H      -0.3754820254     0.4277620962     1.2744534968
   52      H      -0.1379360653     2.0587234771     2.0486678034
   53      H       0.3417154141    -1.8718200686    -2.1913630112
   54      H       0.6814905295    -1.4726328551    -3.9352262145
   55      H       0.1352427294     0.8230325299    -1.9518574659
   56      H      -0.3151802145     0.7458360159    -3.7149939412
 ----------------------------------------------------------------

   10   -1510.2998719528      9.67E-09 Convergence criterion met
 Total energy in the final basis set = -1510.29987195
 Final energy is   -1510.29987195282
 **  OPTIMIZATION CONVERGED  **

                    Orbital Energies (a.u.)
 --------------------------------------------------------------

 Alpha MOs
 -- Occupied --
-18.939 -18.933 -18.928 -18.928 -18.885 -18.885 -18.876 -18.876
-18.873 -18.872 -10.105 -10.100 -10.096 -10.096 -10.062 -10.058
-10.058 -10.056 -10.056 -10.056 -10.039 -10.038 -10.036 -10.036
-10.036 -10.035 -10.019 -10.019 -10.018 -10.018  -1.015  -1.010
 -1.007  -1.003  -0.968  -0.967  -0.936  -0.936  -0.932  -0.931
 -0.762  -0.761  -0.724  -0.721  -0.709  -0.703  -0.691  -0.652
 -0.647  -0.615  -0.594  -0.577  -0.544  -0.543  -0.535  -0.534
 -0.510  -0.505  -0.478  -0.473  -0.461  -0.458  -0.450  -0.443
 -0.434  -0.430  -0.426  -0.422  -0.409  -0.404  -0.398  -0.392
 -0.382  -0.375  -0.371  -0.362  -0.358  -0.356  -0.353  -0.348
 -0.343  -0.338  -0.330  -0.328  -0.327  -0.322  -0.316  -0.309
 -0.307  -0.304  -0.302  -0.297  -0.286  -0.284  -0.283  -0.275
 -0.269  -0.259  -0.246  -0.241  -0.238  -0.232  -0.230  -0.186
 -0.175  -0.171  -0.161  -0.158  -0.154  -0.149  -0.148  -0.141
 -0.140

          Ground-State Mulliken Net Atomic Charges

     Atom                 Charge (a.u.)
  ----------------------------------------
      1 O                    -0.214266
      2 C                     0.210852
      3 C                    -0.078447
      4 C                    -0.078673
      5 C                     0.219163
      6 O                    -0.168395
      7 C                    -0.061122
      8 C                    -0.057535
      9 O                    -0.174015
     10 C                     0.206792
     11 C                    -0.078882
     12 C                    -0.076989
     13 C                     0.220647
     14 O                    -0.226069
     15 O                    -0.174441
     16 O                    -0.158795
     17 O                    -0.202442
     18 C                    -0.144079
     19 C                     0.025790
     20 C                    -0.143754
     21 C                    -0.144766
     22 C                     0.025615
     23 O                    -0.183814
     24 H                     0.085978
     25 H                     0.084033
     26 H                     0.085070
     27 H                     0.077949
     28 H                     0.072860
     29 H                     0.077904
     30 H                     0.072342
     31 H                     0.090709
     32 O                    -0.217472
     33 C                    -0.150246
     34 C                     0.023600
     35 C                    -0.143813
     36 C                    -0.144097
     37 C                     0.025502
     38 O                    -0.186832
     39 H                     0.084793
     40 H                     0.086570
     41 H                     0.086568
     42 H                     0.090167
     43 H                     0.078236
     44 H                     0.072912
     45 H                     0.078243
     46 H                     0.073262
     47 H                     0.084725
     48 H                     0.081596
     49 H                     0.111208
     50 H                     0.090384
     51 H                     0.121868
     52 H                     0.083119
     53 H                     0.099305
     54 H                     0.083872
     55 H                     0.112332
     56 H                     0.084976
  ----------------------------------------
  Sum of atomic charges =    -0.000000

                    Cartesian Multipole Moments
 -----------------------------------------------------------------
    Charge (ESU x 10^10)
                 0.0000
    Dipole Moment (Debye)
         X       0.0587      Y       0.7399      Z      -2.4213
       Tot       2.5325
    Quadrupole Moments (Debye-Ang)
        XX    -136.0204     XY       6.9233     YY    -157.0497
        XZ      -0.9699     YZ       4.3840     ZZ    -162.9266

 Total job time:  187.62s(wall), 8952.06s(cpu)
        *  Thank you very much for using Q-Chem.  Have a nice day.  *
