 Q-Chem 5.0, Q-Chem, Inc., Pleasanton, CA (2017)
 Q-Chem 5.0.1 for Intel X86 EM64T Linux

User input:
--------------------------------------------------------------
$molecule
0  1
O -3.8887375416 1.7898858726 1.5347336214
C -4.0783370359 1.4651103373 0.3432809021
C -4.7571436693 0.1579465778 -0.1998503007
C -3.6956822075 -0.9529681885 -0.6261575228
C -2.2149445612 -0.4880473689 -0.4162012527
O -1.7919669247 0.230936811 -1.5828831403
C -0.3713983224 0.6313486905 -1.4408600451
C 0.6106209868 -0.592034135 -1.4809222065
O 1.9481615989 0.0090669097 -1.2967961115
C 2.9806916801 -0.9798259362 -1.3084278713
C 4.340680977 -0.2259895052 -1.1151425204
C 4.2660694612 0.9713213836 -0.0723858168
C 2.8630516361 1.1807013394 0.6129960057
O 2.1711168828 2.2229204024 0.5827426041
O -3.6621131636 2.2487112474 -0.7812302826
O 2.536446673 0.010826632 1.3744684834
O 2.7860239922 -2.2020362871 -1.4690757012
C 1.2325481767 0.1840036305 2.061025458
C 5.4350490813 -1.1564189005 -0.4498280453
C 6.8508398577 -0.5008021736 -0.6842894556
C 6.7961500409 0.7026385346 0.3298243182
C 5.3672141025 0.4973074168 0.9751254362
O 5.2053176033 -0.9741661368 1.0015892615
H 4.6687585573 0.1408647371 -2.1058413652
H 4.5415863114 1.9289623438 -0.5475289813
H 5.3420749455 -2.2244226551 -0.7282670215
H 7.6521633719 -1.2109830447 -0.4250850885
H 6.9915676397 -0.1742972172 -1.7270218809
H 7.5807938644 0.6198306116 1.0985333513
H 6.8895663469 1.6816960705 -0.1665561472
H 5.2440211662 0.9179016464 1.9918468499
O -1.4955739041 -0.68497957 0.5897749593
C -2.9173339946 3.4431506878 -0.3197762218
C -5.5360751018 -0.6054090172 0.950606893
C -6.4723621016 -1.6914487211 0.2877108633
C -5.4207337564 -2.785668742 -0.1311055284
C -4.0768266031 -2.1250147914 0.3697799286
O -4.4766138362 -1.4097126758 1.602775034
H -5.4088151327 0.4215179964 -1.051955583
H -3.8280552203 -1.2350656291 -1.6857770633
H -2.0058374743 3.1599797093 0.2454267187
H -6.0212518816 0.0613551075 1.689285207
H -7.1898042182 -2.0828769245 1.0264750957
H -7.0341692211 -1.2892143076 -0.5705351354
H -5.5987255891 -3.7384895465 0.3923703168
H -5.4123453793 -2.9747708975 -1.2164918541
H -3.2484359427 -2.827666834 0.5833710738
H -3.5431641091 4.0934204831 0.3249750728
H -2.6289983492 3.9940739591 -1.2337268214
H 1.2734439002 -0.4373183905 2.9746458419
H 0.382800034 -0.1579524752 1.4278132832
H 1.0693176574 1.2460779865 2.3306469036
H 0.3781175029 -1.3035267172 -0.660826776
H 0.5384779973 -1.1301753344 -2.4509702387
H -0.2047535481 1.1939298352 -0.4965195197
H -0.1674077548 1.3040147156 -2.2972667257
$end

$rem
JOBTYPE                   OPT
METHOD                    B3LYP
DFT_D                     d3_op
BASIS                     STO-3G
GEOM_OPT_MAX_CYCLES       100
GEOM_OPT_TOL_GRADIENT     300
GEOM_OPT_TOL_DISPLACEMENT 1200
GEOM_OPT_TOL_ENERGY       100
SYMMETRY                  False
THRESH                    12
SCF_CONVERGENCE           8
MAX_SUB_FILE_NUM          128
MEM_STATIC                400
MEM_TOTAL                 4000
$end
--------------------------------------------------------------

   16   -1510.2871433491      5.15E-09 Convergence criterion met
 Total energy in the final basis set = -1510.28714335
   15   -1510.2786586108      3.14E-09 Convergence criterion met
 Total energy in the final basis set = -1510.27865861
   14   -1510.2865088091      9.76E-09 Convergence criterion met
 Total energy in the final basis set = -1510.28650881
   15   -1510.2881328091      2.22E-09 Convergence criterion met
 Total energy in the final basis set = -1510.28813281
   13   -1510.2889083829      8.12E-09 Convergence criterion met
 Total energy in the final basis set = -1510.28890838
   13   -1510.2894563288      8.15E-09 Convergence criterion met
 Total energy in the final basis set = -1510.28945633
   13   -1510.2904240143      4.94E-09 Convergence criterion met
 Total energy in the final basis set = -1510.29042401
   14   -1510.2910091932      6.86E-09 Convergence criterion met
   11   -1510.2998691113      6.42E-09 Convergence criterion met
 Total energy in the final basis set = -1510.29986911
   11   -1510.2998738139      2.13E-09 Convergence criterion met
 Total energy in the final basis set = -1510.29987381
   11   -1510.2998768132      3.16E-09 Convergence criterion met
 Total energy in the final basis set = -1510.29987681
   11   -1510.2998774963      1.74E-09 Convergence criterion met
 Total energy in the final basis set = -1510.29987750
    9   -1510.2998770758      6.98E-09 Convergence criterion met
 Total energy in the final basis set = -1510.29987708
    9   -1510.2998777241      8.77E-09 Convergence criterion met
 Total energy in the final basis set = -1510.29987772

             Standard Nuclear Orientation (Angstroms)
    I     Atom           X                Y                Z
 ----------------------------------------------------------------
    1      O      -2.7808063096     2.1200042706     1.5380477985
    2      C      -3.0403494676     1.5918399578     0.4355053198
    3      C      -4.0079656549     0.3851754083     0.1566965892
    4      C      -3.3439399812    -0.7667020896    -0.7135326710
    5      C      -1.8392113704    -0.4840975715    -1.0417093450
    6      O      -1.6782707751    -0.3302483003    -2.4536775245
    7      C      -0.2704840726     0.0266567397    -2.7629531869
    8      C       0.6684802586    -1.2413200718    -2.8346787601
    9      O       2.0538077889    -0.8147021976    -2.5216984900
   10      C       2.3522729765    -1.0924952471    -1.1433907523
   11      C       3.6979709037    -0.3783045552    -0.7902986318
   12      C       3.4772663231     0.9570634469     0.0535917909
   13      C       1.9546000694     1.2382800910     0.3416407172
   14      O       1.1194152673     1.6206088582    -0.5189393992
   15      O      -2.5041082755     2.0093847208    -0.8201612475
   16      O       1.6658176963     0.9869152982     1.7011650399
   17      O       1.6299166988    -1.7820816518    -0.3915495714
   18      C       0.2082500381     1.0960233309     1.9781256012
   19      C       4.5841247864    -1.2232117346     0.2201373450
   20      C       6.0496061582    -0.6361228721     0.1936503191
   21      C       5.8518295315     0.7021725627     0.9978165180
   22      C       4.3145610265     0.6224545514     1.3565291439
   23      O       4.0747634771    -0.8261800469     1.5514962716
   24      H       4.2320671933    -0.1639642779    -1.7326914224
   25      H       3.8855660951     1.8271344787    -0.4919306713
   26      H       4.5069473881    -2.3198627326     0.0886993382
   27      H       6.7454449836    -1.3172541591     0.7088097309
   28      H       6.4135200491    -0.4681501193    -0.8326319796
   29      H       6.4593514341     0.7137138184     1.9164595023
   30      H       6.0945513894     1.5973041839     0.4030513934
   31      H       4.0055213112     1.1897158634     2.2547053647
   32      O      -0.8867764499    -0.4362416469    -0.2299121337
   33      C      -1.4725607793     3.0611990206    -0.6373896225
   34      C      -4.3562338782    -0.3960681290     1.4888142100
   35      C      -5.6211901516    -1.3012836590     1.2231909614
   36      C      -4.9968111207    -2.4391490497     0.3325148817
   37      C      -3.4812393510    -1.9953288714     0.2851329442
   38      O      -3.2514965002    -1.3766634175     1.6103253065
   39      H      -4.9151828342     0.7741561364    -0.3414250848
   40      H      -3.8869348259    -0.9261087915    -1.6614100479
   41      H      -1.7021631463     3.6825641477     0.2500941990
   42      H      -4.4004681490     0.2503303925     2.3869177939
   43      H      -6.0126104151    -1.7017441743     2.1719321081
   44      H      -6.4279153951    -0.7520692554     0.7119510691
   45      H      -5.0942772049    -3.4269888565     0.8100775506
   46      H      -5.4456960648    -2.4873358189    -0.6725284881
   47      H      -2.7540110317    -2.8114919492     0.1089392489
   48      H      -1.4897014240     3.6821513295    -1.5516978397
   49      H      -0.4700643808     2.5813531753    -0.5189780654
   50      H       0.0746490282     0.7128985688     3.0055087453
   51      H      -0.3708988564     0.4782997610     1.2513854013
   52      H      -0.1310823056     2.1499501331     1.9323540119
   53      H       0.3438208321    -1.9930188409    -2.0826472145
   54      H       0.6752756558    -1.6904785332    -3.8474776863
   55      H       0.1466375350     0.7085106683    -1.9829486066
   56      H      -0.3017597484     0.5460394240    -3.7403697968
 ----------------------------------------------------------------

    9   -1510.2998768992      2.95E-09 Convergence criterion met
 Total energy in the final basis set = -1510.29987690
 Final energy is   -1510.29987689925
 **  OPTIMIZATION CONVERGED  **

                    Orbital Energies (a.u.)
 --------------------------------------------------------------

 Alpha MOs
 -- Occupied --
-18.939 -18.932 -18.928 -18.927 -18.885 -18.885 -18.876 -18.876
-18.873 -18.873 -10.106 -10.100 -10.096 -10.096 -10.062 -10.058
-10.058 -10.056 -10.056 -10.056 -10.039 -10.038 -10.036 -10.036
-10.036 -10.035 -10.019 -10.019 -10.018 -10.018  -1.015  -1.011
 -1.007  -1.003  -0.968  -0.967  -0.936  -0.936  -0.932  -0.931
 -0.762  -0.761  -0.724  -0.721  -0.709  -0.704  -0.691  -0.652
 -0.647  -0.615  -0.594  -0.577  -0.544  -0.543  -0.535  -0.534
 -0.510  -0.505  -0.478  -0.473  -0.461  -0.458  -0.450  -0.444
 -0.434  -0.430  -0.426  -0.422  -0.410  -0.404  -0.398  -0.392
 -0.382  -0.375  -0.371  -0.362  -0.358  -0.356  -0.353  -0.348
 -0.343  -0.338  -0.330  -0.328  -0.327  -0.322  -0.316  -0.309
 -0.307  -0.304  -0.302  -0.297  -0.286  -0.284  -0.283  -0.275
 -0.270  -0.259  -0.246  -0.241  -0.238  -0.232  -0.230  -0.187
 -0.175  -0.171  -0.161  -0.158  -0.154  -0.149  -0.148  -0.141
 -0.140

          Ground-State Mulliken Net Atomic Charges

     Atom                 Charge (a.u.)
  ----------------------------------------
      1 O                    -0.214435
      2 C                     0.210856
      3 C                    -0.078489
      4 C                    -0.078639
      5 C                     0.219241
      6 O                    -0.168417
      7 C                    -0.061081
      8 C                    -0.057557
      9 O                    -0.174018
     10 C                     0.206669
     11 C                    -0.078847
     12 C                    -0.077063
     13 C                     0.220905
     14 O                    -0.226303
     15 O                    -0.174354
     16 O                    -0.158722
     17 O                    -0.202301
     18 C                    -0.144142
     19 C                     0.025885
     20 C                    -0.143857
     21 C                    -0.144659
     22 C                     0.025530
     23 O                    -0.183858
     24 H                     0.086038
     25 H                     0.084004
     26 H                     0.084919
     27 H                     0.077951
     28 H                     0.072906
     29 H                     0.077937
     30 H                     0.072347
     31 H                     0.090932
     32 O                    -0.217365
     33 C                    -0.150514
     34 C                     0.023527
     35 C                    -0.143741
     36 C                    -0.144145
     37 C                     0.025464
     38 O                    -0.186885
     39 H                     0.084853
     40 H                     0.086573
     41 H                     0.086763
     42 H                     0.090140
     43 H                     0.078226
     44 H                     0.072886
     45 H                     0.078281
     46 H                     0.073290
     47 H                     0.084683
     48 H                     0.081526
     49 H                     0.111271
     50 H                     0.090373
     51 H                     0.121886
     52 H                     0.083206
     53 H                     0.099407
     54 H                     0.083884
     55 H                     0.112103
     56 H                     0.084928
  ----------------------------------------
  Sum of atomic charges =    -0.000000

                    Cartesian Multipole Moments
 -----------------------------------------------------------------
    Charge (ESU x 10^10)
                 0.0000
    Dipole Moment (Debye)
         X       0.0603      Y       0.6483      Z      -2.4451
       Tot       2.5303
    Quadrupole Moments (Debye-Ang)
        XX    -135.9203     XY       6.8645     YY    -156.7786
        XZ      -1.2157     YZ       4.0903     ZZ    -163.3393

 Total job time:  180.17s(wall), 8597.17s(cpu)
        *  Thank you very much for using Q-Chem.  Have a nice day.  *
