 Q-Chem 5.0, Q-Chem, Inc., Pleasanton, CA (2017)
 Q-Chem 5.0.1 for Intel X86 EM64T Linux

User input:
--------------------------------------------------------------
$molecule
0  1
O -3.94934 -3.66094 2.70899
C -3.26408 -4.56952 2.26188
C -3.36658 -6.02376 2.66595
C -2.36343 -6.5344 3.71322
C -1.48547 -5.49254 4.37034
O -0.3757 -5.27163 3.60547
C 0.53624 -4.33749 4.19285
C 1.17725 -4.9409 5.4383
O 2.07014 -3.98967 6.03893
C 2.70468 -4.41289 7.16026
C 3.63399 -3.37245 7.73865
C 3.10635 -1.9313 7.68415
C 1.62495 -1.78021 7.40253
O 1.14098 -1.15948 6.4671
O -2.22601 -4.26234 1.44129
O 0.7765 -2.41876 8.25451
O 2.39684 -5.43447 7.7625
C -0.59695 -2.41948 8.13194
C 3.94579 -3.5056 9.24312
C 5.27457 -2.816 9.5526
C 4.88449 -1.35885 9.39327
C 3.38007 -1.50167 9.13663
O 3.02072 -2.65048 9.8698
H 4.57687 -3.46352 7.15377
H 3.64857 -1.31322 6.93422
H 3.96771 -4.557 9.60251
H 5.49829 -3.00686 10.62682
H 6.13813 -3.14613 8.93602
H 5.06942 -0.83875 10.35934
H 5.39228 -0.81815 8.56538
H 2.84417 -0.56392 9.40323
O -1.8845 -4.72477 5.24035
C -1.912 -2.98425 1.02992
C -4.69009 -6.31105 3.41472
C -5.03404 -7.79818 3.32679
C -4.00293 -8.3803 4.26808
C -3.33354 -7.09724 4.76923
O -4.37233 -6.15114 4.77364
H -3.37779 -6.61859 1.72533
H -1.70032 -7.33828 3.32105
H -1.67393 -2.34772 1.909
H -5.54602 -5.70812 3.03894
H -6.04201 -7.93365 3.78069
H -5.03471 -8.22167 2.29942
H -4.53548 -8.88654 5.1039
H -3.27458 -9.07958 3.80339
H -2.83413 -7.27968 5.74684
H -2.76147 -2.54431 0.46496
H -1.02329 -3.02372 0.36731
H -1.03517 -3.01798 8.95654
H -0.89318 -2.87462 7.16302
H -0.9875 -1.38143 8.1949
H 0.39354 -5.20956 6.17912
H 1.7312 -5.86234 5.14957
H 0.0304 -3.37182 4.42168
H 1.34218 -4.12235 3.45978
$end

$opt
CONSTRAINT
tors           1           2           3           4     -97.839
tors           3           4           5           6     -86.152
tors           4           5           6           7    -177.405
tors           5           6           7           8     +68.567
tors           6           7           8           9    -178.818
tors           7           8           9          10    -179.965
tors           8           9          10          11    +179.658
tors           9          10          11          12     +39.201
tors          11          12          13          14    -121.845
ENDCONSTRAINT
$end

$rem
JOBTYPE                   OPT
METHOD                    B3LYP
DFT_D                     d3_op
BASIS                     STO-3G
GEOM_OPT_MAX_CYCLES       100
GEOM_OPT_TOL_GRADIENT     300
GEOM_OPT_TOL_DISPLACEMENT 1200
GEOM_OPT_TOL_ENERGY       100
SYMMETRY                  False
THRESH                    12
SCF_CONVERGENCE           8
MAX_SUB_FILE_NUM          128
MEM_STATIC                400
MEM_TOTAL                 4000
$end
--------------------------------------------------------------

   15   -1510.1536878827      5.94E-09 Convergence criterion met
 Total energy in the final basis set = -1510.15368788
   14   -1510.2231459578      8.13E-09 Convergence criterion met
 Total energy in the final basis set = -1510.22314596
   15   -1510.2606576774      1.20E-09 Convergence criterion met
 Total energy in the final basis set = -1510.26065768
    2   -1510.2606576772      4.20E-10 Convergence criterion met
 Total energy in the final basis set = -1510.26065768
   14   -1510.2777987853      9.80E-09 Convergence criterion met
 Total energy in the final basis set = -1510.27779879
   14   -1510.2837215456      5.46E-09 Convergence criterion met
 Total energy in the final basis set = -1510.28372155
   13   -1510.2856499367      5.23E-09 Convergence criterion met
 Total energy in the final basis set = -1510.28564994
   14   -1510.2853875028      2.53E-09 Convergence criterion met
   11   -1510.2873015788      3.34E-09 Convergence criterion met
 Total energy in the final basis set = -1510.28730158
   10   -1510.2873073892      5.96E-09 Convergence criterion met
 Total energy in the final basis set = -1510.28730739
    9   -1510.2873100410      7.26E-09 Convergence criterion met
 Total energy in the final basis set = -1510.28731004
    9   -1510.2873123578      7.37E-09 Convergence criterion met
 Total energy in the final basis set = -1510.28731236
   10   -1510.2873144610      4.00E-09 Convergence criterion met
 Total energy in the final basis set = -1510.28731446
    9   -1510.2873165486      4.95E-09 Convergence criterion met
 Total energy in the final basis set = -1510.28731655

             Standard Nuclear Orientation (Angstroms)
    I     Atom           X                Y                Z
 ----------------------------------------------------------------
    1      O      -3.8887375416     1.7898858726     1.5347336214
    2      C      -4.0783370359     1.4651103373     0.3432809021
    3      C      -4.7571436693     0.1579465778    -0.1998503007
    4      C      -3.6956822075    -0.9529681885    -0.6261575228
    5      C      -2.2149445612    -0.4880473689    -0.4162012527
    6      O      -1.7919669247     0.2309368110    -1.5828831403
    7      C      -0.3713983224     0.6313486905    -1.4408600451
    8      C       0.6106209868    -0.5920341350    -1.4809222065
    9      O       1.9481615989     0.0090669097    -1.2967961115
   10      C       2.9806916801    -0.9798259362    -1.3084278713
   11      C       4.3406809770    -0.2259895052    -1.1151425204
   12      C       4.2660694612     0.9713213836    -0.0723858168
   13      C       2.8630516361     1.1807013394     0.6129960057
   14      O       2.1711168828     2.2229204024     0.5827426041
   15      O      -3.6621131636     2.2487112474    -0.7812302826
   16      O       2.5364466730     0.0108266320     1.3744684834
   17      O       2.7860239922    -2.2020362871    -1.4690757012
   18      C       1.2325481767     0.1840036305     2.0610254580
   19      C       5.4350490813    -1.1564189005    -0.4498280453
   20      C       6.8508398577    -0.5008021736    -0.6842894556
   21      C       6.7961500409     0.7026385346     0.3298243182
   22      C       5.3672141025     0.4973074168     0.9751254362
   23      O       5.2053176033    -0.9741661368     1.0015892615
   24      H       4.6687585573     0.1408647371    -2.1058413652
   25      H       4.5415863114     1.9289623438    -0.5475289813
   26      H       5.3420749455    -2.2244226551    -0.7282670215
   27      H       7.6521633719    -1.2109830447    -0.4250850885
   28      H       6.9915676397    -0.1742972172    -1.7270218809
   29      H       7.5807938644     0.6198306116     1.0985333513
   30      H       6.8895663469     1.6816960705    -0.1665561472
   31      H       5.2440211662     0.9179016464     1.9918468499
   32      O      -1.4955739041    -0.6849795700     0.5897749593
   33      C      -2.9173339946     3.4431506878    -0.3197762218
   34      C      -5.5360751018    -0.6054090172     0.9506068930
   35      C      -6.4723621016    -1.6914487211     0.2877108633
   36      C      -5.4207337564    -2.7856687420    -0.1311055284
   37      C      -4.0768266031    -2.1250147914     0.3697799286
   38      O      -4.4766138362    -1.4097126758     1.6027750340
   39      H      -5.4088151327     0.4215179964    -1.0519555830
   40      H      -3.8280552203    -1.2350656291    -1.6857770633
   41      H      -2.0058374743     3.1599797093     0.2454267187
   42      H      -6.0212518816     0.0613551075     1.6892852070
   43      H      -7.1898042182    -2.0828769245     1.0264750957
   44      H      -7.0341692211    -1.2892143076    -0.5705351354
   45      H      -5.5987255891    -3.7384895465     0.3923703168
   46      H      -5.4123453793    -2.9747708975    -1.2164918541
   47      H      -3.2484359427    -2.8276668340     0.5833710738
   48      H      -3.5431641091     4.0934204831     0.3249750728
   49      H      -2.6289983492     3.9940739591    -1.2337268214
   50      H       1.2734439002    -0.4373183905     2.9746458419
   51      H       0.3828000340    -0.1579524752     1.4278132832
   52      H       1.0693176574     1.2460779865     2.3306469036
   53      H       0.3781175029    -1.3035267172    -0.6608267760
   54      H       0.5384779973    -1.1301753344    -2.4509702387
   55      H      -0.2047535481     1.1939298352    -0.4965195197
   56      H      -0.1674077548     1.3040147156    -2.2972667257
 ----------------------------------------------------------------

    9   -1510.2873173629      4.40E-09 Convergence criterion met
 Total energy in the final basis set = -1510.28731736
 Final energy is   -1510.28731736288
 **  OPTIMIZATION CONVERGED  **

                    Orbital Energies (a.u.)
 --------------------------------------------------------------

 Alpha MOs
 -- Occupied --
-18.946 -18.941 -18.935 -18.917 -18.889 -18.888 -18.885 -18.882
-18.878 -18.857 -10.109 -10.105 -10.099 -10.090 -10.079 -10.077
-10.064 -10.062 -10.060 -10.057 -10.056 -10.043 -10.041 -10.040
-10.038 -10.032 -10.022 -10.021 -10.019 -10.017  -1.024  -1.018
 -1.011  -0.995  -0.971  -0.967  -0.948  -0.943  -0.937  -0.921
 -0.767  -0.761  -0.731  -0.723  -0.711  -0.704  -0.699  -0.663
 -0.646  -0.620  -0.597  -0.586  -0.550  -0.544  -0.539  -0.535
 -0.515  -0.509  -0.486  -0.470  -0.468  -0.463  -0.458  -0.444
 -0.433  -0.431  -0.427  -0.415  -0.412  -0.404  -0.401  -0.399
 -0.395  -0.386  -0.374  -0.364  -0.362  -0.358  -0.353  -0.351
 -0.346  -0.341  -0.335  -0.332  -0.332  -0.327  -0.321  -0.313
 -0.308  -0.307  -0.304  -0.298  -0.293  -0.288  -0.284  -0.278
 -0.276  -0.263  -0.253  -0.249  -0.237  -0.235  -0.231  -0.190
 -0.182  -0.176  -0.167  -0.159  -0.159  -0.152  -0.145  -0.142
 -0.139

          Ground-State Mulliken Net Atomic Charges

     Atom                 Charge (a.u.)
  ----------------------------------------
      1 O                    -0.206987
      2 C                     0.204266
      3 C                    -0.077553
      4 C                    -0.077883
      5 C                     0.208824
      6 O                    -0.164891
      7 C                    -0.049090
      8 C                    -0.049986
      9 O                    -0.173467
     10 C                     0.218427
     11 C                    -0.078474
     12 C                    -0.078856
     13 C                     0.213865
     14 O                    -0.227771
     15 O                    -0.168894
     16 O                    -0.173427
     17 O                    -0.207884
     18 C                    -0.141449
     19 C                     0.024491
     20 C                    -0.143877
     21 C                    -0.144270
     22 C                     0.025958
     23 O                    -0.185545
     24 H                     0.084213
     25 H                     0.082612
     26 H                     0.089528
     27 H                     0.077998
     28 H                     0.072332
     29 H                     0.077636
     30 H                     0.073038
     31 H                     0.083439
     32 O                    -0.210033
     33 C                    -0.128894
     34 C                     0.025275
     35 C                    -0.144019
     36 C                    -0.143918
     37 C                     0.025560
     38 O                    -0.184602
     39 H                     0.086621
     40 H                     0.087229
     41 H                     0.089639
     42 H                     0.088327
     43 H                     0.078822
     44 H                     0.073266
     45 H                     0.079069
     46 H                     0.073211
     47 H                     0.087001
     48 H                     0.089605
     49 H                     0.091046
     50 H                     0.086829
     51 H                     0.096300
     52 H                     0.089196
     53 H                     0.098033
     54 H                     0.087477
     55 H                     0.098215
     56 H                     0.094423
  ----------------------------------------
  Sum of atomic charges =    -0.000000

                    Cartesian Multipole Moments
 -----------------------------------------------------------------
    Charge (ESU x 10^10)
                 0.0000
    Dipole Moment (Debye)
         X      -0.6933      Y       0.8313      Z      -3.3602
       Tot       3.5303
    Quadrupole Moments (Debye-Ang)
        XX    -137.9596     XY       8.8023     YY    -161.1033
        XZ       2.3888     YZ       1.0038     ZZ    -162.9670

 Total job time:  65.73s(wall), 3125.74s(cpu)
        *  Thank you very much for using Q-Chem.  Have a nice day.  *
