 Q-Chem 5.0, Q-Chem, Inc., Pleasanton, CA (2017)
 Q-Chem 5.0.1 for Intel X86 EM64T Linux

User input:
--------------------------------------------------------------
$molecule
0  1
O -3.94934 -3.66094 2.70899
C -3.26408 -4.56952 2.26188
C -3.36658 -6.02376 2.66595
C -2.43659 -6.50776 3.79055
C -1.63422 -5.44414 4.5068
O -0.49301 -5.17378 3.80682
C 0.33569 -4.19208 4.4383
C 0.93844 -4.75864 5.71964
O 1.6728 -3.73498 6.40935
C 2.25935 -4.11964 7.57002
C 3.02295 -3.00316 8.24161
C 2.27022 -1.66775 8.33302
C 0.77772 -1.73169 8.07797
O 0.19228 -1.18415 7.15492
O -2.21012 -4.25914 1.46296
O 0.05627 -2.53675 8.90506
O 2.06326 -5.20614 8.10123
C -1.29881 -2.76274 8.78654
C 3.39059 -3.22349 9.7231
C 4.60183 -2.36265 10.08218
C 3.98425 -0.9769 10.06318
C 2.51388 -1.33227 9.81462
O 2.36004 -2.58647 10.43965
H 3.95464 -2.88376 7.64359
H 2.68727 -0.91254 7.63
H 3.58623 -4.28694 9.97992
H 4.8779 -2.61251 11.13186
H 5.49216 -2.49408 9.43035
H 4.11397 -0.5214 11.06997
H 4.37698 -0.29198 9.28069
H 1.84449 -0.52002 10.17467
O -2.01255 -4.84988 5.51175
C -1.88965 -2.97971 1.06065
C -4.74297 -6.32395 3.30257
C -5.05605 -7.81688 3.20527
C -4.10109 -8.3688 4.23872
C -3.49155 -7.06817 4.77073
O -4.54032 -6.13881 4.67866
H -3.29313 -6.62332 1.73118
H -1.74166 -7.32562 3.49525
H -1.66967 -2.3447 1.94552
H -5.57255 -5.73843 2.84797
H -6.09733 -7.9653 3.57136
H -4.95907 -8.25059 2.18676
H -4.69636 -8.86498 5.03755
H -3.33035 -9.0691 3.85036
H -3.07669 -7.23542 5.78981
H -2.72851 -2.53966 0.48011
H -0.98819 -3.01662 0.41535
H -1.623 -3.45711 9.58842
H -1.52389 -3.22408 7.80151
H -1.85676 -1.80785 8.8913
H 0.15106 -5.13281 6.40475
H 1.60489 -5.61096 5.45789
H -0.24624 -3.26412 4.64282
H 1.1647 -3.91969 3.75148
$end

$opt
CONSTRAINT
tors           1           2           3           4     -93.240
tors           3           4           5           6     -84.325
tors           4           5           6           7    -178.809
tors           5           6           7           8     +68.988
tors           6           7           8           9    -174.967
tors           7           8           9          10    -179.965
tors           8           9          10          11    +179.603
tors           9          10          11          12     +46.779
tors          11          12          13          14    -116.438
ENDCONSTRAINT
$end

$rem
JOBTYPE                   OPT
METHOD                    B3LYP
DFT_D                     d3_op
BASIS                     STO-3G
GEOM_OPT_MAX_CYCLES       100
GEOM_OPT_TOL_GRADIENT     300
GEOM_OPT_TOL_DISPLACEMENT 1200
GEOM_OPT_TOL_ENERGY       100
SYMMETRY                  False
THRESH                    12
SCF_CONVERGENCE           8
MAX_SUB_FILE_NUM          128
MEM_STATIC                400
MEM_TOTAL                 4000
$end
--------------------------------------------------------------

   15   -1510.1566099961      6.05E-09 Convergence criterion met
 Total energy in the final basis set = -1510.15661000
   13   -1510.2256393186      9.91E-09 Convergence criterion met
 Total energy in the final basis set = -1510.22563932
   15   -1510.2627893506      1.27E-09 Convergence criterion met
 Total energy in the final basis set = -1510.26278935
   14   -1510.2792870142      9.34E-09 Convergence criterion met
 Total energy in the final basis set = -1510.27928701
   13   -1510.2843931639      7.08E-09 Convergence criterion met
 Total energy in the final basis set = -1510.28439316
   14   -1510.2845004519      5.68E-09 Convergence criterion met
 Total energy in the final basis set = -1510.28450045
   14   -1510.2859347510      3.97E-09 Convergence criterion met
 Total energy in the final basis set = -1510.28593475
   13   -1510.2865088000      6.20E-09 Convergence criterion met
   11   -1510.2878169959      8.98E-09 Convergence criterion met
 Total energy in the final basis set = -1510.28781700
   11   -1510.2878914178      8.02E-09 Convergence criterion met
 Total energy in the final basis set = -1510.28789142
   11   -1510.2879546898      7.64E-09 Convergence criterion met
 Total energy in the final basis set = -1510.28795469
   11   -1510.2879836182      6.20E-09 Convergence criterion met
 Total energy in the final basis set = -1510.28798362
   11   -1510.2880027381      4.62E-09 Convergence criterion met
 Total energy in the final basis set = -1510.28800274
   11   -1510.2880057003      2.76E-09 Convergence criterion met
 Total energy in the final basis set = -1510.28800570

             Standard Nuclear Orientation (Angstroms)
    I     Atom           X                Y                Z
 ----------------------------------------------------------------
    1      O      -3.7392379202     1.4551380287     1.8100260485
    2      C      -4.0262360457     1.3567364329     0.5979509854
    3      C      -4.7301418425     0.1568511930    -0.1290430770
    4      C      -3.6872937182    -0.8804856418    -0.7452018407
    5      C      -2.2006812316    -0.4504216927    -0.5053391124
    6      O      -1.8291729792     0.4666983013    -1.5407787602
    7      C      -0.4169787215     0.8883035200    -1.3816812716
    8      C       0.6132886192    -0.2620776219    -1.6654229804
    9      O       1.9197610422     0.3436033779    -1.3283859470
   10      C       2.9996173560    -0.5719669797    -1.5286951130
   11      C       4.3152954314     0.1917579266    -1.1483184470
   12      C       4.2081695145     0.9786070518     0.2296530055
   13      C       2.7915069000     0.9289879798     0.9135549179
   14      O       2.0335015218     1.9004620620     1.1309399973
   15      O      -3.7126688544     2.3478598781    -0.3873534341
   16      O       2.5222447845    -0.4173938253     1.3152953305
   17      O       2.8698053502    -1.7383624179    -1.9522753982
   18      C       1.2163160545    -0.5028895387     2.0144544073
   19      C       5.4851402539    -0.8264497967    -0.8338548404
   20      C       6.8503973989    -0.0343953300    -0.8083263357
   21      C       6.7400702456     0.7161153241     0.5710058824
   22      C       5.3246907090     0.2247770591     1.0747619664
   23      O       5.2529093726    -1.1713904246     0.5884682460
   24      H       4.5702710859     0.8789124891    -1.9764649548
   25      H       4.4598892630     2.0444325707     0.0888624588
   26      H       5.4640005859    -1.7380298892    -1.4623636595
   27      H       7.7024496928    -0.7324260276    -0.8229627786
   28      H       6.9455676367     0.6563189832    -1.6615496895
   29      H       7.5289351421     0.3938698145     1.2693705486
   30      H       6.7878687441     1.8117713337     0.4655674096
   31      H       5.1748055813     0.2604666886     2.1710427336
   32      O      -1.4456374556    -0.8138467363     0.4246051440
   33      C      -2.9432561515     3.4522970452     0.2305620146
   34      C      -5.4947830170    -0.7738839793     0.9016058737
   35      C      -6.4491312178    -1.7410925690     0.0983911032
   36      C      -5.4127881478    -2.7602710930    -0.5057611567
   37      C      -4.0563172080    -2.1910433021     0.0681179134
   38      O      -4.4299074630    -1.6725325309     1.4036573085
   39      H      -5.3935009202     0.5589360998    -0.9153886235
   40      H      -3.8470951741    -0.9982583238    -1.8317946447
   41      H      -1.9947072096     3.0877107652     0.6754522390
   42      H      -5.9646161986    -0.2280960879     1.7425551570
   43      H      -7.1522256441    -2.2401660700     0.7838072526
   44      H      -7.0265983549    -1.2108259725    -0.6757132846
   45      H      -5.5878652512    -3.7826777644    -0.1351553808
   46      H      -5.4234874387    -2.7768244356    -1.6072778644
   47      H      -3.2289453037    -2.9215166917     0.1569016990
   48      H      -3.5267958798     3.9673341676     1.0208329205
   49      H      -2.7192471669     4.1622550052    -0.5865662935
   50      H       1.2339592843    -1.4570244689     2.5723265792
   51      H       0.3562967567    -0.5145709095     1.3067843542
   52      H       1.0842470789     0.3397239527     2.7217113718
   53      H       0.4044230392    -1.1422589319    -1.0213179081
   54      H       0.5770464348    -0.5833749473    -2.7289652440
   55      H      -0.2297274708     1.2760634305    -0.3560177328
   56      H      -0.2719974492     1.7126350646    -2.1074456851
 ----------------------------------------------------------------

    9   -1510.2880064850      6.18E-09 Convergence criterion met
 Total energy in the final basis set = -1510.28800649
 Final energy is   -1510.28800648502
 **  OPTIMIZATION CONVERGED  **

                    Orbital Energies (a.u.)
 --------------------------------------------------------------

 Alpha MOs
 -- Occupied --
-18.946 -18.938 -18.935 -18.918 -18.890 -18.889 -18.884 -18.881
-18.877 -18.857 -10.111 -10.104 -10.099 -10.089 -10.079 -10.077
-10.064 -10.062 -10.061 -10.056 -10.055 -10.044 -10.041 -10.039
-10.037 -10.031 -10.022 -10.021 -10.018 -10.017  -1.024  -1.017
 -1.011  -0.995  -0.971  -0.966  -0.949  -0.942  -0.936  -0.921
 -0.767  -0.761  -0.731  -0.723  -0.711  -0.704  -0.699  -0.664
 -0.645  -0.621  -0.596  -0.585  -0.550  -0.544  -0.539  -0.534
 -0.515  -0.508  -0.486  -0.470  -0.467  -0.463  -0.458  -0.444
 -0.434  -0.431  -0.426  -0.415  -0.412  -0.402  -0.402  -0.400
 -0.395  -0.385  -0.374  -0.363  -0.362  -0.358  -0.353  -0.351
 -0.346  -0.341  -0.335  -0.333  -0.331  -0.327  -0.321  -0.313
 -0.308  -0.306  -0.304  -0.298  -0.292  -0.286  -0.284  -0.278
 -0.275  -0.263  -0.254  -0.249  -0.238  -0.235  -0.230  -0.191
 -0.181  -0.176  -0.169  -0.159  -0.158  -0.152  -0.145  -0.141
 -0.138

          Ground-State Mulliken Net Atomic Charges

     Atom                 Charge (a.u.)
  ----------------------------------------
      1 O                    -0.206626
      2 C                     0.203911
      3 C                    -0.077685
      4 C                    -0.077672
      5 C                     0.210587
      6 O                    -0.165769
      7 C                    -0.049207
      8 C                    -0.049931
      9 O                    -0.174711
     10 C                     0.217960
     11 C                    -0.078040
     12 C                    -0.079443
     13 C                     0.212087
     14 O                    -0.225621
     15 O                    -0.168913
     16 O                    -0.173516
     17 O                    -0.207323
     18 C                    -0.141486
     19 C                     0.024075
     20 C                    -0.144287
     21 C                    -0.143876
     22 C                     0.026072
     23 O                    -0.185890
     24 H                     0.084122
     25 H                     0.082188
     26 H                     0.089312
     27 H                     0.077804
     28 H                     0.072151
     29 H                     0.077402
     30 H                     0.072911
     31 H                     0.083838
     32 O                    -0.208849
     33 C                    -0.128991
     34 C                     0.025637
     35 C                    -0.144149
     36 C                    -0.143897
     37 C                     0.025454
     38 O                    -0.184356
     39 H                     0.086820
     40 H                     0.087348
     41 H                     0.090240
     42 H                     0.087647
     43 H                     0.079008
     44 H                     0.073539
     45 H                     0.079052
     46 H                     0.073271
     47 H                     0.087187
     48 H                     0.089413
     49 H                     0.090652
     50 H                     0.086554
     51 H                     0.100216
     52 H                     0.086170
     53 H                     0.097220
     54 H                     0.087178
     55 H                     0.099037
     56 H                     0.094179
  ----------------------------------------
  Sum of atomic charges =    -0.000000

                    Cartesian Multipole Moments
 -----------------------------------------------------------------
    Charge (ESU x 10^10)
                 0.0000
    Dipole Moment (Debye)
         X      -0.9421      Y       1.5591      Z      -3.0093
       Tot       3.5177
    Quadrupole Moments (Debye-Ang)
        XX    -138.4799     XY       9.8819     YY    -160.5808
        XZ       4.4074     YZ       0.1601     ZZ    -162.3505

 Total job time:  53.81s(wall), 2558.66s(cpu)
        *  Thank you very much for using Q-Chem.  Have a nice day.  *
