 Q-Chem 5.0, Q-Chem, Inc., Pleasanton, CA (2017)
 Q-Chem 5.0.1 for Intel X86 EM64T Linux

User input:
--------------------------------------------------------------
$molecule
0  1
O -3.7392379202 1.4551380287 1.8100260485
C -4.0262360457 1.3567364329 0.5979509854
C -4.7301418425 0.156851193 -0.129043077
C -3.6872937182 -0.8804856418 -0.7452018407
C -2.2006812316 -0.4504216927 -0.5053391124
O -1.8291729792 0.4666983013 -1.5407787602
C -0.4169787215 0.88830352 -1.3816812716
C 0.6132886192 -0.2620776219 -1.6654229804
O 1.9197610422 0.3436033779 -1.328385947
C 2.999617356 -0.5719669797 -1.528695113
C 4.3152954314 0.1917579266 -1.148318447
C 4.2081695145 0.9786070518 0.2296530055
C 2.7915069 0.9289879798 0.9135549179
O 2.0335015218 1.900462062 1.1309399973
O -3.7126688544 2.3478598781 -0.3873534341
O 2.5222447845 -0.4173938253 1.3152953305
O 2.8698053502 -1.7383624179 -1.9522753982
C 1.2163160545 -0.5028895387 2.0144544073
C 5.4851402539 -0.8264497967 -0.8338548404
C 6.8503973989 -0.03439533 -0.8083263357
C 6.7400702456 0.7161153241 0.5710058824
C 5.324690709 0.2247770591 1.0747619664
O 5.2529093726 -1.1713904246 0.588468246
H 4.5702710859 0.8789124891 -1.9764649548
H 4.459889263 2.0444325707 0.0888624588
H 5.4640005859 -1.7380298892 -1.4623636595
H 7.7024496928 -0.7324260276 -0.8229627786
H 6.9455676367 0.6563189832 -1.6615496895
H 7.5289351421 0.3938698145 1.2693705486
H 6.7878687441 1.8117713337 0.4655674096
H 5.1748055813 0.2604666886 2.1710427336
O -1.4456374556 -0.8138467363 0.424605144
C -2.9432561515 3.4522970452 0.2305620146
C -5.494783017 -0.7738839793 0.9016058737
C -6.4491312178 -1.741092569 0.0983911032
C -5.4127881478 -2.760271093 -0.5057611567
C -4.056317208 -2.1910433021 0.0681179134
O -4.429907463 -1.6725325309 1.4036573085
H -5.3935009202 0.5589360998 -0.9153886235
H -3.8470951741 -0.9982583238 -1.8317946447
H -1.9947072096 3.0877107652 0.675452239
H -5.9646161986 -0.2280960879 1.742555157
H -7.1522256441 -2.24016607 0.7838072526
H -7.0265983549 -1.2108259725 -0.6757132846
H -5.5878652512 -3.7826777644 -0.1351553808
H -5.4234874387 -2.7768244356 -1.6072778644
H -3.2289453037 -2.9215166917 0.156901699
H -3.5267958798 3.9673341676 1.0208329205
H -2.7192471669 4.1622550052 -0.5865662935
H 1.2339592843 -1.4570244689 2.5723265792
H 0.3562967567 -0.5145709095 1.3067843542
H 1.0842470789 0.3397239527 2.7217113718
H 0.4044230392 -1.1422589319 -1.0213179081
H 0.5770464348 -0.5833749473 -2.728965244
H -0.2297274708 1.2760634305 -0.3560177328
H -0.2719974492 1.7126350646 -2.1074456851
$end

$rem
JOBTYPE                   OPT
METHOD                    B3LYP
DFT_D                     d3_op
BASIS                     STO-3G
GEOM_OPT_MAX_CYCLES       100
GEOM_OPT_TOL_GRADIENT     300
GEOM_OPT_TOL_DISPLACEMENT 1200
GEOM_OPT_TOL_ENERGY       100
SYMMETRY                  False
THRESH                    12
SCF_CONVERGENCE           8
MAX_SUB_FILE_NUM          128
MEM_STATIC                400
MEM_TOTAL                 4000
$end
--------------------------------------------------------------

   16   -1510.2880371132      5.06E-09 Convergence criterion met
 Total energy in the final basis set = -1510.28803711
   14   -1510.2708927788      4.54E-09 Convergence criterion met
 Total energy in the final basis set = -1510.27089278
   14   -1510.2882461169      8.31E-09 Convergence criterion met
 Total energy in the final basis set = -1510.28824612
   13   -1510.2883974626      8.16E-09 Convergence criterion met
 Total energy in the final basis set = -1510.28839746
   14   -1510.2893805694      2.55E-09 Convergence criterion met
 Total energy in the final basis set = -1510.28938057
   13   -1510.2898482906      4.40E-09 Convergence criterion met
 Total energy in the final basis set = -1510.28984829
   14   -1510.2895862068      4.52E-09 Convergence criterion met
 Total energy in the final basis set = -1510.28958621
   14   -1510.2907145653      3.57E-09 Convergence criterion met
   10   -1510.2975118219      8.98E-09 Convergence criterion met
 Total energy in the final basis set = -1510.29751182
   11   -1510.2975138596      4.03E-09 Convergence criterion met
 Total energy in the final basis set = -1510.29751386
   10   -1510.2975164432      9.32E-09 Convergence criterion met
 Total energy in the final basis set = -1510.29751644
   11   -1510.2975187780      1.85E-09 Convergence criterion met
 Total energy in the final basis set = -1510.29751878
   11   -1510.2975201220      4.51E-09 Convergence criterion met
 Total energy in the final basis set = -1510.29752012
   11   -1510.2975263581      4.49E-09 Convergence criterion met
 Total energy in the final basis set = -1510.29752636

             Standard Nuclear Orientation (Angstroms)
    I     Atom           X                Y                Z
 ----------------------------------------------------------------
    1      O      -3.3551700004     1.8853455625     1.8730562325
    2      C      -3.3538566436     1.4642980916     0.6957219815
    3      C      -4.3589918267     0.4356880162     0.0619331693
    4      C      -3.6750993734    -0.7166869793    -0.7910389327
    5      C      -2.1136831231    -0.6038421684    -0.8218342616
    6      O      -1.7081917917    -0.2929721327    -2.1552567633
    7      C      -0.2577606956     0.0087167564    -2.2137564484
    8      C       0.6701454218    -1.2564046568    -2.0879666981
    9      O       2.0477867201    -0.7099531735    -2.0402910871
   10      C       2.8179876283    -1.2937552115    -0.9806086146
   11      C       4.0923153087    -0.3939056972    -0.8330051881
   12      C       3.7424120541     1.0292121378    -0.2069371037
   13      C       2.2442449361     1.1415695721     0.2569501901
   14      O       1.3399646394     1.8209161291    -0.2931144389
   15      O      -2.4273470497     1.8714262858    -0.3139440203
   16      O       2.0676451471     0.3300297549     1.4038147494
   17      O       2.4780249062    -2.2947407613    -0.3173721128
   18      C       0.6720844113     0.3886044313     1.9094390026
   19      C       5.1426812251    -0.9437618466     0.2172704862
   20      C       6.5203759393    -0.2241945113    -0.0605334382
   21      C       6.2160690294     1.2223670299     0.4824751033
   22      C       4.7414882279     1.0457319748     1.0271015066
   23      O       4.7083752542    -0.3549217490     1.5045873062
   24      H       4.5439116419    -0.2717201593    -1.8341283686
   25      H       3.9375091681     1.8430576799    -0.9268514502
   26      H       5.1786710162    -2.0479494077     0.2907725858
   27      H       7.3283124704    -0.7074113001     0.5116248248
   28      H       6.7896220860    -0.2318399654    -1.1288099822
   29      H       6.8974572080     1.4984547254     1.3027916423
   30      H       6.2788582269     1.9932016040    -0.3023733997
   31      H       4.4525395653     1.7389377455     1.8404815011
   32      O      -1.3319936099    -0.8042385634     0.1356038929
   33      C      -1.4477152945     2.8499397536     0.2238722883
   34      C      -5.0853128169    -0.4068556932     1.1899978891
   35      C      -6.3540530908    -1.1055054176     0.5639502287
   36      C      -5.6818467073    -2.2429077375    -0.2919165929
   37      C      -4.1523736246    -1.9978242264     0.0201581644
   38      O      -4.1499797805    -1.5320444791     1.4247912341
   39      H      -5.0808501093     0.9999801711    -0.5575095054
   40      H      -4.0419575906    -0.7177393453    -1.8321086917
   41      H      -1.6552061075     3.0188124407     1.2991068771
   42      H      -5.2539697692     0.1594089275     2.1268516644
   43      H      -6.9934644310    -1.5231247509     1.3577581673
   44      H      -6.9543368932    -0.4112725040    -0.0453926621
   45      H      -5.9892478761    -3.2433781359     0.0520532323
   46      H      -5.9051928033    -2.1557183284    -1.3673080292
   47      H      -3.4976912333    -2.8833915813    -0.0945451205
   48      H      -1.5625919999     3.8001231371    -0.3330986516
   49      H      -0.4175757859     2.4494693201     0.0771125195
   50      H       0.6694129898    -0.2309190808     2.8241167262
   51      H      -0.0537815189    -0.0310689626     1.1720658327
   52      H       0.3857536958     1.4265866169     2.1700999505
   53      H       0.4549301146    -1.8247538531    -1.1580088095
   54      H       0.5564930850    -1.9308799247    -2.9631082383
   55      H       0.0421709960     0.7327604593    -1.4211383730
   56      H      -0.1022263150     0.4830327115    -3.2031522218
 ----------------------------------------------------------------

   11   -1510.2975267701      3.50E-09 Convergence criterion met
 Total energy in the final basis set = -1510.29752677
 Final energy is   -1510.29752677009
 **  OPTIMIZATION CONVERGED  **

                    Orbital Energies (a.u.)
 --------------------------------------------------------------

 Alpha MOs
 -- Occupied --
-18.941 -18.938 -18.931 -18.930 -18.888 -18.887 -18.882 -18.880
-18.877 -18.876 -10.107 -10.106 -10.101 -10.099 -10.066 -10.064
-10.061 -10.060 -10.059 -10.057 -10.042 -10.040 -10.039 -10.039
-10.039 -10.038 -10.021 -10.020 -10.020 -10.019  -1.018  -1.015
 -1.010  -1.006  -0.970  -0.969  -0.942  -0.938  -0.937  -0.934
 -0.765  -0.763  -0.728  -0.723  -0.711  -0.705  -0.695  -0.655
 -0.650  -0.618  -0.597  -0.580  -0.547  -0.545  -0.537  -0.537
 -0.514  -0.508  -0.480  -0.478  -0.468  -0.460  -0.452  -0.442
 -0.436  -0.431  -0.429  -0.421  -0.411  -0.408  -0.402  -0.396
 -0.384  -0.378  -0.375  -0.368  -0.362  -0.358  -0.357  -0.352
 -0.346  -0.337  -0.331  -0.331  -0.329  -0.327  -0.321  -0.310
 -0.310  -0.306  -0.305  -0.302  -0.290  -0.288  -0.284  -0.283
 -0.272  -0.258  -0.247  -0.243  -0.242  -0.234  -0.233  -0.189
 -0.181  -0.173  -0.166  -0.160  -0.160  -0.154  -0.151  -0.143
 -0.142

          Ground-State Mulliken Net Atomic Charges

     Atom                 Charge (a.u.)
  ----------------------------------------
      1 O                    -0.212350
      2 C                     0.212180
      3 C                    -0.077726
      4 C                    -0.078985
      5 C                     0.223687
      6 O                    -0.167081
      7 C                    -0.055370
      8 C                    -0.057397
      9 O                    -0.178790
     10 C                     0.210122
     11 C                    -0.077381
     12 C                    -0.076862
     13 C                     0.213733
     14 O                    -0.224550
     15 O                    -0.174956
     16 O                    -0.158535
     17 O                    -0.203208
     18 C                    -0.146412
     19 C                     0.024974
     20 C                    -0.143389
     21 C                    -0.144524
     22 C                     0.026738
     23 O                    -0.182510
     24 H                     0.086079
     25 H                     0.085798
     26 H                     0.089159
     27 H                     0.078432
     28 H                     0.072845
     29 H                     0.078308
     30 H                     0.073166
     31 H                     0.084029
     32 O                    -0.222786
     33 C                    -0.152608
     34 C                     0.024045
     35 C                    -0.144056
     36 C                    -0.143909
     37 C                     0.025650
     38 O                    -0.186744
     39 H                     0.085433
     40 H                     0.086856
     41 H                     0.093400
     42 H                     0.091299
     43 H                     0.078668
     44 H                     0.073210
     45 H                     0.078336
     46 H                     0.073392
     47 H                     0.083890
     48 H                     0.079404
     49 H                     0.109681
     50 H                     0.091833
     51 H                     0.116807
     52 H                     0.080634
     53 H                     0.103027
     54 H                     0.082274
     55 H                     0.103888
     56 H                     0.089151
  ----------------------------------------
  Sum of atomic charges =    -0.000000

                    Cartesian Multipole Moments
 -----------------------------------------------------------------
    Charge (ESU x 10^10)
                -0.0000
    Dipole Moment (Debye)
         X       0.1373      Y       1.0419      Z      -2.9737
       Tot       3.1540
    Quadrupole Moments (Debye-Ang)
        XX    -135.9832     XY       7.8976     YY    -160.1536
        XZ       0.8034     YZ       5.2221     ZZ    -164.4976

 Total job time:  168.64s(wall), 8046.59s(cpu)
        *  Thank you very much for using Q-Chem.  Have a nice day.  *
