 Q-Chem 5.0, Q-Chem, Inc., Pleasanton, CA (2017)
 Q-Chem 5.0.1 for Intel X86 EM64T Linux

User input:
--------------------------------------------------------------
$molecule
0  1
O -4.0009249674 1.5935962419 1.718619171
C -4.1715596737 1.3779840972 0.5000632635
C -4.7880535008 0.1005134011 -0.173091553
C -3.6658827958 -0.9280759525 -0.6476718919
C -2.2152517132 -0.3784811889 -0.4387717612
O -1.8090105029 0.2951848388 -1.6375979674
C -0.3937591781 0.7229562501 -1.5252218457
C 0.6022099922 -0.4893390553 -1.5309646121
O 1.9342044385 0.1287983895 -1.3596552856
C 2.9706406034 -0.8565661211 -1.3443749993
C 4.3253092998 -0.0888469234 -1.1694251872
C 4.2784249303 1.00780892 -0.0177736579
C 2.8730916825 1.1834595262 0.6708624691
O 2.1575600019 2.2095688099 0.6580415169
O -3.7589639898 2.2714409938 -0.5413916571
O 2.5504833262 -0.0219503408 1.3731475336
O 2.7814629389 -2.0832395161 -1.4732040468
C 1.2439676866 0.1092225624 2.0643682529
C 5.4513319162 -1.0593169976 -0.6259214888
C 6.8531701715 -0.3568320435 -0.8063223847
C 6.8054588731 0.7138152794 0.3472164688
C 5.3816702368 0.4286954713 0.9709901743
O 5.2349188204 -1.0379393187 0.8396040555
H 4.5987581803 0.3663868591 -2.1392507621
H 4.5702103154 1.9976296042 -0.4107325672
H 5.3722957731 -2.0939092635 -1.013438572
H 7.6697828107 -1.0797754561 -0.6522463145
H 6.965796402 0.0963147016 -1.8042060878
H 7.5947019944 0.5356045015 1.0946825439
H 6.8976449688 1.7466132247 -0.0249329182
H 5.2588581442 0.7363318227 2.0273650438
O -1.5012375936 -0.491875679 0.5836958299
C -3.053730531 3.4366984104 0.0407396882
C -5.5559990197 -0.7817324062 0.8955495967
C -6.3892283566 -1.8903664024 0.1389717231
C -5.254170061 -2.9004839824 -0.272834019
C -3.9764011433 -2.1662757188 0.2937803946
O -4.4626379926 -1.5425083146 1.5445132618
H -5.4265076656 0.4074523048 -1.0204440737
H -3.7913642839 -1.1739232144 -1.7169738925
H -2.1313172685 3.1271469391 0.5738787779
H -6.1144034748 -0.1951841999 1.6504087113
H -7.1172425953 -2.356243577 0.8216815572
H -6.9312382966 -1.482443666 -0.7293626544
H -5.3848859369 -3.8771323787 0.2198071956
H -5.1972872722 -3.0582668023 -1.3618124122
H -3.1031303575 -2.8148702978 0.5001225087
H -3.6985210691 3.9952313387 0.749472463
H -2.7865868176 4.088587533 -0.8110693931
H 1.2266031395 -0.6845066706 2.8336921886
H 0.3823290477 -0.0391574318 1.3747918533
H 1.1440379275 1.1007403929 2.5486490915
H 0.3760106815 -1.1832360376 -0.6941528204
H 0.5374415467 -1.0535216737 -2.4865744392
H -0.2248817975 1.3190678648 -0.6016838426
H -0.2081320921 1.3680698364 -2.4066040514
$end

$rem
JOBTYPE                   OPT
METHOD                    B3LYP
DFT_D                     d3_op
BASIS                     STO-3G
GEOM_OPT_MAX_CYCLES       100
GEOM_OPT_TOL_GRADIENT     300
GEOM_OPT_TOL_DISPLACEMENT 1200
GEOM_OPT_TOL_ENERGY       100
SYMMETRY                  False
THRESH                    12
SCF_CONVERGENCE           8
MAX_SUB_FILE_NUM          128
MEM_STATIC                400
MEM_TOTAL                 4000
$end
--------------------------------------------------------------

   16   -1510.2873756897      6.26E-09 Convergence criterion met
 Total energy in the final basis set = -1510.28737569
   15   -1510.2757392111      3.92E-09 Convergence criterion met
 Total energy in the final basis set = -1510.27573921
   14   -1510.2877137909      7.79E-09 Convergence criterion met
 Total energy in the final basis set = -1510.28771379
   15   -1510.2885361534      1.89E-09 Convergence criterion met
 Total energy in the final basis set = -1510.28853615
   13   -1510.2895667690      6.29E-09 Convergence criterion met
 Total energy in the final basis set = -1510.28956677
   13   -1510.2903210733      9.24E-09 Convergence criterion met
 Total energy in the final basis set = -1510.29032107
   13   -1510.2913921563      5.73E-09 Convergence criterion met
 Total energy in the final basis set = -1510.29139216
   14   -1510.2924334210      5.68E-09 Convergence criterion met
   13   -1510.2939869063      2.70E-09 Convergence criterion met
 Total energy in the final basis set = -1510.29398691
   13   -1510.2937653965      4.99E-09 Convergence criterion met
 Total energy in the final basis set = -1510.29376540
   13   -1510.2940167077      2.96E-09 Convergence criterion met
 Total energy in the final basis set = -1510.29401671
   13   -1510.2934488110      5.65E-09 Convergence criterion met
 Total energy in the final basis set = -1510.29344881
   12   -1510.2940658668      8.19E-09 Convergence criterion met
 Total energy in the final basis set = -1510.29406587
   11   -1510.2940627182      5.18E-09 Convergence criterion met
 Total energy in the final basis set = -1510.29406272

             Standard Nuclear Orientation (Angstroms)
    I     Atom           X                Y                Z
 ----------------------------------------------------------------
    1      O      -3.6534736741     2.0574847010     1.6369326718
    2      C      -3.6066727124     1.5391481976     0.5022328190
    3      C      -4.5460745799     0.4210084658    -0.0783443285
    4      C      -3.7630794045    -0.8030873671    -0.7220170147
    5      C      -2.2086421796    -0.6258115579    -0.6470117458
    6      O      -1.7035233267    -0.4912336812    -1.9763192554
    7      C      -0.2657353171    -0.1328405956    -1.9672794129
    8      C       0.6920876576    -1.3348984048    -1.6340108926
    9      O       2.0412851038    -0.7273987608    -1.6917772787
   10      C       2.9885327887    -1.4050746674    -0.8553493233
   11      C       4.2583088874    -0.4831842608    -0.8403184130
   12      C       3.9197636577     0.9862114690    -0.3347179714
   13      C       2.4321666727     1.1460570758     0.1486048128
   14      O       1.5674481585     1.9495194090    -0.2709621878
   15      O      -2.6550517460     1.8908468774    -0.5099730467
   16      O       2.2217168945     0.2145434685     1.2075668087
   17      O       2.7897321981    -2.4939276848    -0.2814504562
   18      C       0.8763523228     0.3820380558     1.8094525267
   19      C       5.3438295386    -0.9381556185     0.2176561765
   20      C       6.7064111683    -0.2305178352    -0.1481453361
   21      C       6.4023047356     1.2506483714     0.2917673042
   22      C       4.9402578413     1.1052546129     0.8782133593
   23      O       4.9306025133    -0.2534454757     1.4647718096
   24      H       4.6759563658    -0.4539992823    -1.8635541421
   25      H       4.1094905324     1.7410742001    -1.1173392806
   26      H       5.3911882974    -2.0332527230     0.3751544053
   27      H       7.5329056697    -0.6627471474     0.4380187907
   28      H       6.9488155022    -0.3169418951    -1.2194324455
   29      H       7.0990447560     1.5924784547     1.0735162314
   30      H       6.4406030567     1.9595898674    -0.5507191266
   31      H       4.6622258097     1.8585008822     1.6407031801
   32      O      -1.5078701292    -0.6348082859     0.3908386886
   33      C      -1.6839843323     2.8781312298     0.0169838502
   34      C      -5.3416044833    -0.3009014299     1.0848306649
   35      C      -6.5316409305    -1.1233460073     0.4540723246
   36      C      -5.7562822764    -2.3338132098    -0.1878565678
   37      C      -4.2664170573    -1.9890224938     0.2088477068
   38      O      -4.3968260026    -1.3501680139     1.5371807036
   39      H      -5.2237393776     0.8832819756    -0.8197591606
   40      H      -4.0443794343    -0.9523080412    -1.7788000353
   41      H      -1.1155889345     2.4641472381     0.8735561150
   42      H      -5.6052226774     0.3691243190     1.9264112778
   43      H      -7.2247851613    -1.4599727569     1.2413688857
   44      H      -7.0981860327    -0.5380630414    -0.2878569737
   45      H      -6.0599648650    -3.2922581371     0.2620896636
   46      H      -5.8920204682    -2.3968894145    -1.2794416539
   47      H      -3.5782036549    -2.8547376326     0.2611600689
   48      H      -2.1870699592     3.8125411777     0.3384206800
   49      H      -0.9840664097     3.0937881289    -0.8109007405
   50      H       0.8914713276    -0.2196845229     2.7361997925
   51      H       0.0598438578     0.0109838949     1.1449482693
   52      H       0.6860932637     1.4434368536     2.0654029452
   53      H       0.4821067366    -1.7466973836    -0.6247079251
   54      H       0.5892731068    -2.1509512445    -2.3822975895
   55      H      -0.0530801198     0.6897433468    -1.2482100291
   56      H      -0.0513797505     0.2289333388    -2.9927427970
 ----------------------------------------------------------------

   11   -1510.2940633573      5.44E-09 Convergence criterion met
 Total energy in the final basis set = -1510.29406336
 Final energy is   -1510.29406335734
 **  OPTIMIZATION CONVERGED  **

                    Orbital Energies (a.u.)
 --------------------------------------------------------------

 Alpha MOs
 -- Occupied --
-18.942 -18.937 -18.930 -18.926 -18.888 -18.885 -18.881 -18.881
-18.880 -18.865 -10.110 -10.102 -10.101 -10.094 -10.072 -10.071
-10.062 -10.061 -10.059 -10.058 -10.056 -10.041 -10.040 -10.038
-10.036 -10.034 -10.022 -10.021 -10.019 -10.018  -1.021  -1.014
 -1.010  -1.001  -0.971  -0.967  -0.944  -0.940  -0.938  -0.928
 -0.766  -0.762  -0.729  -0.723  -0.711  -0.704  -0.697  -0.661
 -0.648  -0.619  -0.596  -0.582  -0.548  -0.545  -0.539  -0.535
 -0.514  -0.508  -0.484  -0.475  -0.468  -0.463  -0.456  -0.440
 -0.434  -0.431  -0.427  -0.415  -0.412  -0.405  -0.402  -0.398
 -0.388  -0.380  -0.377  -0.363  -0.358  -0.358  -0.357  -0.351
 -0.346  -0.344  -0.334  -0.330  -0.329  -0.325  -0.322  -0.312
 -0.307  -0.306  -0.304  -0.300  -0.290  -0.288  -0.286  -0.278
 -0.274  -0.259  -0.255  -0.249  -0.240  -0.235  -0.231  -0.187
 -0.179  -0.178  -0.169  -0.160  -0.157  -0.153  -0.145  -0.145
 -0.140

          Ground-State Mulliken Net Atomic Charges

     Atom                 Charge (a.u.)
  ----------------------------------------
      1 O                    -0.206207
      2 C                     0.212660
      3 C                    -0.078164
      4 C                    -0.078765
      5 C                     0.221582
      6 O                    -0.167071
      7 C                    -0.051433
      8 C                    -0.052766
      9 O                    -0.180210
     10 C                     0.216789
     11 C                    -0.077541
     12 C                    -0.077718
     13 C                     0.209376
     14 O                    -0.227606
     15 O                    -0.173085
     16 O                    -0.169205
     17 O                    -0.204933
     18 C                    -0.146545
     19 C                     0.024550
     20 C                    -0.143581
     21 C                    -0.144353
     22 C                     0.026081
     23 O                    -0.183991
     24 H                     0.084105
     25 H                     0.083231
     26 H                     0.089440
     27 H                     0.077959
     28 H                     0.072398
     29 H                     0.077624
     30 H                     0.072854
     31 H                     0.082352
     32 O                    -0.220005
     33 C                    -0.129813
     34 C                     0.024132
     35 C                    -0.143994
     36 C                    -0.143821
     37 C                     0.025646
     38 O                    -0.186183
     39 H                     0.085847
     40 H                     0.087281
     41 H                     0.094309
     42 H                     0.091357
     43 H                     0.079015
     44 H                     0.073338
     45 H                     0.078790
     46 H                     0.073589
     47 H                     0.084063
     48 H                     0.088866
     49 H                     0.097821
     50 H                     0.088508
     51 H                     0.109856
     52 H                     0.077482
     53 H                     0.099309
     54 H                     0.083244
     55 H                     0.101785
     56 H                     0.091750
  ----------------------------------------
  Sum of atomic charges =    -0.000000

                    Cartesian Multipole Moments
 -----------------------------------------------------------------
    Charge (ESU x 10^10)
                 0.0000
    Dipole Moment (Debye)
         X      -0.4801      Y       0.7911      Z      -3.3246
       Tot       3.4509
    Quadrupole Moments (Debye-Ang)
        XX    -137.3478     XY       8.2385     YY    -160.0284
        XZ       0.8304     YZ       3.9918     ZZ    -164.7647

 Total job time:  69.85s(wall), 3320.49s(cpu)
        *  Thank you very much for using Q-Chem.  Have a nice day.  *
