 Q-Chem 5.0, Q-Chem, Inc., Pleasanton, CA (2017)
 Q-Chem 5.0.1 for Intel X86 EM64T Linux

User input:
--------------------------------------------------------------
$molecule
0  1
O -3.94934 -3.66094 2.70899
C -3.26408 -4.56952 2.26188
C -3.36658 -6.02376 2.66595
C -2.39355 -6.523 3.74661
C -1.54692 -5.47179 4.42945
O -0.3616 -5.32799 3.76631
C 0.54467 -4.43348 4.42037
C 1.04287 -5.04986 5.72345
O 1.91248 -4.12827 6.39971
C 2.42284 -4.56547 7.57765
C 3.33527 -3.55687 8.23405
C 2.78685 -2.1233 8.28291
C 1.30419 -1.97327 8.00737
O 0.8163 -1.36914 7.06314
O -2.21698 -4.26108 1.45338
O 0.4626 -2.64519 8.83984
O 2.06117 -5.59675 8.13146
C -0.90871 -2.68153 8.69905
C 3.64946 -3.79136 9.72562
C 4.97024 -3.10936 10.08269
C 4.56402 -1.64876 10.02217
C 3.06028 -1.79006 9.75982
O 2.71598 -2.99175 10.41153
H 4.28112 -3.59129 7.64744
H 3.31871 -1.45549 7.569
H 3.68317 -4.8652 10.01006
H 5.19448 -3.37054 11.14192
H 5.8388 -3.38679 9.44748
H 4.7479 -1.19207 11.01995
H 5.06244 -1.04901 9.23001
H 2.51393 -0.87931 10.09074
O -2.00188 -4.63834 5.20637
C -1.90062 -2.98268 1.04472
C -4.70832 -6.32067 3.37936
C -5.03878 -7.81038 3.28246
C -4.0273 -8.38588 4.24949
C -3.38445 -7.09815 4.77313
O -4.43083 -6.16052 4.7478
H -3.34958 -6.62228 1.72768
H -1.70985 -7.31202 3.35877
H -1.674 -2.34488 1.92587
H -5.55795 -5.7238 2.98032
H -6.05667 -7.95183 3.71177
H -5.0123 -8.23512 2.25597
H -4.57681 -8.9027 5.06761
H -3.27826 -9.07405 3.80133
H -2.91012 -7.27627 5.7639
H -2.74443 -2.54488 0.46967
H -1.0044 -3.02092 0.39222
H -1.3412 -3.2999 9.51197
H -1.18004 -3.13537 7.72174
H -1.32799 -1.65505 8.76716
H 0.18115 -5.27607 6.38866
H 1.58106 -5.99701 5.49425
H 0.07269 -3.43957 4.59385
H 1.42162 -4.27048 3.75883
$end

$opt
CONSTRAINT
tors           1           2           3           4     -95.895
tors           3           4           5           6     -91.519
tors           4           5           6           7    -174.842
tors           5           6           7           8     +68.988
tors           6           7           8           9    -177.868
tors           7           8           9          10    -179.965
tors           8           9          10          11    +179.603
tors           9          10          11          12     +46.779
tors          11          12          13          14    -116.438
ENDCONSTRAINT
$end

$rem
JOBTYPE                   OPT
METHOD                    B3LYP
DFT_D                     d3_op
BASIS                     STO-3G
GEOM_OPT_MAX_CYCLES       100
GEOM_OPT_TOL_GRADIENT     300
GEOM_OPT_TOL_DISPLACEMENT 1200
GEOM_OPT_TOL_ENERGY       100
SYMMETRY                  False
THRESH                    12
SCF_CONVERGENCE           8
MAX_SUB_FILE_NUM          128
MEM_STATIC                400
MEM_TOTAL                 4000
$end
--------------------------------------------------------------

   15   -1510.1520596193      5.82E-09 Convergence criterion met
 Total energy in the final basis set = -1510.15205962
   14   -1510.2214809192      8.58E-09 Convergence criterion met
 Total energy in the final basis set = -1510.22148092
   15   -1510.2590257612      1.15E-09 Convergence criterion met
 Total energy in the final basis set = -1510.25902576
   14   -1510.2762722687      9.38E-09 Convergence criterion met
 Total energy in the final basis set = -1510.27627227
   13   -1510.2827263498      6.91E-09 Convergence criterion met
 Total energy in the final basis set = -1510.28272635
   13   -1510.2852470984      6.67E-09 Convergence criterion met
 Total energy in the final basis set = -1510.28524710
   12   -1510.2860294354      9.26E-09 Convergence criterion met
 Total energy in the final basis set = -1510.28602944
   12   -1510.2863810633      7.00E-09 Convergence criterion met
   11   -1510.2875766160      3.36E-09 Convergence criterion met
 Total energy in the final basis set = -1510.28757662
   10   -1510.2875832329      9.53E-09 Convergence criterion met
 Total energy in the final basis set = -1510.28758323
   10   -1510.2875861690      3.85E-09 Convergence criterion met
 Total energy in the final basis set = -1510.28758617
   10   -1510.2875900894      5.54E-09 Convergence criterion met
 Total energy in the final basis set = -1510.28759009
   10   -1510.2875942335      9.95E-09 Convergence criterion met
 Total energy in the final basis set = -1510.28759423
   10   -1510.2875968608      7.56E-09 Convergence criterion met
 Total energy in the final basis set = -1510.28759686

             Standard Nuclear Orientation (Angstroms)
    I     Atom           X                Y                Z
 ----------------------------------------------------------------
    1      O      -4.0009249674     1.5935962419     1.7186191710
    2      C      -4.1715596737     1.3779840972     0.5000632635
    3      C      -4.7880535008     0.1005134011    -0.1730915530
    4      C      -3.6658827958    -0.9280759525    -0.6476718919
    5      C      -2.2152517132    -0.3784811889    -0.4387717612
    6      O      -1.8090105029     0.2951848388    -1.6375979674
    7      C      -0.3937591781     0.7229562501    -1.5252218457
    8      C       0.6022099922    -0.4893390553    -1.5309646121
    9      O       1.9342044385     0.1287983895    -1.3596552856
   10      C       2.9706406034    -0.8565661211    -1.3443749993
   11      C       4.3253092998    -0.0888469234    -1.1694251872
   12      C       4.2784249303     1.0078089200    -0.0177736579
   13      C       2.8730916825     1.1834595262     0.6708624691
   14      O       2.1575600019     2.2095688099     0.6580415169
   15      O      -3.7589639898     2.2714409938    -0.5413916571
   16      O       2.5504833262    -0.0219503408     1.3731475336
   17      O       2.7814629389    -2.0832395161    -1.4732040468
   18      C       1.2439676866     0.1092225624     2.0643682529
   19      C       5.4513319162    -1.0593169976    -0.6259214888
   20      C       6.8531701715    -0.3568320435    -0.8063223847
   21      C       6.8054588731     0.7138152794     0.3472164688
   22      C       5.3816702368     0.4286954713     0.9709901743
   23      O       5.2349188204    -1.0379393187     0.8396040555
   24      H       4.5987581803     0.3663868591    -2.1392507621
   25      H       4.5702103154     1.9976296042    -0.4107325672
   26      H       5.3722957731    -2.0939092635    -1.0134385720
   27      H       7.6697828107    -1.0797754561    -0.6522463145
   28      H       6.9657964020     0.0963147016    -1.8042060878
   29      H       7.5947019944     0.5356045015     1.0946825439
   30      H       6.8976449688     1.7466132247    -0.0249329182
   31      H       5.2588581442     0.7363318227     2.0273650438
   32      O      -1.5012375936    -0.4918756790     0.5836958299
   33      C      -3.0537305310     3.4366984104     0.0407396882
   34      C      -5.5559990197    -0.7817324062     0.8955495967
   35      C      -6.3892283566    -1.8903664024     0.1389717231
   36      C      -5.2541700610    -2.9004839824    -0.2728340190
   37      C      -3.9764011433    -2.1662757188     0.2937803946
   38      O      -4.4626379926    -1.5425083146     1.5445132618
   39      H      -5.4265076656     0.4074523048    -1.0204440737
   40      H      -3.7913642839    -1.1739232144    -1.7169738925
   41      H      -2.1313172685     3.1271469391     0.5738787779
   42      H      -6.1144034748    -0.1951841999     1.6504087113
   43      H      -7.1172425953    -2.3562435770     0.8216815572
   44      H      -6.9312382966    -1.4824436660    -0.7293626544
   45      H      -5.3848859369    -3.8771323787     0.2198071956
   46      H      -5.1972872722    -3.0582668023    -1.3618124122
   47      H      -3.1031303575    -2.8148702978     0.5001225087
   48      H      -3.6985210691     3.9952313387     0.7494724630
   49      H      -2.7865868176     4.0885875330    -0.8110693931
   50      H       1.2266031395    -0.6845066706     2.8336921886
   51      H       0.3823290477    -0.0391574318     1.3747918533
   52      H       1.1440379275     1.1007403929     2.5486490915
   53      H       0.3760106815    -1.1832360376    -0.6941528204
   54      H       0.5374415467    -1.0535216737    -2.4865744392
   55      H      -0.2248817975     1.3190678648    -0.6016838426
   56      H      -0.2081320921     1.3680698364    -2.4066040514
 ----------------------------------------------------------------

    9   -1510.2875974816      9.45E-09 Convergence criterion met
 Total energy in the final basis set = -1510.28759748
 Final energy is   -1510.28759748161
 **  OPTIMIZATION CONVERGED  **

                    Orbital Energies (a.u.)
 --------------------------------------------------------------

 Alpha MOs
 -- Occupied --
-18.945 -18.939 -18.934 -18.919 -18.889 -18.888 -18.884 -18.882
-18.878 -18.858 -10.110 -10.104 -10.099 -10.090 -10.079 -10.076
-10.064 -10.062 -10.060 -10.057 -10.056 -10.043 -10.042 -10.041
-10.037 -10.032 -10.022 -10.021 -10.018 -10.017  -1.024  -1.017
 -1.011  -0.996  -0.971  -0.966  -0.948  -0.942  -0.936  -0.923
 -0.767  -0.761  -0.731  -0.723  -0.712  -0.704  -0.699  -0.663
 -0.647  -0.620  -0.597  -0.585  -0.550  -0.544  -0.539  -0.535
 -0.515  -0.508  -0.486  -0.470  -0.468  -0.463  -0.458  -0.444
 -0.434  -0.431  -0.427  -0.415  -0.412  -0.403  -0.401  -0.400
 -0.395  -0.385  -0.374  -0.363  -0.362  -0.358  -0.354  -0.351
 -0.346  -0.341  -0.335  -0.333  -0.331  -0.327  -0.322  -0.313
 -0.308  -0.307  -0.304  -0.298  -0.293  -0.287  -0.284  -0.278
 -0.276  -0.262  -0.254  -0.250  -0.239  -0.235  -0.231  -0.189
 -0.181  -0.177  -0.168  -0.160  -0.158  -0.152  -0.145  -0.142
 -0.139

          Ground-State Mulliken Net Atomic Charges

     Atom                 Charge (a.u.)
  ----------------------------------------
      1 O                    -0.205634
      2 C                     0.204661
      3 C                    -0.077320
      4 C                    -0.078381
      5 C                     0.209183
      6 O                    -0.165446
      7 C                    -0.049059
      8 C                    -0.050200
      9 O                    -0.174482
     10 C                     0.217894
     11 C                    -0.078336
     12 C                    -0.079191
     13 C                     0.212163
     14 O                    -0.224736
     15 O                    -0.170292
     16 O                    -0.173100
     17 O                    -0.207415
     18 C                    -0.139799
     19 C                     0.024198
     20 C                    -0.144288
     21 C                    -0.143997
     22 C                     0.026066
     23 O                    -0.185923
     24 H                     0.084442
     25 H                     0.082338
     26 H                     0.089385
     27 H                     0.077907
     28 H                     0.072284
     29 H                     0.077578
     30 H                     0.073018
     31 H                     0.083659
     32 O                    -0.210373
     33 C                    -0.129252
     34 C                     0.025645
     35 C                    -0.144439
     36 C                    -0.143484
     37 C                     0.025652
     38 O                    -0.184105
     39 H                     0.086772
     40 H                     0.087198
     41 H                     0.089850
     42 H                     0.087920
     43 H                     0.078905
     44 H                     0.073402
     45 H                     0.079151
     46 H                     0.073325
     47 H                     0.086578
     48 H                     0.089944
     49 H                     0.090966
     50 H                     0.087691
     51 H                     0.098046
     52 H                     0.086622
     53 H                     0.096589
     54 H                     0.087194
     55 H                     0.098678
     56 H                     0.094347
  ----------------------------------------
  Sum of atomic charges =    -0.000000

                    Cartesian Multipole Moments
 -----------------------------------------------------------------
    Charge (ESU x 10^10)
                 0.0000
    Dipole Moment (Debye)
         X      -0.6823      Y       0.9411      Z      -3.2977
       Tot       3.4966
    Quadrupole Moments (Debye-Ang)
        XX    -138.7752     XY       9.1516     YY    -160.7442
        XZ       2.9830     YZ       1.5611     ZZ    -162.5205

 Total job time:  63.41s(wall), 3018.25s(cpu)
        *  Thank you very much for using Q-Chem.  Have a nice day.  *
