 Q-Chem 5.0, Q-Chem, Inc., Pleasanton, CA (2017)
 Q-Chem 5.0.1 for Intel X86 EM64T Linux

User input:
--------------------------------------------------------------
$molecule
0  1
O -3.94934 -3.66094 2.70899
C -3.26408 -4.56952 2.26188
C -3.36658 -6.02376 2.66595
C -2.33264 -6.54676 3.67654
C -1.42231 -5.51512 4.30511
O -0.38383 -5.23773 3.46247
C 0.53275 -4.27616 3.99587
C 1.28473 -4.86896 5.18298
O 2.17928 -3.88971 5.73411
C 2.90872 -4.30113 6.80078
C 3.83592 -3.23165 7.32726
C 3.19381 -1.84792 7.50405
C 1.67892 -1.81421 7.47783
O 0.99665 -1.28002 6.61544
O -2.23903 -4.26404 1.42438
O 1.04153 -2.53771 8.43854
O 2.7257 -5.36664 7.37722
C -0.32676 -2.68695 8.52326
C 4.4099 -3.45945 8.74062
C 5.7158 -2.67936 8.89294
C 5.19538 -1.25466 8.93579
C 3.68401 -1.51123 8.92272
O 3.5457 -2.74461 9.59144
H 4.67192 -3.18122 6.59338
H 3.54549 -1.13432 6.72583
H 4.57185 -4.53071 8.9882
H 6.13082 -2.93461 9.89449
H 6.48648 -2.8796 8.11783
H 5.50876 -0.79573 9.89968
H 5.50686 -0.60901 8.08621
H 3.13255 -0.6508 9.36199
O -1.64403 -4.9563 5.37497
C -1.93296 -2.98714 1.00339
C -4.67338 -6.29583 3.44558
C -5.03422 -7.77924 3.37056
C -3.98976 -8.36605 4.29183
C -3.29014 -7.08756 4.76269
O -4.31693 -6.12994 4.79251
H -3.40441 -6.61358 1.723
H -1.69929 -7.38124 3.30046
H -1.68273 -2.34688 1.87634
H -5.53259 -5.6861 3.08861
H -6.03429 -7.9063 3.84385
H -5.0565 -8.20323 2.34361
H -4.50944 -8.85149 5.148
H -3.2862 -9.085 3.81919
H -2.77217 -7.27709 5.72928
H -2.7913 -2.55055 0.44936
H -1.05407 -3.02808 0.32789
H -0.56935 -3.32418 9.39809
H -0.7147 -3.1777 7.60495
H -0.81245 -1.69655 8.65494
H 0.59361 -5.19542 5.98525
H 1.85724 -5.75753 4.83371
H 0.00124 -3.33954 4.28107
H 1.27229 -4.01532 3.20953
$end

$opt
CONSTRAINT
tors           1           2           3           4     -99.911
tors           3           4           5           6     -82.165
tors           4           5           6           7    -179.371
tors           5           6           7           8     +68.249
tors           6           7           8           9    -178.619
tors           7           8           9          10    -179.965
tors           8           9          10          11    +179.569
tors           9          10          11          12     +46.779
tors          11          12          13          14    -113.559
ENDCONSTRAINT
$end

$rem
JOBTYPE                   OPT
METHOD                    B3LYP
DFT_D                     d3_op
BASIS                     STO-3G
GEOM_OPT_MAX_CYCLES       100
GEOM_OPT_TOL_GRADIENT     300
GEOM_OPT_TOL_DISPLACEMENT 1200
GEOM_OPT_TOL_ENERGY       100
SYMMETRY                  False
THRESH                    12
SCF_CONVERGENCE           8
MAX_SUB_FILE_NUM          128
MEM_STATIC                400
MEM_TOTAL                 4000
$end
--------------------------------------------------------------

   15   -1510.1567772211      5.94E-09 Convergence criterion met
 Total energy in the final basis set = -1510.15677722
   14   -1510.2256749893      7.17E-09 Convergence criterion met
 Total energy in the final basis set = -1510.22567499
   15   -1510.2625337447      1.18E-09 Convergence criterion met
 Total energy in the final basis set = -1510.26253374
   14   -1510.2786254435      9.83E-09 Convergence criterion met
 Total energy in the final basis set = -1510.27862544
   13   -1510.2836121366      8.41E-09 Convergence criterion met
 Total energy in the final basis set = -1510.28361214
    3   -1510.2836121367      4.61E-10 Convergence criterion met
 Total energy in the final basis set = -1510.28361214
   13   -1510.2850400621      4.33E-09 Convergence criterion met
 Total energy in the final basis set = -1510.28504006
   13   -1510.2854837960      6.04E-09 Convergence criterion met
   11   -1510.2872490264      3.39E-09 Convergence criterion met
 Total energy in the final basis set = -1510.28724903
   10   -1510.2872509004      9.29E-09 Convergence criterion met
 Total energy in the final basis set = -1510.28725090
    9   -1510.2872520437      8.53E-09 Convergence criterion met
 Total energy in the final basis set = -1510.28725204
    9   -1510.2872538288      8.06E-09 Convergence criterion met
 Total energy in the final basis set = -1510.28725383
   10   -1510.2872565201      8.32E-09 Convergence criterion met
 Total energy in the final basis set = -1510.28725652
   10   -1510.2872575579      8.96E-09 Convergence criterion met
 Total energy in the final basis set = -1510.28725756

             Standard Nuclear Orientation (Angstroms)
    I     Atom           X                Y                Z
 ----------------------------------------------------------------
    1      O      -3.8912316741     1.6042009217     1.7591303469
    2      C      -4.0591086482     1.4066475986     0.5366903293
    3      C      -4.7442653295     0.1723668009    -0.1502465715
    4      C      -3.7011729313    -0.8917038600    -0.7192776630
    5      C      -2.2103358003    -0.4777931454    -0.4761634301
    6      O      -1.8216768515     0.4426200093    -1.5037049196
    7      C      -0.4077448380     0.8473356746    -1.3163266474
    8      C       0.6075678298    -0.3217201578    -1.5739674358
    9      O       1.9280889697     0.2846992100    -1.3017401418
   10      C       2.9908609329    -0.6519924308    -1.4903167080
   11      C       4.3271946736     0.1089769907    -1.1844560908
   12      C       4.2685598769     0.9591160695     0.1597756300
   13      C       2.8584261725     1.0104840055     0.8582546107
   14      O       2.1309036914     2.0194658471     0.9939697712
   15      O      -3.6394712881     2.3115466337    -0.4904893772
   16      O       2.5487253312    -0.2890024857     1.3737666573
   17      O       2.8343875603    -1.8357846884    -1.8524332648
   18      C       1.2337766964    -0.2796343719     2.0618816880
   19      C       5.4808773790    -0.9200606647    -0.8477277358
   20      C       6.8640285185    -0.1598265126    -0.8637843704
   21      C       6.7918414562     0.6328550482     0.4940346886
   22      C       5.3672020227     0.2008790048     1.0247460877
   23      O       5.2534500991    -1.2092840521     0.5879452071
   24      H       4.5721332371     0.7515531616    -2.0505309067
   25      H       4.5653855497     2.0047794921    -0.0345216584
   26      H       5.4329416217    -1.8525971065    -1.4431643443
   27      H       7.6992824060    -0.8779946324    -0.8700908596
   28      H       6.9623202213     0.5032885224    -1.7383055510
   29      H       7.5772052942     0.3052580856     1.1938971008
   30      H       6.8733589867     1.7230208766     0.3570680853
   31      H       5.2261542882     0.2791043865     2.1199620899
   32      O      -1.4632364948    -0.8485008394     0.4579345553
   33      C      -2.9068578768     3.4525925826     0.1050974757
   34      C      -5.5209413447    -0.7154597508     0.9087886286
   35      C      -6.4805299548    -1.7009272605     0.1346186664
   36      C      -5.4498500863    -2.7471274460    -0.4321242259
   37      C      -4.0910185623    -2.1723073657     0.1302810400
   38      O      -4.4667881480    -1.6064083920     1.4460884154
   39      H      -5.4012695452     0.5401952711    -0.9587333105
   40      H      -3.8501893796    -1.0414563065    -1.8036456708
   41      H      -1.9772308104     3.1187997839     0.6101494199
   42      H      -5.9870815443    -0.1355946393     1.7286765005
   43      H      -7.1900414708    -2.1721714336     0.8330238104
   44      H      -7.0516063273    -1.1918467945    -0.6583493497
   45      H      -5.6351125007    -3.7553522484    -0.0290501680
   46      H      -5.4560463505    -2.7996107709    -1.5325462028
   47      H      -3.2713518601    -2.9074345066     0.2473818473
   48      H      -3.5292896258     4.0013104503     0.8409646265
   49      H      -2.6489990349     4.1217036678    -0.7361481155
   50      H       1.2556956235    -1.1175978290     2.7826799573
   51      H       0.3897928055    -0.4360370558     1.3526147118
   52      H       1.0729766143     0.6755867069     2.5997123875
   53      H       0.4080132558    -1.1706821194    -0.8870523428
   54      H       0.5386420080    -0.6875125481    -2.6215546598
   55      H      -0.2374847759     1.2424971929    -0.2911334614
   56      H      -0.2348201566     1.6624371639    -2.0464195725
 ----------------------------------------------------------------

    9   -1510.2872576998      7.72E-09 Convergence criterion met
 Total energy in the final basis set = -1510.28725770
 Final energy is   -1510.28725769984
 **  OPTIMIZATION CONVERGED  **

                    Orbital Energies (a.u.)
 --------------------------------------------------------------

 Alpha MOs
 -- Occupied --
-18.946 -18.939 -18.935 -18.919 -18.889 -18.888 -18.884 -18.882
-18.878 -18.858 -10.110 -10.104 -10.099 -10.090 -10.079 -10.076
-10.064 -10.061 -10.060 -10.056 -10.056 -10.043 -10.041 -10.041
-10.038 -10.032 -10.022 -10.021 -10.018 -10.017  -1.024  -1.018
 -1.011  -0.996  -0.971  -0.966  -0.948  -0.942  -0.937  -0.922
 -0.767  -0.761  -0.731  -0.723  -0.711  -0.704  -0.699  -0.664
 -0.647  -0.620  -0.597  -0.585  -0.549  -0.544  -0.539  -0.535
 -0.515  -0.508  -0.486  -0.470  -0.468  -0.463  -0.458  -0.444
 -0.435  -0.431  -0.427  -0.415  -0.412  -0.403  -0.401  -0.400
 -0.394  -0.385  -0.374  -0.364  -0.362  -0.358  -0.353  -0.351
 -0.346  -0.341  -0.336  -0.332  -0.332  -0.327  -0.322  -0.313
 -0.308  -0.306  -0.304  -0.298  -0.293  -0.287  -0.284  -0.278
 -0.276  -0.263  -0.253  -0.249  -0.239  -0.235  -0.230  -0.191
 -0.181  -0.175  -0.168  -0.160  -0.158  -0.152  -0.145  -0.143
 -0.139

          Ground-State Mulliken Net Atomic Charges

     Atom                 Charge (a.u.)
  ----------------------------------------
      1 O                    -0.207601
      2 C                     0.204391
      3 C                    -0.077701
      4 C                    -0.077664
      5 C                     0.209523
      6 O                    -0.164494
      7 C                    -0.048951
      8 C                    -0.050378
      9 O                    -0.174552
     10 C                     0.217842
     11 C                    -0.077935
     12 C                    -0.079495
     13 C                     0.212539
     14 O                    -0.225635
     15 O                    -0.168230
     16 O                    -0.173276
     17 O                    -0.207151
     18 C                    -0.140803
     19 C                     0.024059
     20 C                    -0.144440
     21 C                    -0.143716
     22 C                     0.025896
     23 O                    -0.186102
     24 H                     0.084458
     25 H                     0.082236
     26 H                     0.089407
     27 H                     0.077914
     28 H                     0.072276
     29 H                     0.077459
     30 H                     0.072926
     31 H                     0.084191
     32 O                    -0.210364
     33 C                    -0.128843
     34 C                     0.025287
     35 C                    -0.144103
     36 C                    -0.144006
     37 C                     0.025289
     38 O                    -0.185141
     39 H                     0.086625
     40 H                     0.087089
     41 H                     0.089260
     42 H                     0.088464
     43 H                     0.078941
     44 H                     0.073343
     45 H                     0.079019
     46 H                     0.073233
     47 H                     0.087364
     48 H                     0.090136
     49 H                     0.090880
     50 H                     0.087192
     51 H                     0.097512
     52 H                     0.088137
     53 H                     0.098367
     54 H                     0.087035
     55 H                     0.097840
     56 H                     0.094449
  ----------------------------------------
  Sum of atomic charges =    -0.000000

                    Cartesian Multipole Moments
 -----------------------------------------------------------------
    Charge (ESU x 10^10)
                 0.0000
    Dipole Moment (Debye)
         X      -0.8059      Y       1.4545      Z      -3.0189
       Tot       3.4465
    Quadrupole Moments (Debye-Ang)
        XX    -138.5745     XY       9.6570     YY    -161.3459
        XZ       4.4432     YZ       0.3045     ZZ    -162.2279

 Total job time:  65.11s(wall), 3094.03s(cpu)
        *  Thank you very much for using Q-Chem.  Have a nice day.  *
