 Q-Chem 5.0, Q-Chem, Inc., Pleasanton, CA (2017)
 Q-Chem 5.0.1 for Intel X86 EM64T Linux

User input:
--------------------------------------------------------------
$molecule
0  1
O -3.8912316741 1.6042009217 1.7591303469
C -4.0591086482 1.4066475986 0.5366903293
C -4.7442653295 0.1723668009 -0.1502465715
C -3.7011729313 -0.89170386 -0.719277663
C -2.2103358003 -0.4777931454 -0.4761634301
O -1.8216768515 0.4426200093 -1.5037049196
C -0.407744838 0.8473356746 -1.3163266474
C 0.6075678298 -0.3217201578 -1.5739674358
O 1.9280889697 0.28469921 -1.3017401418
C 2.9908609329 -0.6519924308 -1.490316708
C 4.3271946736 0.1089769907 -1.1844560908
C 4.2685598769 0.9591160695 0.15977563
C 2.8584261725 1.0104840055 0.8582546107
O 2.1309036914 2.0194658471 0.9939697712
O -3.6394712881 2.3115466337 -0.4904893772
O 2.5487253312 -0.2890024857 1.3737666573
O 2.8343875603 -1.8357846884 -1.8524332648
C 1.2337766964 -0.2796343719 2.061881688
C 5.480877379 -0.9200606647 -0.8477277358
C 6.8640285185 -0.1598265126 -0.8637843704
C 6.7918414562 0.6328550482 0.4940346886
C 5.3672020227 0.2008790048 1.0247460877
O 5.2534500991 -1.2092840521 0.5879452071
H 4.5721332371 0.7515531616 -2.0505309067
H 4.5653855497 2.0047794921 -0.0345216584
H 5.4329416217 -1.8525971065 -1.4431643443
H 7.699282406 -0.8779946324 -0.8700908596
H 6.9623202213 0.5032885224 -1.738305551
H 7.5772052942 0.3052580856 1.1938971008
H 6.8733589867 1.7230208766 0.3570680853
H 5.2261542882 0.2791043865 2.1199620899
O -1.4632364948 -0.8485008394 0.4579345553
C -2.9068578768 3.4525925826 0.1050974757
C -5.5209413447 -0.7154597508 0.9087886286
C -6.4805299548 -1.7009272605 0.1346186664
C -5.4498500863 -2.747127446 -0.4321242259
C -4.0910185623 -2.1723073657 0.13028104
O -4.466788148 -1.606408392 1.4460884154
H -5.4012695452 0.5401952711 -0.9587333105
H -3.8501893796 -1.0414563065 -1.8036456708
H -1.9772308104 3.1187997839 0.6101494199
H -5.9870815443 -0.1355946393 1.7286765005
H -7.1900414708 -2.1721714336 0.8330238104
H -7.0516063273 -1.1918467945 -0.6583493497
H -5.6351125007 -3.7553522484 -0.029050168
H -5.4560463505 -2.7996107709 -1.5325462028
H -3.2713518601 -2.9074345066 0.2473818473
H -3.5292896258 4.0013104503 0.8409646265
H -2.6489990349 4.1217036678 -0.7361481155
H 1.2556956235 -1.117597829 2.7826799573
H 0.3897928055 -0.4360370558 1.3526147118
H 1.0729766143 0.6755867069 2.5997123875
H 0.4080132558 -1.1706821194 -0.8870523428
H 0.538642008 -0.6875125481 -2.6215546598
H -0.2374847759 1.2424971929 -0.2911334614
H -0.2348201566 1.6624371639 -2.0464195725
$end

$rem
JOBTYPE                   OPT
METHOD                    B3LYP
DFT_D                     d3_op
BASIS                     STO-3G
GEOM_OPT_MAX_CYCLES       100
GEOM_OPT_TOL_GRADIENT     300
GEOM_OPT_TOL_DISPLACEMENT 1200
GEOM_OPT_TOL_ENERGY       100
SYMMETRY                  False
THRESH                    12
SCF_CONVERGENCE           8
MAX_SUB_FILE_NUM          128
MEM_STATIC                400
MEM_TOTAL                 4000
$end
--------------------------------------------------------------

   16   -1510.2874768394      5.18E-09 Convergence criterion met
 Total energy in the final basis set = -1510.28747684
   14   -1510.2752039987      7.68E-09 Convergence criterion met
 Total energy in the final basis set = -1510.27520400
   14   -1510.2875657300      9.22E-09 Convergence criterion met
 Total energy in the final basis set = -1510.28756573
   14   -1510.2880953867      3.10E-09 Convergence criterion met
 Total energy in the final basis set = -1510.28809539
   14   -1510.2884248368      5.19E-09 Convergence criterion met
 Total energy in the final basis set = -1510.28842484
   13   -1510.2891967078      8.52E-09 Convergence criterion met
 Total energy in the final basis set = -1510.28919671
   13   -1510.2899730449      3.53E-09 Convergence criterion met
 Total energy in the final basis set = -1510.28997304
   14   -1510.2907556350      5.24E-09 Convergence criterion met
   11   -1510.2998769134      7.33E-09 Convergence criterion met
 Total energy in the final basis set = -1510.29987691
   11   -1510.2998769887      5.61E-09 Convergence criterion met
 Total energy in the final basis set = -1510.29987699
   11   -1510.2998764524      5.67E-09 Convergence criterion met
 Total energy in the final basis set = -1510.29987645
   11   -1510.2998775218      4.26E-09 Convergence criterion met
 Total energy in the final basis set = -1510.29987752
   10   -1510.2998766848      9.50E-09 Convergence criterion met
 Total energy in the final basis set = -1510.29987668
   11   -1510.2998788606      1.48E-09 Convergence criterion met
 Total energy in the final basis set = -1510.29987886

             Standard Nuclear Orientation (Angstroms)
    I     Atom           X                Y                Z
 ----------------------------------------------------------------
    1      O      -2.7830863954     2.0153946930     1.6559490694
    2      C      -3.0502909859     1.5609550097     0.5228993861
    3      C      -4.0155173805     0.3712523229     0.1723813741
    4      C      -3.3437522688    -0.7283416993    -0.7571167482
    5      C      -1.8405776161    -0.4197570330    -1.0669010799
    6      O      -1.6756650203    -0.1981023400    -2.4692152060
    7      C      -0.2675024244     0.1758473074    -2.7559237411
    8      C       0.6729249981    -1.0866445604    -2.8849028306
    9      O       2.0559930311    -0.6763704565    -2.5416097811
   10      C       2.3494372232    -1.0296615466    -1.1797522059
   11      C       3.6944044908    -0.3358966629    -0.7858010364
   12      C       3.4721198614     0.9701190044     0.1031335372
   13      C       1.9497846181     1.2347229732     0.4081598105
   14      O       1.1115748427     1.6597050252    -0.4291435844
   15      O      -2.5227093603     2.0601589619    -0.7065533152
   16      O       1.6647909419     0.9120805114     1.7535593679
   17      O       1.6240741628    -1.7582132144    -0.4686278591
   18      C       0.2080352914     1.0048712427     2.0395322796
   19      C       4.5706684567    -1.2197425804     0.2002600785
   20      C       6.0407488397    -0.6439726756     0.1944461646
   21      C       5.8493093405     0.6751687531     1.0310784802
   22      C       4.3125309507     0.5927872852     1.3915883408
   23      O       4.0640692689    -0.8596985532     1.5432487304
   24      H       4.2384491692    -0.0883515645    -1.7142367706
   25      H       3.8745628151     1.8597880124    -0.4144076682
   26      H       4.4843823607    -2.3111408362     0.0350070387
   27      H       6.7284863209    -1.3433533038     0.6958711894
   28      H       6.4112164147    -0.4536661171    -0.8255680320
   29      H       6.4593720097     0.6630687438     1.9480205175
   30      H       6.0936438118     1.5832771543     0.4570136432
   31      H       4.0098954686     1.1342927085     2.3076686769
   32      O      -0.8914282420    -0.4029410571    -0.2500237673
   33      C      -1.4881092539     3.0964837537    -0.4626322642
   34      C      -4.3677213189    -0.4841087608     1.4576262848
   35      C      -5.6251115544    -1.3813585736     1.1325709266
   36      C      -4.9862289992    -2.4663737430     0.1882081764
   37      C      -3.4740217891    -2.0095571374     0.1740830977
   38      O      -3.2564633661    -1.4619696414     1.5320374902
   39      H      -4.9212260840     0.7860975944    -0.3074268619
   40      H      -3.8852929356    -0.8419122903    -1.7123363283
   41      H      -1.7171941628     3.6697039817     0.4569175846
   42      H      -4.4222329268     0.1114047934     2.3897199299
   43      H      -6.0228899468    -1.8339633483     2.0548067510
   44      H      -6.4300311041    -0.8099308876     0.6434035296
   45      H      -5.0792113231    -3.4784698016     0.6131365652
   46      H      -5.4274830343    -2.4657597956    -0.8213744616
   47      H      -2.7392572529    -2.8090762954    -0.0423528156
   48      H      -1.5014003225     3.7670484781    -1.3412595484
   49      H      -0.4867195010     2.6085785351    -0.3693699230
   50      H       0.0762580171     0.5620515679     3.0428821492
   51      H      -0.3726975708     0.4311266675     1.2791921750
   52      H      -0.1308799536     2.0598050308     2.0565262561
   53      H       0.3438740379    -1.8751338415    -2.1735888696
   54      H       0.6866395342    -1.4847791296    -3.9188263090
   55      H       0.1459169590     0.8194196696    -1.9421900699
   56      H      -0.2961211667     0.7416019883    -3.7072827283
 ----------------------------------------------------------------

    9   -1510.2998794652      8.72E-09 Convergence criterion met
 Total energy in the final basis set = -1510.29987947
 Final energy is   -1510.29987946520
 **  OPTIMIZATION CONVERGED  **

                    Orbital Energies (a.u.)
 --------------------------------------------------------------

 Alpha MOs
 -- Occupied --
-18.939 -18.933 -18.928 -18.928 -18.885 -18.885 -18.876 -18.876
-18.873 -18.872 -10.105 -10.101 -10.096 -10.096 -10.062 -10.058
-10.058 -10.057 -10.056 -10.056 -10.039 -10.038 -10.036 -10.036
-10.036 -10.035 -10.019 -10.019 -10.018 -10.018  -1.015  -1.010
 -1.007  -1.003  -0.968  -0.967  -0.936  -0.936  -0.932  -0.931
 -0.762  -0.761  -0.724  -0.721  -0.709  -0.703  -0.691  -0.652
 -0.647  -0.615  -0.594  -0.577  -0.544  -0.543  -0.535  -0.534
 -0.510  -0.505  -0.478  -0.473  -0.462  -0.458  -0.450  -0.443
 -0.434  -0.430  -0.426  -0.422  -0.409  -0.404  -0.398  -0.392
 -0.382  -0.375  -0.371  -0.362  -0.358  -0.356  -0.353  -0.348
 -0.343  -0.338  -0.330  -0.328  -0.327  -0.322  -0.316  -0.308
 -0.307  -0.304  -0.302  -0.297  -0.286  -0.284  -0.283  -0.275
 -0.269  -0.259  -0.246  -0.241  -0.238  -0.232  -0.230  -0.186
 -0.175  -0.171  -0.161  -0.158  -0.154  -0.149  -0.148  -0.141
 -0.140

          Ground-State Mulliken Net Atomic Charges

     Atom                 Charge (a.u.)
  ----------------------------------------
      1 O                    -0.214255
      2 C                     0.210815
      3 C                    -0.078418
      4 C                    -0.078684
      5 C                     0.219115
      6 O                    -0.168389
      7 C                    -0.061108
      8 C                    -0.057527
      9 O                    -0.174036
     10 C                     0.206733
     11 C                    -0.078892
     12 C                    -0.076995
     13 C                     0.220606
     14 O                    -0.226127
     15 O                    -0.174538
     16 O                    -0.158672
     17 O                    -0.202406
     18 C                    -0.144038
     19 C                     0.025803
     20 C                    -0.143748
     21 C                    -0.144760
     22 C                     0.025636
     23 O                    -0.183776
     24 H                     0.086006
     25 H                     0.084059
     26 H                     0.085074
     27 H                     0.077963
     28 H                     0.072879
     29 H                     0.077918
     30 H                     0.072355
     31 H                     0.090655
     32 O                    -0.217407
     33 C                    -0.150281
     34 C                     0.023617
     35 C                    -0.143821
     36 C                    -0.144072
     37 C                     0.025494
     38 O                    -0.186795
     39 H                     0.084786
     40 H                     0.086577
     41 H                     0.086483
     42 H                     0.090159
     43 H                     0.078223
     44 H                     0.072906
     45 H                     0.078232
     46 H                     0.073256
     47 H                     0.084689
     48 H                     0.081533
     49 H                     0.111186
     50 H                     0.090451
     51 H                     0.121896
     52 H                     0.083155
     53 H                     0.099319
     54 H                     0.083908
     55 H                     0.112251
     56 H                     0.085009
  ----------------------------------------
  Sum of atomic charges =    -0.000000

                    Cartesian Multipole Moments
 -----------------------------------------------------------------
    Charge (ESU x 10^10)
                 0.0000
    Dipole Moment (Debye)
         X       0.0759      Y       0.7447      Z      -2.4356
       Tot       2.5481
    Quadrupole Moments (Debye-Ang)
        XX    -135.9441     XY       6.8397     YY    -157.0462
        XZ      -0.8637     YZ       4.4477     ZZ    -163.0105

 Total job time:  181.71s(wall), 8669.21s(cpu)
        *  Thank you very much for using Q-Chem.  Have a nice day.  *
