 Q-Chem 5.0, Q-Chem, Inc., Pleasanton, CA (2017)
 Q-Chem 5.0.1 for Intel X86 EM64T Linux

User input:
--------------------------------------------------------------
$molecule
0  1
O -3.8010596405 1.2469163011 1.9664932434
C -4.068074548 1.2783344418 0.7462838517
C -4.746216354 0.1568151119 -0.1168835226
C -3.6874691787 -0.8003012481 -0.8268865876
C -2.20801164 -0.3774432432 -0.5357671126
O -1.8518289299 0.643056476 -1.476022469
C -0.4537019053 1.0866980068 -1.2619249135
C 0.6074149599 -2.3595e-05 -1.6573354987
O 1.9001223324 0.594580127 -1.251830524
C 2.9934124699 -0.281381729 -1.5474280657
C 4.294873455 0.4599270033 -1.0846270824
C 4.2251086755 0.9170954017 0.4372388717
C 2.8299805492 0.6737056097 1.1208218031
O 2.0524024731 1.5443087813 1.5701079308
O -3.7601613038 2.3795411614 -0.1163915657
O 2.5889891415 -0.7352327131 1.1775760251
O 2.8793391353 -1.3961831641 -2.0954066095
C 1.2964168853 -1.0165060287 1.8498320509
C 5.5192968389 -0.5415418094 -1.0442433966
C 6.8501308092 0.2922861892 -0.8760737297
C 6.7712354495 0.6874621949 0.6462302233
C 5.3923279103 0.0353265548 1.0588051798
O 5.3543311564 -1.2139331038 0.2657124849
H 4.4712613101 1.3217313342 -1.754119004
H 4.4449760427 1.9951248908 0.5298520099
H 5.5148085427 -1.2875030142 -1.8629063863
H 7.7306160415 -0.3349833432 -1.0872998279
H 6.8729941842 1.1699825348 -1.5415101204
H 7.5953285878 0.2373495648 1.2223861522
H 6.7819271427 1.7775290129 0.8052829495
H 5.2777578956 -0.1869336997 2.1372750821
O -1.4494237318 -0.8145752437 0.3585073448
C -3.0348906369 3.4261572031 0.6408887638
C -5.515945527 -0.8863575917 0.7964239205
C -6.4505409481 -1.7615246018 -0.1283120199
C -5.3973839751 -2.7075397845 -0.8171555525
C -4.0538101874 -2.1939531127 -0.1649331766
O -4.4512253205 -1.8276094224 1.2129467273
H -5.405974435 0.6320477434 -0.8642062396
H -3.8376268582 -0.8020337088 -1.9212170679
H -2.0689338091 3.0476899974 1.0339749606
H -6.0032194958 -0.4402667445 1.6849059534
H -7.1704251723 -2.3324795563 0.4792637297
H -7.0070901373 -1.1468585543 -0.853563035
H -5.5712182671 -3.7635991963 -0.5564102035
H -5.3907934359 -2.6112667798 -1.914713086
H -3.2207876089 -2.923142632 -0.1451514247
H -3.6354992229 3.8061001581 1.4922409132
H -2.8458995329 4.2461779043 -0.0757887082
H 1.2957698005 -2.1029623739 2.0532992021
H 0.4186699131 -0.767205209 1.2120652032
H 1.2098209262 -0.4609407456 2.8048687178
H 0.416333234 -0.9483998803 -1.1126477039
H 0.5813569347 -0.2075317622 -2.7490625046
H -0.2847357771 1.3654984359 -0.1983731641
H -0.3289324218 1.9876604281 -1.8944276106
$end

$rem
JOBTYPE                   OPT
METHOD                    B3LYP
DFT_D                     d3_op
BASIS                     STO-3G
GEOM_OPT_MAX_CYCLES       100
GEOM_OPT_TOL_GRADIENT     300
GEOM_OPT_TOL_DISPLACEMENT 1200
GEOM_OPT_TOL_ENERGY       100
SYMMETRY                  False
THRESH                    12
SCF_CONVERGENCE           8
MAX_SUB_FILE_NUM          128
MEM_STATIC                400
MEM_TOTAL                 4000
$end
--------------------------------------------------------------

   16   -1510.2878126135      5.14E-09 Convergence criterion met
 Total energy in the final basis set = -1510.28781261
   15   -1510.2640615849      4.95E-09 Convergence criterion met
 Total energy in the final basis set = -1510.26406158
   15   -1510.2880276487      2.51E-09 Convergence criterion met
 Total energy in the final basis set = -1510.28802765
   14   -1510.2879719314      5.68E-09 Convergence criterion met
 Total energy in the final basis set = -1510.28797193
   14   -1510.2891097531      2.05E-09 Convergence criterion met
 Total energy in the final basis set = -1510.28910975
   13   -1510.2897570290      5.01E-09 Convergence criterion met
 Total energy in the final basis set = -1510.28975703
   13   -1510.2902068940      7.40E-09 Convergence criterion met
 Total energy in the final basis set = -1510.29020689
   13   -1510.2908751091      9.65E-09 Convergence criterion met
   11   -1510.2998220219      2.89E-09 Convergence criterion met
 Total energy in the final basis set = -1510.29982202
   11   -1510.2998241906      3.37E-09 Convergence criterion met
 Total energy in the final basis set = -1510.29982419
   11   -1510.2998181939      7.80E-09 Convergence criterion met
 Total energy in the final basis set = -1510.29981819
   10   -1510.2998218254      8.23E-09 Convergence criterion met
 Total energy in the final basis set = -1510.29982183
   11   -1510.2998249047      2.28E-09 Convergence criterion met
 Total energy in the final basis set = -1510.29982490
   10   -1510.2998272054      5.02E-09 Convergence criterion met
 Total energy in the final basis set = -1510.29982721

             Standard Nuclear Orientation (Angstroms)
    I     Atom           X                Y                Z
 ----------------------------------------------------------------
    1      O      -2.8188035396     1.8064284692     1.8676614958
    2      C      -3.0739612979     1.4689482097     0.6916482559
    3      C      -4.0249364519     0.3123665708     0.2145233475
    4      C      -3.3279730634    -0.6997731961    -0.7939089134
    5      C      -1.8327881442    -0.3387586734    -1.0816556239
    6      O      -1.6916218417     0.0508391656    -2.4493418646
    7      C      -0.2945498298     0.4814484151    -2.7081876304
    8      C       0.6591806820    -0.7399996736    -3.0151322593
    9      O       2.0414937423    -0.3644841254    -2.6306206010
   10      C       2.3435114912    -0.8753064345    -1.3213660122
   11      C       3.6848790629    -0.2225560582    -0.8525959947
   12      C       3.4599542091     0.9843797928     0.1662421084
   13      C       1.9395405581     1.1983340133     0.5173498156
   14      O       1.0865004334     1.7012205839    -0.2594707440
   15      O      -2.5401867300     2.0958135100    -0.4751381575
   16      O       1.6737536909     0.7337095173     1.8247357609
   17      O       1.6271598849    -1.6899327265    -0.7002656138
   18      C       0.2194262598     0.7843654043     2.1339110781
   19      C       4.5656276569    -1.2010266252     0.0359685386
   20      C       6.0366699606    -0.6297097298     0.0750672198
   21      C       5.8510506501     0.6085683495     1.0286530592
   22      C       4.3192412671     0.4880719512     1.4000461338
   23      O       4.0722595322    -0.9726525326     1.4126797816
   24      H       4.2301422075     0.1228438063    -1.7482890796
   25      H       3.8433716164     1.9273214386    -0.2643897304
   26      H       4.4745419757    -2.2709757389    -0.2337819735
   27      H       6.7247272234    -1.3731099944     0.5082073692
   28      H       6.4032579586    -0.3488695418    -0.9252649141
   29      H       6.4740544297     0.5203320065     1.9327303117
   30      H       6.0833857600     1.5647125875     0.5329289023
   31      H       4.0289223246     0.9379511013     2.3681569368
   32      O      -0.8728884177    -0.4043113634    -0.2799899222
   33      C      -1.5210377632     3.1136853607    -0.1152231277
   34      C      -4.3937463436    -0.6543404464     1.4131318510
   35      C      -5.6247938877    -1.5425777615     0.9813280288
   36      C      -4.9387355263    -2.5446488674    -0.0202429225
   37      C      -3.4382291659    -2.0530130050     0.0335766587
   38      O      -3.2623701366    -1.6111978850     1.4349918495
   39      H      -4.9238470399     0.7635194998    -0.2449571502
   40      H      -3.8689938149    -0.7513766003    -1.7546603594
   41      H      -1.7567545035     3.5706508826     0.8655172958
   42      H      -4.4829572822    -0.1398862412     2.3897207245
   43      H      -6.0457120590    -2.0684349804     1.8529826643
   44      H      -6.4219239266    -0.9467380780     0.5088163292
   45      H      -5.0155915195    -3.5853692698     0.3329040015
   46      H      -5.3568181716    -2.4850622759    -1.0378315841
   47      H      -2.6789344878    -2.8147058505    -0.2296886742
   48      H      -1.5474240941     3.8820481592    -0.9095869468
   49      H      -0.5126778857     2.6330382062    -0.0812573625
   50      H       0.1018266927     0.2429180771     3.0895005235
   51      H      -0.3644587804     0.2838622111     1.3256680996
   52      H      -0.1274853944     1.8293660763     2.2589149193
   53      H       0.3444331718    -1.6214653171    -2.4153644703
   54      H       0.6686969603    -0.9939231277    -4.0934435795
   55      H       0.1265271333     1.0191475037    -1.8244525126
   56      H      -0.3484614846     1.1658259821    -3.5770217563
 ----------------------------------------------------------------

    9   -1510.2998264688      5.93E-09 Convergence criterion met
 Total energy in the final basis set = -1510.29982647
 Final energy is   -1510.29982646878
 **  OPTIMIZATION CONVERGED  **

                    Orbital Energies (a.u.)
 --------------------------------------------------------------

 Alpha MOs
 -- Occupied --
-18.940 -18.932 -18.927 -18.927 -18.885 -18.885 -18.877 -18.876
-18.873 -18.872 -10.106 -10.100 -10.096 -10.096 -10.062 -10.058
-10.058 -10.057 -10.056 -10.055 -10.038 -10.038 -10.037 -10.036
-10.036 -10.035 -10.019 -10.019 -10.018 -10.018  -1.015  -1.011
 -1.007  -1.003  -0.968  -0.967  -0.936  -0.936  -0.932  -0.931
 -0.762  -0.761  -0.724  -0.721  -0.709  -0.703  -0.690  -0.652
 -0.647  -0.615  -0.594  -0.577  -0.544  -0.543  -0.535  -0.534
 -0.510  -0.505  -0.478  -0.473  -0.462  -0.458  -0.450  -0.443
 -0.434  -0.430  -0.426  -0.422  -0.410  -0.404  -0.398  -0.392
 -0.382  -0.375  -0.370  -0.362  -0.358  -0.356  -0.353  -0.348
 -0.343  -0.338  -0.330  -0.329  -0.327  -0.322  -0.316  -0.308
 -0.307  -0.304  -0.302  -0.297  -0.286  -0.284  -0.283  -0.275
 -0.269  -0.259  -0.246  -0.241  -0.238  -0.232  -0.230  -0.187
 -0.175  -0.171  -0.160  -0.159  -0.154  -0.149  -0.148  -0.142
 -0.140

          Ground-State Mulliken Net Atomic Charges

     Atom                 Charge (a.u.)
  ----------------------------------------
      1 O                    -0.214301
      2 C                     0.210357
      3 C                    -0.078152
      4 C                    -0.078950
      5 C                     0.218880
      6 O                    -0.168359
      7 C                    -0.061814
      8 C                    -0.057409
      9 O                    -0.174068
     10 C                     0.206503
     11 C                    -0.079003
     12 C                    -0.076831
     13 C                     0.220990
     14 O                    -0.226038
     15 O                    -0.174369
     16 O                    -0.158289
     17 O                    -0.202370
     18 C                    -0.143715
     19 C                     0.025679
     20 C                    -0.143580
     21 C                    -0.144821
     22 C                     0.025610
     23 O                    -0.183786
     24 H                     0.086002
     25 H                     0.084200
     26 H                     0.085302
     27 H                     0.078009
     28 H                     0.072890
     29 H                     0.077928
     30 H                     0.072349
     31 H                     0.090520
     32 O                    -0.217214
     33 C                    -0.150458
     34 C                     0.023724
     35 C                    -0.144053
     36 C                    -0.143889
     37 C                     0.025407
     38 O                    -0.187012
     39 H                     0.084813
     40 H                     0.086416
     41 H                     0.086835
     42 H                     0.090046
     43 H                     0.078194
     44 H                     0.072929
     45 H                     0.078156
     46 H                     0.073174
     47 H                     0.085112
     48 H                     0.081415
     49 H                     0.110981
     50 H                     0.090714
     51 H                     0.121657
     52 H                     0.083082
     53 H                     0.098810
     54 H                     0.084053
     55 H                     0.112944
     56 H                     0.084800
  ----------------------------------------
  Sum of atomic charges =    -0.000000

                    Cartesian Multipole Moments
 -----------------------------------------------------------------
    Charge (ESU x 10^10)
                 0.0000
    Dipole Moment (Debye)
         X       0.1074      Y       0.9835      Z      -2.3560
       Tot       2.5553
    Quadrupole Moments (Debye-Ang)
        XX    -136.2315     XY       7.1447     YY    -157.7947
        XZ      -0.1751     YZ       4.8626     ZZ    -162.1320

 Total job time:  197.07s(wall), 9406.07s(cpu)
        *  Thank you very much for using Q-Chem.  Have a nice day.  *
