 Q-Chem 5.0, Q-Chem, Inc., Pleasanton, CA (2017)
 Q-Chem 5.0.1 for Intel X86 EM64T Linux

User input:
--------------------------------------------------------------
$molecule
0  1
O -3.94934 -3.66094 2.70899
C -3.26408 -4.56952 2.26188
C -3.36658 -6.02376 2.66595
C -2.43659 -6.50776 3.79055
C -1.63422 -5.44414 4.5068
O -0.49301 -5.17378 3.80682
C 0.32623 -4.17789 4.42835
C 0.94282 -4.72926 5.70973
O 1.66749 -3.69229 6.38975
C 2.26492 -4.06268 7.5495
C 3.01753 -2.93263 8.21071
C 2.18917 -1.66484 8.46531
C 0.68588 -1.82565 8.36058
O -0.03079 -1.2713 7.53982
O -2.21017 -4.25915 1.46288
O 0.11377 -2.732 9.19956
O 2.14127 -5.17154 8.05586
C -1.2258 -3.05932 9.19797
C 3.54489 -3.212 9.63406
C 4.72828 -2.29057 9.93025
C 4.02432 -0.95269 10.05745
C 2.56228 -1.39686 9.93334
O 2.55429 -2.69238 10.48816
H 3.88082 -2.71717 7.54102
H 2.47656 -0.84204 7.7734
H 3.83398 -4.27206 9.80139
H 5.12106 -2.58029 10.93142
H 5.55766 -2.32171 9.19133
H 4.22835 -0.5441 11.072
H 4.28856 -0.2009 9.28242
H 1.88191 -0.65618 10.40874
O -2.006 -4.85927 5.51984
C -1.88983 -2.97976 1.06036
C -4.74314 -6.32377 3.30219
C -5.05638 -7.81664 3.20478
C -4.10171 -8.36861 4.23839
C -3.4921 -7.06803 4.77046
O -4.54071 -6.13856 4.67826
H -3.29293 -6.62326 1.73116
H -1.74195 -7.32614 3.49599
H -1.66989 -2.34459 1.94511
H -5.57255 -5.73816 2.84739
H -6.09776 -7.96497 3.57062
H -4.95918 -8.25031 2.18628
H -4.69721 -8.86465 5.03715
H -3.33102 -9.06909 3.85024
H -3.0777 -7.23565 5.78967
H -2.72875 -2.53989 0.47976
H -0.98838 -3.01669 0.41505
H -1.41458 -3.82127 9.9816
H -1.51414 -3.482 8.21159
H -1.84004 -2.15988 9.4167
H 0.16453 -5.11 6.40165
H 1.61864 -5.57438 5.44851
H -0.26544 -3.2552 4.62887
H 1.14899 -3.90042 3.73604
$end

$opt
CONSTRAINT
tors           1           2           3           4     -93.240
tors           3           4           5           6     -84.325
tors           4           5           6           7    -179.669
tors           5           6           7           8     +69.665
tors           6           7           8           9    -174.967
tors           7           8           9          10    -179.965
tors           8           9          10          11    +179.603
tors           9          10          11          12     +54.452
tors          11          12          13          14    -116.438
ENDCONSTRAINT
$end

$rem
JOBTYPE                   OPT
METHOD                    B3LYP
DFT_D                     d3_op
BASIS                     STO-3G
GEOM_OPT_MAX_CYCLES       100
GEOM_OPT_TOL_GRADIENT     300
GEOM_OPT_TOL_DISPLACEMENT 1200
GEOM_OPT_TOL_ENERGY       100
SYMMETRY                  False
THRESH                    12
SCF_CONVERGENCE           8
MAX_SUB_FILE_NUM          128
MEM_STATIC                400
MEM_TOTAL                 4000
$end
--------------------------------------------------------------

   15   -1510.1561293201      5.96E-09 Convergence criterion met
 Total energy in the final basis set = -1510.15612932
   13   -1510.2250179147      9.67E-09 Convergence criterion met
 Total energy in the final basis set = -1510.22501791
   15   -1510.2620554315      1.23E-09 Convergence criterion met
 Total energy in the final basis set = -1510.26205543
   14   -1510.2784940479      8.84E-09 Convergence criterion met
 Total energy in the final basis set = -1510.27849405
   14   -1510.2838842453      6.66E-09 Convergence criterion met
 Total energy in the final basis set = -1510.28388425
   13   -1510.2854749549      9.69E-09 Convergence criterion met
 Total energy in the final basis set = -1510.28547495
   13   -1510.2859648669      3.69E-09 Convergence criterion met
 Total energy in the final basis set = -1510.28596487
   12   -1510.2867118630      8.13E-09 Convergence criterion met
   11   -1510.2879662933      4.14E-09 Convergence criterion met
 Total energy in the final basis set = -1510.28796629
   10   -1510.2879699308      4.23E-09 Convergence criterion met
 Total energy in the final basis set = -1510.28796993
   10   -1510.2879710369      2.70E-09 Convergence criterion met
 Total energy in the final basis set = -1510.28797104
    9   -1510.2879723459      8.37E-09 Convergence criterion met
 Total energy in the final basis set = -1510.28797235
    9   -1510.2879736854      3.35E-09 Convergence criterion met
 Total energy in the final basis set = -1510.28797369
    9   -1510.2879748145      3.93E-09 Convergence criterion met
 Total energy in the final basis set = -1510.28797481

             Standard Nuclear Orientation (Angstroms)
    I     Atom           X                Y                Z
 ----------------------------------------------------------------
    1      O      -3.8010596405     1.2469163011     1.9664932434
    2      C      -4.0680745480     1.2783344418     0.7462838517
    3      C      -4.7462163540     0.1568151119    -0.1168835226
    4      C      -3.6874691787    -0.8003012481    -0.8268865876
    5      C      -2.2080116400    -0.3774432432    -0.5357671126
    6      O      -1.8518289299     0.6430564760    -1.4760224690
    7      C      -0.4537019053     1.0866980068    -1.2619249135
    8      C       0.6074149599    -0.0000235950    -1.6573354987
    9      O       1.9001223324     0.5945801270    -1.2518305240
   10      C       2.9934124699    -0.2813817290    -1.5474280657
   11      C       4.2948734550     0.4599270033    -1.0846270824
   12      C       4.2251086755     0.9170954017     0.4372388717
   13      C       2.8299805492     0.6737056097     1.1208218031
   14      O       2.0524024731     1.5443087813     1.5701079308
   15      O      -3.7601613038     2.3795411614    -0.1163915657
   16      O       2.5889891415    -0.7352327131     1.1775760251
   17      O       2.8793391353    -1.3961831641    -2.0954066095
   18      C       1.2964168853    -1.0165060287     1.8498320509
   19      C       5.5192968389    -0.5415418094    -1.0442433966
   20      C       6.8501308092     0.2922861892    -0.8760737297
   21      C       6.7712354495     0.6874621949     0.6462302233
   22      C       5.3923279103     0.0353265548     1.0588051798
   23      O       5.3543311564    -1.2139331038     0.2657124849
   24      H       4.4712613101     1.3217313342    -1.7541190040
   25      H       4.4449760427     1.9951248908     0.5298520099
   26      H       5.5148085427    -1.2875030142    -1.8629063863
   27      H       7.7306160415    -0.3349833432    -1.0872998279
   28      H       6.8729941842     1.1699825348    -1.5415101204
   29      H       7.5953285878     0.2373495648     1.2223861522
   30      H       6.7819271427     1.7775290129     0.8052829495
   31      H       5.2777578956    -0.1869336997     2.1372750821
   32      O      -1.4494237318    -0.8145752437     0.3585073448
   33      C      -3.0348906369     3.4261572031     0.6408887638
   34      C      -5.5159455270    -0.8863575917     0.7964239205
   35      C      -6.4505409481    -1.7615246018    -0.1283120199
   36      C      -5.3973839751    -2.7075397845    -0.8171555525
   37      C      -4.0538101874    -2.1939531127    -0.1649331766
   38      O      -4.4512253205    -1.8276094224     1.2129467273
   39      H      -5.4059744350     0.6320477434    -0.8642062396
   40      H      -3.8376268582    -0.8020337088    -1.9212170679
   41      H      -2.0689338091     3.0476899974     1.0339749606
   42      H      -6.0032194958    -0.4402667445     1.6849059534
   43      H      -7.1704251723    -2.3324795563     0.4792637297
   44      H      -7.0070901373    -1.1468585543    -0.8535630350
   45      H      -5.5712182671    -3.7635991963    -0.5564102035
   46      H      -5.3907934359    -2.6112667798    -1.9147130860
   47      H      -3.2207876089    -2.9231426320    -0.1451514247
   48      H      -3.6354992229     3.8061001581     1.4922409132
   49      H      -2.8458995329     4.2461779043    -0.0757887082
   50      H       1.2957698005    -2.1029623739     2.0532992021
   51      H       0.4186699131    -0.7672052090     1.2120652032
   52      H       1.2098209262    -0.4609407456     2.8048687178
   53      H       0.4163332340    -0.9483998803    -1.1126477039
   54      H       0.5813569347    -0.2075317622    -2.7490625046
   55      H      -0.2847357771     1.3654984359    -0.1983731641
   56      H      -0.3289324218     1.9876604281    -1.8944276106
 ----------------------------------------------------------------

    9   -1510.2879756999      3.57E-09 Convergence criterion met
 Total energy in the final basis set = -1510.28797570
 Final energy is   -1510.28797569990
 **  OPTIMIZATION CONVERGED  **

                    Orbital Energies (a.u.)
 --------------------------------------------------------------

 Alpha MOs
 -- Occupied --
-18.945 -18.935 -18.935 -18.920 -18.889 -18.889 -18.884 -18.880
-18.877 -18.860 -10.110 -10.102 -10.099 -10.090 -10.079 -10.075
-10.064 -10.062 -10.060 -10.056 -10.055 -10.043 -10.041 -10.040
-10.037 -10.032 -10.022 -10.021 -10.018 -10.017  -1.024  -1.016
 -1.011  -0.997  -0.972  -0.966  -0.948  -0.940  -0.936  -0.923
 -0.767  -0.761  -0.731  -0.723  -0.711  -0.704  -0.699  -0.664
 -0.646  -0.620  -0.596  -0.585  -0.550  -0.544  -0.539  -0.534
 -0.515  -0.508  -0.485  -0.470  -0.467  -0.463  -0.458  -0.444
 -0.435  -0.431  -0.427  -0.415  -0.412  -0.402  -0.402  -0.399
 -0.395  -0.383  -0.373  -0.362  -0.362  -0.358  -0.354  -0.350
 -0.347  -0.342  -0.335  -0.333  -0.331  -0.327  -0.322  -0.313
 -0.308  -0.305  -0.304  -0.298  -0.291  -0.286  -0.283  -0.278
 -0.275  -0.262  -0.254  -0.250  -0.240  -0.236  -0.230  -0.190
 -0.180  -0.176  -0.169  -0.161  -0.157  -0.152  -0.146  -0.142
 -0.139

          Ground-State Mulliken Net Atomic Charges

     Atom                 Charge (a.u.)
  ----------------------------------------
      1 O                    -0.206502
      2 C                     0.203860
      3 C                    -0.077697
      4 C                    -0.077750
      5 C                     0.210432
      6 O                    -0.166256
      7 C                    -0.048937
      8 C                    -0.050552
      9 O                    -0.176585
     10 C                     0.217665
     11 C                    -0.078056
     12 C                    -0.079476
     13 C                     0.210511
     14 O                    -0.221579
     15 O                    -0.168853
     16 O                    -0.172856
     17 O                    -0.206909
     18 C                    -0.139667
     19 C                     0.024405
     20 C                    -0.144512
     21 C                    -0.143605
     22 C                     0.025874
     23 O                    -0.185679
     24 H                     0.084246
     25 H                     0.082399
     26 H                     0.088862
     27 H                     0.077737
     28 H                     0.072168
     29 H                     0.077554
     30 H                     0.073083
     31 H                     0.083780
     32 O                    -0.209072
     33 C                    -0.129156
     34 C                     0.025620
     35 C                    -0.144142
     36 C                    -0.143772
     37 C                     0.025488
     38 O                    -0.184323
     39 H                     0.086714
     40 H                     0.087314
     41 H                     0.089686
     42 H                     0.087649
     43 H                     0.078868
     44 H                     0.073393
     45 H                     0.079001
     46 H                     0.073291
     47 H                     0.087028
     48 H                     0.089956
     49 H                     0.090425
     50 H                     0.087186
     51 H                     0.101005
     52 H                     0.085968
     53 H                     0.096453
     54 H                     0.086665
     55 H                     0.097899
     56 H                     0.093748
  ----------------------------------------
  Sum of atomic charges =    -0.000000

                    Cartesian Multipole Moments
 -----------------------------------------------------------------
    Charge (ESU x 10^10)
                 0.0000
    Dipole Moment (Debye)
         X      -0.9642      Y       1.9783      Z      -2.7456
       Tot       3.5188
    Quadrupole Moments (Debye-Ang)
        XX    -139.2632     XY       9.9205     YY    -159.4561
        XZ       6.3890     YZ      -0.4099     ZZ    -162.7373

 Total job time:  62.59s(wall), 2977.32s(cpu)
        *  Thank you very much for using Q-Chem.  Have a nice day.  *
