 Q-Chem 5.0, Q-Chem, Inc., Pleasanton, CA (2017)
 Q-Chem 5.0.1 for Intel X86 EM64T Linux

User input:
--------------------------------------------------------------
$molecule
0  1
O -3.94934 -3.66094 2.70899
C -3.26408 -4.56952 2.26188
C -3.36658 -6.02376 2.66595
C -2.44452 -6.50507 3.7982
C -1.65024 -5.43928 4.52022
O -0.5697 -5.0763 3.76782
C 0.23733 -4.07072 4.38973
C 0.94612 -4.6467 5.6112
O 1.55779 -3.58896 6.36613
C 2.22981 -3.97907 7.47759
C 2.85724 -2.82423 8.22145
C 1.93399 -1.61662 8.43958
C 0.45619 -1.8654 8.21395
O -0.21271 -1.38861 7.30851
O -2.21526 -4.25952 1.456
O -0.13216 -2.78434 9.02756
O 2.20103 -5.12043 7.92205
C -1.45064 -3.17709 8.93683
C 3.30276 -3.1042 9.67138
C 4.40033 -2.11652 10.06752
C 3.60373 -0.82919 10.17175
C 2.18541 -1.36106 9.93544
O 2.22325 -2.66802 10.46281
H 3.7433 -2.5313 7.61386
H 2.2202 -0.76551 7.78213
H 3.64716 -4.14765 9.83792
H 4.74223 -2.40451 11.08765
H 5.27811 -2.07721 9.38721
H 3.70952 -0.43418 11.20648
H 3.87232 -0.04289 9.43333
H 1.42707 -0.67639 10.37534
O -1.96957 -4.94813 5.59835
C -1.89798 -2.98038 1.0502
C -4.74735 -6.32693 3.29199
C -5.05871 -7.81934 3.18603
C -4.10636 -8.37562 4.21939
C -3.50556 -7.07654 4.76562
O -4.55519 -6.14866 4.67069
H -3.28595 -6.62397 1.73213
H -1.73888 -7.31293 3.50149
H -1.67299 -2.3442 1.93298
H -5.57445 -5.74016 2.83448
H -6.10097 -7.9686 3.54908
H -4.95994 -8.24963 2.16625
H -4.70319 -8.88391 5.00937
H -3.32856 -9.06652 3.82823
H -3.09971 -7.25149 5.78688
H -2.74058 -2.54149 0.47424
H -1.00039 -3.01756 0.39955
H -1.65914 -3.93429 9.72004
H -1.64658 -3.62873 7.94206
H -2.12111 -2.30517 9.09272
H 0.24158 -5.16891 6.28801
H 1.70313 -5.38931 5.27301
H -0.39634 -3.1984 4.67202
H 1.00191 -3.70488 3.67234
$end

$opt
CONSTRAINT
tors           1           2           3           4     -92.765
tors           3           4           5           6     -78.636
tors           4           5           6           7    -179.774
tors           5           6           7           8     +68.988
tors           6           7           8           9    -169.697
tors           7           8           9          10    -179.584
tors           8           9          10          11    +179.603
tors           9          10          11          12     +46.779
tors          11          12          13          14    -112.250
ENDCONSTRAINT
$end

$rem
JOBTYPE                   OPT
METHOD                    B3LYP
DFT_D                     d3_op
BASIS                     STO-3G
GEOM_OPT_MAX_CYCLES       100
GEOM_OPT_TOL_GRADIENT     300
GEOM_OPT_TOL_DISPLACEMENT 1200
GEOM_OPT_TOL_ENERGY       100
SYMMETRY                  False
THRESH                    12
SCF_CONVERGENCE           8
MAX_SUB_FILE_NUM          128
MEM_STATIC                400
MEM_TOTAL                 4000
$end
--------------------------------------------------------------

   15   -1510.1561694884      6.60E-09 Convergence criterion met
 Total energy in the final basis set = -1510.15616949
   14   -1510.2252439194      6.93E-09 Convergence criterion met
 Total energy in the final basis set = -1510.22524392
   14   -1510.2624751845      9.94E-09 Convergence criterion met
 Total energy in the final basis set = -1510.26247518
   14   -1510.2788473046      7.38E-09 Convergence criterion met
 Total energy in the final basis set = -1510.27884730
   14   -1510.2833916570      7.03E-09 Convergence criterion met
 Total energy in the final basis set = -1510.28339166
   13   -1510.2850252683      9.84E-09 Convergence criterion met
 Total energy in the final basis set = -1510.28502527
   13   -1510.2862288899      4.44E-09 Convergence criterion met
 Total energy in the final basis set = -1510.28622889
   12   -1510.2867345755      9.49E-09 Convergence criterion met
   11   -1510.2877716317      9.65E-09 Convergence criterion met
 Total energy in the final basis set = -1510.28777163
   11   -1510.2878254004      7.44E-09 Convergence criterion met
 Total energy in the final basis set = -1510.28782540
   11   -1510.2878588508      5.49E-09 Convergence criterion met
 Total energy in the final basis set = -1510.28785885
   11   -1510.2878825287      5.54E-09 Convergence criterion met
 Total energy in the final basis set = -1510.28788253
   10   -1510.2878926092      6.34E-09 Convergence criterion met
 Total energy in the final basis set = -1510.28789261
   10   -1510.2878962393      6.20E-09 Convergence criterion met
 Total energy in the final basis set = -1510.28789624

             Standard Nuclear Orientation (Angstroms)
    I     Atom           X                Y                Z
 ----------------------------------------------------------------
    1      O      -3.7059100822     1.2232593077     1.9512793621
    2      C      -4.0106469721     1.2630982394     0.7399667961
    3      C      -4.6953317386     0.1390926764    -0.1140856626
    4      C      -3.6493166726    -0.8039976616    -0.8603581293
    5      C      -2.1607885842    -0.4065805087    -0.5725066509
    6      O      -1.8463554870     0.7231158972    -1.3905716295
    7      C      -0.4473973222     1.1705131410    -1.1895986277
    8      C       0.6208763607     0.1591587669    -1.7411002541
    9      O       1.9057018612     0.6715592552    -1.2139383056
   10      C       3.0083292916    -0.1367079333    -1.6327171376
   11      C       4.3064118982     0.5025749630    -1.0279713081
   12      C       4.1858881492     0.8826579865     0.5114417815
   13      C       2.7637195264     0.6448744885     1.1408721444
   14      O       1.9640006281     1.5190204071     1.5435022550
   15      O      -3.7755301288     2.3902157370    -0.1116591836
   16      O       2.5338826429    -0.7633956738     1.2167121267
   17      O       2.9077863650    -1.1427086417    -2.3645783081
   18      C       1.2202337398    -1.0453396094     1.8456012917
   19      C       5.4835640085    -0.5564930990    -0.9898316830
   20      C       6.8414856616     0.2094464900    -0.7391815453
   21      C       6.7177492509     0.5514677672     0.7929343089
   22      C       5.3022488895    -0.0643739945     1.1302791606
   23      O       5.2448054891    -1.2766299367     0.2822745379
   24      H       4.5682765273     1.3908970296    -1.6323547695
   25      H       4.4319149653     1.9480849321     0.6643090647
   26      H       5.4747315776    -1.2629509944    -1.8428524527
   27      H       7.7011921338    -0.4494257187    -0.9394568130
   28      H       6.9309570651     1.1089988440    -1.3688453749
   29      H       7.5030885981     0.0514736301     1.3818945062
   30      H       6.7609072761     1.6339617434     0.9935759212
   31      H       5.1426913397    -0.3282585475     2.1934558155
   32      O      -1.3708711364    -0.9540395743     0.2285568403
   33      C      -3.0586232448     3.4480417033     0.6379546145
   34      C      -5.4413227661    -0.9187820413     0.8028297123
   35      C      -6.4059271806    -1.7726153615    -0.1109292615
   36      C      -5.3751655869    -2.6982318043    -0.8587801137
   37      C      -4.0121104392    -2.2109739400    -0.2268288872
   38      O      -4.3707838322    -1.8741402567     1.1692748268
   39      H      -5.3750920312     0.6162476527    -0.8420195133
   40      H      -3.8118690011    -0.7785237832    -1.9528261621
   41      H      -2.0458838430     3.1131578280     0.9430438547
   42      H      -5.9008165171    -0.4880682250     1.7134128821
   43      H      -7.1019068067    -2.3607354598     0.5082213071
   44      H      -6.9901025703    -1.1425359378    -0.8003589724
   45      H      -5.5468871282    -3.7624022773    -0.6319904142
   46      H      -5.3971064574    -2.5621072756    -1.9519291718
   47      H      -3.1837209226    -2.9454329896    -0.2453966048
   48      H      -3.6154049965     3.7544736139     1.5466396847
   49      H      -2.9704584369     4.3064172265    -0.0528218568
   50      H       1.2452553415    -2.1136236725     2.1283166045
   51      H       0.3704746382    -0.8745777096     1.1459409960
   52      H       1.0663563245    -0.4256141186     2.7512797554
   53      H       0.4193058977    -0.8649117531    -1.3610156749
   54      H       0.6195588678     0.1317595451    -2.8520931119
   55      H      -0.2348756014     1.3360792897    -0.1096210707
   56      H      -0.3695619516     2.1383993499    -1.7226783238
 ----------------------------------------------------------------

    9   -1510.2878965873      7.39E-09 Convergence criterion met
 Total energy in the final basis set = -1510.28789659
 Final energy is   -1510.28789658733
 **  OPTIMIZATION CONVERGED  **

                    Orbital Energies (a.u.)
 --------------------------------------------------------------

 Alpha MOs
 -- Occupied --
-18.947 -18.938 -18.935 -18.918 -18.892 -18.889 -18.883 -18.881
-18.877 -18.856 -10.113 -10.103 -10.099 -10.088 -10.080 -10.077
-10.064 -10.062 -10.061 -10.055 -10.055 -10.044 -10.040 -10.037
-10.036 -10.031 -10.022 -10.021 -10.017 -10.016  -1.025  -1.017
 -1.011  -0.995  -0.972  -0.965  -0.950  -0.941  -0.936  -0.921
 -0.767  -0.760  -0.731  -0.722  -0.711  -0.704  -0.699  -0.664
 -0.644  -0.621  -0.596  -0.585  -0.550  -0.543  -0.539  -0.534
 -0.515  -0.507  -0.486  -0.470  -0.466  -0.462  -0.458  -0.445
 -0.433  -0.431  -0.426  -0.415  -0.413  -0.403  -0.401  -0.399
 -0.396  -0.384  -0.373  -0.362  -0.361  -0.359  -0.353  -0.351
 -0.345  -0.340  -0.335  -0.333  -0.330  -0.326  -0.321  -0.313
 -0.308  -0.306  -0.303  -0.299  -0.292  -0.285  -0.284  -0.279
 -0.275  -0.262  -0.254  -0.248  -0.237  -0.236  -0.230  -0.191
 -0.181  -0.176  -0.169  -0.159  -0.158  -0.152  -0.146  -0.141
 -0.137

          Ground-State Mulliken Net Atomic Charges

     Atom                 Charge (a.u.)
  ----------------------------------------
      1 O                    -0.207601
      2 C                     0.204033
      3 C                    -0.077961
      4 C                    -0.077341
      5 C                     0.212834
      6 O                    -0.166577
      7 C                    -0.049328
      8 C                    -0.049749
      9 O                    -0.173953
     10 C                     0.216576
     11 C                    -0.078043
     12 C                    -0.079569
     13 C                     0.211529
     14 O                    -0.224673
     15 O                    -0.167866
     16 O                    -0.173198
     17 O                    -0.208039
     18 C                    -0.142717
     19 C                     0.024146
     20 C                    -0.144359
     21 C                    -0.143943
     22 C                     0.026159
     23 O                    -0.185924
     24 H                     0.083929
     25 H                     0.081911
     26 H                     0.089149
     27 H                     0.077671
     28 H                     0.071994
     29 H                     0.077377
     30 H                     0.072832
     31 H                     0.084134
     32 O                    -0.208064
     33 C                    -0.129114
     34 C                     0.025506
     35 C                    -0.143951
     36 C                    -0.143961
     37 C                     0.025278
     38 O                    -0.184750
     39 H                     0.086739
     40 H                     0.087249
     41 H                     0.089093
     42 H                     0.087599
     43 H                     0.078881
     44 H                     0.073405
     45 H                     0.079020
     46 H                     0.073142
     47 H                     0.087840
     48 H                     0.090609
     49 H                     0.090242
     50 H                     0.085401
     51 H                     0.102881
     52 H                     0.084881
     53 H                     0.096423
     54 H                     0.087573
     55 H                     0.100442
     56 H                     0.094199
  ----------------------------------------
  Sum of atomic charges =    -0.000000

                    Cartesian Multipole Moments
 -----------------------------------------------------------------
    Charge (ESU x 10^10)
                 0.0000
    Dipole Moment (Debye)
         X      -1.0716      Y       2.0785      Z      -2.5744
       Tot       3.4780
    Quadrupole Moments (Debye-Ang)
        XX    -138.7085     XY       9.5028     YY    -159.2249
        XZ       6.8997     YZ      -0.4610     ZZ    -163.0183

 Total job time:  52.98s(wall), 2519.93s(cpu)
        *  Thank you very much for using Q-Chem.  Have a nice day.  *
