 Q-Chem 5.0, Q-Chem, Inc., Pleasanton, CA (2017)
 Q-Chem 5.0.1 for Intel X86 EM64T Linux

User input:
--------------------------------------------------------------
$molecule
0  1
O -3.7059100822 1.2232593077 1.9512793621
C -4.0106469721 1.2630982394 0.7399667961
C -4.6953317386 0.1390926764 -0.1140856626
C -3.6493166726 -0.8039976616 -0.8603581293
C -2.1607885842 -0.4065805087 -0.5725066509
O -1.846355487 0.7231158972 -1.3905716295
C -0.4473973222 1.170513141 -1.1895986277
C 0.6208763607 0.1591587669 -1.7411002541
O 1.9057018612 0.6715592552 -1.2139383056
C 3.0083292916 -0.1367079333 -1.6327171376
C 4.3064118982 0.502574963 -1.0279713081
C 4.1858881492 0.8826579865 0.5114417815
C 2.7637195264 0.6448744885 1.1408721444
O 1.9640006281 1.5190204071 1.543502255
O -3.7755301288 2.390215737 -0.1116591836
O 2.5338826429 -0.7633956738 1.2167121267
O 2.907786365 -1.1427086417 -2.3645783081
C 1.2202337398 -1.0453396094 1.8456012917
C 5.4835640085 -0.556493099 -0.989831683
C 6.8414856616 0.20944649 -0.7391815453
C 6.7177492509 0.5514677672 0.7929343089
C 5.3022488895 -0.0643739945 1.1302791606
O 5.2448054891 -1.2766299367 0.2822745379
H 4.5682765273 1.3908970296 -1.6323547695
H 4.4319149653 1.9480849321 0.6643090647
H 5.4747315776 -1.2629509944 -1.8428524527
H 7.7011921338 -0.4494257187 -0.939456813
H 6.9309570651 1.108998844 -1.3688453749
H 7.5030885981 0.0514736301 1.3818945062
H 6.7609072761 1.6339617434 0.9935759212
H 5.1426913397 -0.3282585475 2.1934558155
O -1.3708711364 -0.9540395743 0.2285568403
C -3.0586232448 3.4480417033 0.6379546145
C -5.4413227661 -0.9187820413 0.8028297123
C -6.4059271806 -1.7726153615 -0.1109292615
C -5.3751655869 -2.6982318043 -0.8587801137
C -4.0121104392 -2.21097394 -0.2268288872
O -4.3707838322 -1.8741402567 1.1692748268
H -5.3750920312 0.6162476527 -0.8420195133
H -3.8118690011 -0.7785237832 -1.9528261621
H -2.045883843 3.113157828 0.9430438547
H -5.9008165171 -0.488068225 1.7134128821
H -7.1019068067 -2.3607354598 0.5082213071
H -6.9901025703 -1.1425359378 -0.8003589724
H -5.5468871282 -3.7624022773 -0.6319904142
H -5.3971064574 -2.5621072756 -1.9519291718
H -3.1837209226 -2.9454329896 -0.2453966048
H -3.6154049965 3.7544736139 1.5466396847
H -2.9704584369 4.3064172265 -0.0528218568
H 1.2452553415 -2.1136236725 2.1283166045
H 0.3704746382 -0.8745777096 1.145940996
H 1.0663563245 -0.4256141186 2.7512797554
H 0.4193058977 -0.8649117531 -1.3610156749
H 0.6195588678 0.1317595451 -2.8520931119
H -0.2348756014 1.3360792897 -0.1096210707
H -0.3695619516 2.1383993499 -1.7226783238
$end

$rem
JOBTYPE                   OPT
METHOD                    B3LYP
DFT_D                     d3_op
BASIS                     STO-3G
GEOM_OPT_MAX_CYCLES       100
GEOM_OPT_TOL_GRADIENT     300
GEOM_OPT_TOL_DISPLACEMENT 1200
GEOM_OPT_TOL_ENERGY       100
SYMMETRY                  False
THRESH                    12
SCF_CONVERGENCE           8
MAX_SUB_FILE_NUM          128
MEM_STATIC                400
MEM_TOTAL                 4000
$end
--------------------------------------------------------------

   16   -1510.2877571185      5.10E-09 Convergence criterion met
 Total energy in the final basis set = -1510.28775712
   15   -1510.2786400842      2.89E-09 Convergence criterion met
 Total energy in the final basis set = -1510.27864008
   14   -1510.2874582105      5.63E-09 Convergence criterion met
 Total energy in the final basis set = -1510.28745821
   14   -1510.2883846044      1.73E-09 Convergence criterion met
 Total energy in the final basis set = -1510.28838460
   13   -1510.2888825437      5.95E-09 Convergence criterion met
 Total energy in the final basis set = -1510.28888254
   14   -1510.2893600615      4.42E-09 Convergence criterion met
 Total energy in the final basis set = -1510.28936006
   13   -1510.2895756039      4.26E-09 Convergence criterion met
 Total energy in the final basis set = -1510.28957560
   13   -1510.2895196523      4.57E-09 Convergence criterion met
   11   -1510.2998610874      3.30E-09 Convergence criterion met
 Total energy in the final basis set = -1510.29986109
   11   -1510.2998614744      5.05E-09 Convergence criterion met
 Total energy in the final basis set = -1510.29986147
   11   -1510.2998654049      1.64E-09 Convergence criterion met
 Total energy in the final basis set = -1510.29986540
   10   -1510.2998660955      5.69E-09 Convergence criterion met
 Total energy in the final basis set = -1510.29986610
   10   -1510.2998662033      6.80E-09 Convergence criterion met
 Total energy in the final basis set = -1510.29986620
    9   -1510.2998653745      7.47E-09 Convergence criterion met
 Total energy in the final basis set = -1510.29986537

             Standard Nuclear Orientation (Angstroms)
    I     Atom           X                Y                Z
 ----------------------------------------------------------------
    1      O      -2.8472553562     1.7691455507     1.9104325877
    2      C      -3.0846205466     1.4553428563     0.7241213092
    3      C      -4.0272497407     0.3073221466     0.2108588460
    4      C      -3.3186706697    -0.6801061306    -0.8141913849
    5      C      -1.8248152259    -0.3041618314    -1.0888526407
    6      O      -1.6853387417     0.1343645281    -2.4419150464
    7      C      -0.2918705742     0.5861272416    -2.6835528217
    8      C       0.6720846739    -0.6135058452    -3.0403280035
    9      O       2.0502451650    -0.2455698790    -2.6340124924
   10      C       2.3471655586    -0.8077000266    -1.3446845707
   11      C       3.6837153131    -0.1719806350    -0.8397522683
   12      C       3.4505475962     0.9680493287     0.2514045946
   13      C       1.9265979110     1.1704562895     0.5937388969
   14      O       1.0831739890     1.7009472867    -0.1749781427
   15      O      -2.5344335597     2.1066014433    -0.4212938816
   16      O       1.6458981915     0.6650624915     1.8829085560
   17      O       1.6308704956    -1.6510282256    -0.7629491857
   18      C       0.1883206083     0.7110630944     2.1776363645
   19      C       4.5683534873    -1.1978040288    -0.0112900502
   20      C       6.0332765225    -0.6158128686     0.0800238219
   21      C       5.8302094166     0.5454075373     1.1226687519
   22      C       4.2941721648     0.3920537101     1.4620481550
   23      O       4.0576407241    -1.0674613844     1.3718072961
   24      H       4.2254887705     0.2296963717    -1.7138630905
   25      H       3.8439864536     1.9344424846    -0.1135630466
   26      H       4.4918769100    -2.2481495019    -0.3531145921
   27      H       6.7274202229    -1.3825955381     0.4593858310
   28      H       6.4007776607    -0.2564096055    -0.8943910183
   29      H       6.4409509137     0.3903777062     2.0262163333
   30      H       6.0653437000     1.5372890013     0.7046221334
   31      H       3.9858601207     0.7733608284     2.4538201493
   32      O      -0.8646232788    -0.3949665844    -0.2900225673
   33      C      -1.5212588952     3.1169429578    -0.0249093349
   34      C      -4.4016402200    -0.6870320504     1.3846673083
   35      C      -5.6232130616    -1.5729081169     0.9231759861
   36      C      -4.9217072660    -2.5517684785    -0.0908610505
   37      C      -3.4251477627    -2.0507407341    -0.0147365997
   38      O      -3.2640681921    -1.6365968450     1.3967479793
   39      H      -4.9240782531     0.7656451784    -0.2455821962
   40      H      -3.8557591972    -0.7158355595    -1.7778546791
   41      H      -0.5131150785     2.6359751574     0.0089696895
   42      H      -4.5028561822    -0.1937373150     2.3709523457
   43      H      -6.0503062417    -2.1178963919     1.7799336006
   44      H      -6.4186387833    -0.9720708393     0.4541220926
   45      H      -4.9942051964    -3.5993026548     0.2424732655
   46      H      -5.3313500890    -2.4760614522    -1.1107849200
   47      H      -2.6581391561    -2.8014479699    -0.2871112292
   48      H      -1.7694541149     3.5486951053     0.9641095507
   49      H      -1.5394347051     3.9045834564    -0.8003999218
   50      H       0.0587438642     0.1428204425     3.1159874169
   51      H      -0.3874087252     0.2355123479     1.3485518426
   52      H      -0.1573490475     1.7530721675     2.3286156688
   53      H       0.3616389032    -1.5224163939    -2.4807886997
   54      H       0.6875143278    -0.8197190278    -4.1286569488
   55      H       0.1250603290     1.0906135054    -1.7786578340
   56      H      -0.3517582395     1.3052112952    -3.5235471365
 ----------------------------------------------------------------

   10   -1510.2998662617      6.16E-09 Convergence criterion met
 Total energy in the final basis set = -1510.29986626
 Final energy is   -1510.29986626169
 **  OPTIMIZATION CONVERGED  **

                    Orbital Energies (a.u.)
 --------------------------------------------------------------

 Alpha MOs
 -- Occupied --
-18.940 -18.932 -18.928 -18.927 -18.885 -18.885 -18.877 -18.876
-18.873 -18.872 -10.106 -10.100 -10.096 -10.096 -10.062 -10.058
-10.058 -10.056 -10.056 -10.056 -10.039 -10.038 -10.037 -10.036
-10.036 -10.035 -10.019 -10.019 -10.018 -10.018  -1.015  -1.011
 -1.006  -1.003  -0.968  -0.967  -0.936  -0.936  -0.932  -0.930
 -0.762  -0.761  -0.724  -0.721  -0.709  -0.703  -0.690  -0.652
 -0.648  -0.615  -0.594  -0.577  -0.544  -0.543  -0.535  -0.534
 -0.510  -0.505  -0.478  -0.473  -0.461  -0.458  -0.450  -0.444
 -0.434  -0.430  -0.426  -0.422  -0.410  -0.404  -0.398  -0.392
 -0.382  -0.375  -0.370  -0.362  -0.358  -0.356  -0.353  -0.348
 -0.343  -0.338  -0.330  -0.328  -0.327  -0.322  -0.316  -0.309
 -0.307  -0.304  -0.302  -0.297  -0.286  -0.284  -0.283  -0.275
 -0.269  -0.259  -0.246  -0.241  -0.238  -0.232  -0.230  -0.186
 -0.175  -0.171  -0.160  -0.159  -0.154  -0.149  -0.148  -0.142
 -0.140

          Ground-State Mulliken Net Atomic Charges

     Atom                 Charge (a.u.)
  ----------------------------------------
      1 O                    -0.214361
      2 C                     0.210318
      3 C                    -0.078125
      4 C                    -0.079038
      5 C                     0.218954
      6 O                    -0.168371
      7 C                    -0.061654
      8 C                    -0.057429
      9 O                    -0.173965
     10 C                     0.206535
     11 C                    -0.078922
     12 C                    -0.076908
     13 C                     0.221246
     14 O                    -0.226055
     15 O                    -0.174210
     16 O                    -0.158632
     17 O                    -0.202491
     18 C                    -0.143694
     19 C                     0.025746
     20 C                    -0.143728
     21 C                    -0.144688
     22 C                     0.025481
     23 O                    -0.183947
     24 H                     0.085991
     25 H                     0.084084
     26 H                     0.085074
     27 H                     0.077970
     28 H                     0.072926
     29 H                     0.077953
     30 H                     0.072333
     31 H                     0.090969
     32 O                    -0.217096
     33 C                    -0.150516
     34 C                     0.023705
     35 C                    -0.144101
     36 C                    -0.143867
     37 C                     0.025383
     38 O                    -0.187180
     39 H                     0.084849
     40 H                     0.086365
     41 H                     0.111063
     42 H                     0.090035
     43 H                     0.078197
     44 H                     0.072939
     45 H                     0.078170
     46 H                     0.073163
     47 H                     0.085296
     48 H                     0.087053
     49 H                     0.081448
     50 H                     0.090568
     51 H                     0.121561
     52 H                     0.083038
     53 H                     0.098884
     54 H                     0.084052
     55 H                     0.112882
     56 H                     0.084748
  ----------------------------------------
  Sum of atomic charges =    -0.000000

                    Cartesian Multipole Moments
 -----------------------------------------------------------------
    Charge (ESU x 10^10)
                 0.0000
    Dipole Moment (Debye)
         X       0.1085      Y       1.0768      Z      -2.2836
       Tot       2.5271
    Quadrupole Moments (Debye-Ang)
        XX    -136.3342     XY       7.2659     YY    -158.2354
        XZ       0.3300     YZ       4.9240     ZZ    -161.7105

 Total job time:  145.23s(wall), 6926.59s(cpu)
        *  Thank you very much for using Q-Chem.  Have a nice day.  *
