 Q-Chem 5.0, Q-Chem, Inc., Pleasanton, CA (2017)
 Q-Chem 5.0.1 for Intel X86 EM64T Linux

User input:
--------------------------------------------------------------
$molecule
0  1
O -3.94934 -3.66094 2.70899
C -3.26408 -4.56952 2.26188
C -3.36658 -6.02376 2.66595
C -2.45811 -6.50055 3.81103
C -1.67766 -5.43111 4.54267
O -0.48263 -5.21851 3.91647
C 0.32767 -4.23491 4.56855
C 0.77571 -4.74455 5.93444
O 1.51656 -3.72231 6.61932
C 1.97165 -4.05857 7.85179
C 2.84563 -2.99193 8.46749
C 2.2678 -1.57018 8.41243
C 0.79055 -1.46935 8.0895
O 0.30869 -0.82624 7.1682
O -2.20592 -4.25874 1.46879
O -0.05566 -2.17385 8.8899
O 1.61231 -5.06124 8.4572
C -1.42233 -2.23533 8.71696
C 3.1192 -3.13429 9.97789
C 4.41041 -2.39835 10.33589
C 3.96789 -0.95541 10.18578
C 2.47905 -1.15297 9.87956
O 2.14266 -2.32497 10.58652
H 3.8081 -3.04164 7.90989
H 2.81003 -0.91772 7.69227
H 3.17127 -4.18944 10.3231
H 4.61139 -2.59656 11.41325
H 5.30292 -2.6854 9.7393
H 4.10077 -0.44436 11.16517
H 4.48011 -0.38149 9.3834
H 1.89935 -0.24049 10.14236
O -2.20582 -4.61963 5.29692
C -1.88354 -2.97906 1.0688
C -4.74793 -6.3387 3.28941
C -5.04758 -7.83397 3.17979
C -4.09308 -8.38793 4.21485
C -3.5075 -7.087 4.7723
O -4.56502 -6.16715 4.67203
H -3.2801 -6.62674 1.73433
H -1.73619 -7.2815 3.48094
H -1.66834 -2.3444 1.95509
H -5.57764 -5.75662 2.83088
H -6.08927 -7.98965 3.54183
H -4.94661 -8.2635 2.15993
H -4.6871 -8.9101 4.9977
H -3.30472 -9.06544 3.82123
H -3.09809 -7.25276 5.7937
H -2.71946 -2.53889 0.48412
H -0.97878 -3.01548 0.42811
H -1.86003 -2.87818 9.5078
H -1.66161 -2.67572 7.72512
H -1.86456 -1.21923 8.79502
H -0.10538 -5.00991 6.55697
H 1.40162 -5.65445 5.795
H -0.2212 -3.26994 4.66049
H 1.23045 -4.04462 3.95056
$end

$opt
CONSTRAINT
tors           1           2           3           4     -91.959
tors           3           4           5           6     -88.353
tors           4           5           6           7    -178.809
tors           5           6           7           8     +66.717
tors           6           7           8           9    -176.357
tors           7           8           9          10    -179.965
tors           8           9          10          11    +174.814
tors           9          10          11          12     +48.570
tors          11          12          13          14    -123.956
ENDCONSTRAINT
$end

$rem
JOBTYPE                   OPT
METHOD                    B3LYP
DFT_D                     d3_op
BASIS                     STO-3G
GEOM_OPT_MAX_CYCLES       100
GEOM_OPT_TOL_GRADIENT     300
GEOM_OPT_TOL_DISPLACEMENT 1200
GEOM_OPT_TOL_ENERGY       100
SYMMETRY                  False
THRESH                    12
SCF_CONVERGENCE           8
MAX_SUB_FILE_NUM          128
MEM_STATIC                400
MEM_TOTAL                 4000
$end
--------------------------------------------------------------

   15   -1510.1510427013      6.00E-09 Convergence criterion met
 Total energy in the final basis set = -1510.15104270
   14   -1510.2206313949      6.28E-09 Convergence criterion met
 Total energy in the final basis set = -1510.22063139
   15   -1510.2583807783      1.31E-09 Convergence criterion met
 Total energy in the final basis set = -1510.25838078
   14   -1510.2759496708      8.38E-09 Convergence criterion met
 Total energy in the final basis set = -1510.27594967
   13   -1510.2825001116      7.15E-09 Convergence criterion met
 Total energy in the final basis set = -1510.28250011
   13   -1510.2850142524      6.14E-09 Convergence criterion met
 Total energy in the final basis set = -1510.28501425
   13   -1510.2855893360      3.19E-09 Convergence criterion met
 Total energy in the final basis set = -1510.28558934
   12   -1510.2858604483      7.73E-09 Convergence criterion met
   11   -1510.2869214407      2.83E-09 Convergence criterion met
 Total energy in the final basis set = -1510.28692144
   10   -1510.2869252578      8.77E-09 Convergence criterion met
 Total energy in the final basis set = -1510.28692526
   10   -1510.2869275345      5.81E-09 Convergence criterion met
 Total energy in the final basis set = -1510.28692753
   10   -1510.2869287921      3.66E-09 Convergence criterion met
 Total energy in the final basis set = -1510.28692879
    9   -1510.2869302096      9.04E-09 Convergence criterion met
 Total energy in the final basis set = -1510.28693021
    9   -1510.2869313969      4.47E-09 Convergence criterion met
 Total energy in the final basis set = -1510.28693140

             Standard Nuclear Orientation (Angstroms)
    I     Atom           X                Y                Z
 ----------------------------------------------------------------
    1      O      -3.7567497008     1.6713172626     1.6082461992
    2      C      -4.0664688884     1.4391014214     0.4203310806
    3      C      -4.7718459857     0.1621824656    -0.1581445683
    4      C      -3.7269584519    -0.9379635766    -0.6483236638
    5      C      -2.2413214633    -0.4797374791    -0.4614549250
    6      O      -1.8366591829     0.2314541072    -1.6399994051
    7      C      -0.4220792948     0.6598634117    -1.5163755156
    8      C       0.5829412699    -0.5454778808    -1.5014369323
    9      O       1.9047329526     0.0795450423    -1.2837647790
   10      C       2.9444777139    -0.9049228586    -1.2456159236
   11      C       4.2997022814    -0.1256693959    -1.1471062818
   12      C       4.2786101874     0.9943355475    -0.0186593496
   13      C       2.9062417237     1.1290131656     0.7396727206
   14      O       2.2151105261     2.1652878931     0.8524681439
   15      O      -3.7679244348     2.3144626448    -0.6743117890
   16      O       2.5970741193    -0.1239266387     1.3633456131
   17      O       2.7563043461    -2.1354274734    -1.3282097601
   18      C       1.3024972755    -0.0421029670     2.0837008190
   19      C       5.4622345867    -1.0662641441    -0.6296777854
   20      C       6.8434904469    -0.3490838588    -0.8919050331
   21      C       6.8272797438     0.7564571542     0.2298008915
   22      C       5.4406990969     0.4629198920     0.9292177465
   23      O       5.3136855578    -1.0087529830     0.8432252171
   24      H       4.5253704710     0.3112362120    -2.1373744422
   25      H       4.5197822341     1.9869466975    -0.4374309950
   26      H       5.3820203293    -2.1119727755    -0.9857562899
   27      H       7.6776135456    -1.0544674662    -0.7508538093
   28      H       6.9060164377     0.0744482550    -1.9070317523
   29      H       7.6545373145     0.6180961657     0.9437887213
   30      H       6.8789718842     1.7786150334    -0.1779131681
   31      H       5.3637552425     0.7970662525     1.9820001812
   32      O      -1.5102149884    -0.6651341041     0.5377707960
   33      C      -2.9985881961     3.4843993322    -0.1905927323
   34      C      -5.5305497579    -0.6406209982     0.9793127324
   35      C      -6.4841048096    -1.6996205259     0.2977742291
   36      C      -5.4456579763    -2.7820382436    -0.1804820174
   37      C      -4.0893310877    -2.1429161677     0.3153474404
   38      O      -4.4614473288    -1.4705857890     1.5806864166
   39      H      -5.4386704947     0.4654265234    -0.9847130420
   40      H      -3.8874618921    -1.1832142366    -1.7131322971
   41      H      -2.0403086603     3.1758138543     0.2752230515
   42      H      -5.9995027985    -0.0006511910     1.7513383983
   43      H      -7.1872687300    -2.1146464828     1.0372737721
   44      H      -7.0623250398    -1.2658350022    -0.5338778272
   45      H      -5.6163694849    -3.7516057657     0.3137983966
   46      H      -5.4603023711    -2.9339874626    -1.2716191108
   47      H      -3.2593216257    -2.8551186249     0.4872129572
   48      H      -3.5742573544     4.0761660152     0.5500724984
   49      H      -2.7938245097     4.1047473161    -1.0823684545
   50      H       1.3043055605    -0.8730711763     2.8127467457
   51      H       0.4345362503    -0.1657426081     1.3982884781
   52      H       1.1998266812     0.9245217074     2.6155112459
   53      H       0.3319793172    -1.2462665972    -0.6778591904
   54      H       0.5524155639    -1.1014334563    -2.4634689755
   55      H      -0.2676291573     1.2589341585    -0.5920600676
   56      H      -0.2302061205     1.3043240149    -2.3968820026
 ----------------------------------------------------------------

    9   -1510.2869317323      7.12E-09 Convergence criterion met
 Total energy in the final basis set = -1510.28693173
 Final energy is   -1510.28693173225
 **  OPTIMIZATION CONVERGED  **

                    Orbital Energies (a.u.)
 --------------------------------------------------------------

 Alpha MOs
 -- Occupied --
-18.945 -18.936 -18.935 -18.920 -18.889 -18.887 -18.884 -18.880
-18.877 -18.860 -10.109 -10.103 -10.099 -10.090 -10.079 -10.075
-10.064 -10.062 -10.060 -10.057 -10.056 -10.043 -10.043 -10.040
-10.037 -10.032 -10.022 -10.021 -10.018 -10.017  -1.023  -1.016
 -1.011  -0.996  -0.971  -0.967  -0.947  -0.940  -0.936  -0.923
 -0.767  -0.761  -0.730  -0.723  -0.712  -0.704  -0.699  -0.663
 -0.647  -0.620  -0.596  -0.585  -0.550  -0.544  -0.539  -0.535
 -0.514  -0.508  -0.485  -0.470  -0.467  -0.463  -0.458  -0.444
 -0.434  -0.431  -0.427  -0.415  -0.412  -0.403  -0.401  -0.399
 -0.394  -0.384  -0.374  -0.363  -0.362  -0.358  -0.353  -0.351
 -0.347  -0.342  -0.335  -0.332  -0.332  -0.327  -0.322  -0.312
 -0.308  -0.307  -0.304  -0.298  -0.291  -0.287  -0.283  -0.278
 -0.275  -0.263  -0.254  -0.250  -0.239  -0.235  -0.231  -0.189
 -0.180  -0.177  -0.166  -0.161  -0.157  -0.152  -0.145  -0.142
 -0.140

          Ground-State Mulliken Net Atomic Charges

     Atom                 Charge (a.u.)
  ----------------------------------------
      1 O                    -0.206296
      2 C                     0.203821
      3 C                    -0.077652
      4 C                    -0.077963
      5 C                     0.208295
      6 O                    -0.166195
      7 C                    -0.048886
      8 C                    -0.051236
      9 O                    -0.176721
     10 C                     0.219038
     11 C                    -0.078442
     12 C                    -0.079010
     13 C                     0.212407
     14 O                    -0.223275
     15 O                    -0.169448
     16 O                    -0.172351
     17 O                    -0.207501
     18 C                    -0.137811
     19 C                     0.024416
     20 C                    -0.144187
     21 C                    -0.143968
     22 C                     0.025982
     23 O                    -0.185690
     24 H                     0.084118
     25 H                     0.082759
     26 H                     0.089436
     27 H                     0.077953
     28 H                     0.072273
     29 H                     0.077689
     30 H                     0.073131
     31 H                     0.083271
     32 O                    -0.209442
     33 C                    -0.129066
     34 C                     0.025660
     35 C                    -0.144048
     36 C                    -0.143879
     37 C                     0.025678
     38 O                    -0.184040
     39 H                     0.086783
     40 H                     0.087204
     41 H                     0.089652
     42 H                     0.087571
     43 H                     0.078825
     44 H                     0.073360
     45 H                     0.079020
     46 H                     0.073279
     47 H                     0.086779
     48 H                     0.089556
     49 H                     0.090738
     50 H                     0.088745
     51 H                     0.096190
     52 H                     0.088988
     53 H                     0.098789
     54 H                     0.085790
     55 H                     0.096143
     56 H                     0.093772
  ----------------------------------------
  Sum of atomic charges =    -0.000000

                    Cartesian Multipole Moments
 -----------------------------------------------------------------
    Charge (ESU x 10^10)
                 0.0000
    Dipole Moment (Debye)
         X      -0.8594      Y       1.0191      Z      -3.4281
       Tot       3.6782
    Quadrupole Moments (Debye-Ang)
        XX    -138.0072     XY       8.9960     YY    -160.9039
        XZ       1.5500     YZ       0.9286     ZZ    -162.0939

 Total job time:  63.32s(wall), 3011.49s(cpu)
        *  Thank you very much for using Q-Chem.  Have a nice day.  *
