 Q-Chem 5.0, Q-Chem, Inc., Pleasanton, CA (2017)
 Q-Chem 5.0.1 for Intel X86 EM64T Linux

User input:
--------------------------------------------------------------
$molecule
0  1
O -3.7567497008 1.6713172626 1.6082461992
C -4.0664688884 1.4391014214 0.4203310806
C -4.7718459857 0.1621824656 -0.1581445683
C -3.7269584519 -0.9379635766 -0.6483236638
C -2.2413214633 -0.4797374791 -0.461454925
O -1.8366591829 0.2314541072 -1.6399994051
C -0.4220792948 0.6598634117 -1.5163755156
C 0.5829412699 -0.5454778808 -1.5014369323
O 1.9047329526 0.0795450423 -1.283764779
C 2.9444777139 -0.9049228586 -1.2456159236
C 4.2997022814 -0.1256693959 -1.1471062818
C 4.2786101874 0.9943355475 -0.0186593496
C 2.9062417237 1.1290131656 0.7396727206
O 2.2151105261 2.1652878931 0.8524681439
O -3.7679244348 2.3144626448 -0.674311789
O 2.5970741193 -0.1239266387 1.3633456131
O 2.7563043461 -2.1354274734 -1.3282097601
C 1.3024972755 -0.042102967 2.083700819
C 5.4622345867 -1.0662641441 -0.6296777854
C 6.8434904469 -0.3490838588 -0.8919050331
C 6.8272797438 0.7564571542 0.2298008915
C 5.4406990969 0.462919892 0.9292177465
O 5.3136855578 -1.008752983 0.8432252171
H 4.525370471 0.311236212 -2.1373744422
H 4.5197822341 1.9869466975 -0.437430995
H 5.3820203293 -2.1119727755 -0.9857562899
H 7.6776135456 -1.0544674662 -0.7508538093
H 6.9060164377 0.074448255 -1.9070317523
H 7.6545373145 0.6180961657 0.9437887213
H 6.8789718842 1.7786150334 -0.1779131681
H 5.3637552425 0.7970662525 1.9820001812
O -1.5102149884 -0.6651341041 0.537770796
C -2.9985881961 3.4843993322 -0.1905927323
C -5.5305497579 -0.6406209982 0.9793127324
C -6.4841048096 -1.6996205259 0.2977742291
C -5.4456579763 -2.7820382436 -0.1804820174
C -4.0893310877 -2.1429161677 0.3153474404
O -4.4614473288 -1.470585789 1.5806864166
H -5.4386704947 0.4654265234 -0.984713042
H -3.8874618921 -1.1832142366 -1.7131322971
H -2.0403086603 3.1758138543 0.2752230515
H -5.9995027985 -0.000651191 1.7513383983
H -7.18726873 -2.1146464828 1.0372737721
H -7.0623250398 -1.2658350022 -0.5338778272
H -5.6163694849 -3.7516057657 0.3137983966
H -5.4603023711 -2.9339874626 -1.2716191108
H -3.2593216257 -2.8551186249 0.4872129572
H -3.5742573544 4.0761660152 0.5500724984
H -2.7938245097 4.1047473161 -1.0823684545
H 1.3043055605 -0.8730711763 2.8127467457
H 0.4345362503 -0.1657426081 1.3982884781
H 1.1998266812 0.9245217074 2.6155112459
H 0.3319793172 -1.2462665972 -0.6778591904
H 0.5524155639 -1.1014334563 -2.4634689755
H -0.2676291573 1.2589341585 -0.5920600676
H -0.2302061205 1.3043240149 -2.3968820026
$end

$rem
JOBTYPE                   OPT
METHOD                    B3LYP
DFT_D                     d3_op
BASIS                     STO-3G
GEOM_OPT_MAX_CYCLES       100
GEOM_OPT_TOL_GRADIENT     300
GEOM_OPT_TOL_DISPLACEMENT 1200
GEOM_OPT_TOL_ENERGY       100
SYMMETRY                  False
THRESH                    12
SCF_CONVERGENCE           8
MAX_SUB_FILE_NUM          128
MEM_STATIC                400
MEM_TOTAL                 4000
$end
--------------------------------------------------------------

   16   -1510.2864625459      5.01E-09 Convergence criterion met
 Total energy in the final basis set = -1510.28646255
   15   -1510.2735177629      3.61E-09 Convergence criterion met
 Total energy in the final basis set = -1510.27351776
   15   -1510.2876686565      2.63E-09 Convergence criterion met
 Total energy in the final basis set = -1510.28766866
   14   -1510.2878654339      9.40E-09 Convergence criterion met
 Total energy in the final basis set = -1510.28786543
   13   -1510.2890837464      6.64E-09 Convergence criterion met
 Total energy in the final basis set = -1510.28908375
   13   -1510.2898454219      7.15E-09 Convergence criterion met
 Total energy in the final basis set = -1510.28984542
   14   -1510.2902782047      3.29E-09 Convergence criterion met
 Total energy in the final basis set = -1510.29027820
   14   -1510.2907749608      7.21E-09 Convergence criterion met
   12   -1510.2998413221      4.91E-09 Convergence criterion met
 Total energy in the final basis set = -1510.29984132
   11   -1510.2998579354      5.46E-09 Convergence criterion met
 Total energy in the final basis set = -1510.29985794
   11   -1510.2998656677      5.52E-09 Convergence criterion met
 Total energy in the final basis set = -1510.29986567
   11   -1510.2998759474      4.04E-09 Convergence criterion met
 Total energy in the final basis set = -1510.29987595
   11   -1510.2998781315      4.81E-09 Convergence criterion met
 Total energy in the final basis set = -1510.29987813
   10   -1510.2998799887      9.71E-09 Convergence criterion met
 Total energy in the final basis set = -1510.29987999

             Standard Nuclear Orientation (Angstroms)
    I     Atom           X                Y                Z
 ----------------------------------------------------------------
    1      O      -2.7625576994     2.0510366124     1.6470886161
    2      C      -3.0404217745     1.5752600597     0.5254119018
    3      C      -4.0064254715     0.3769416700     0.2073596628
    4      C      -3.3494970630    -0.7289069314    -0.7253175155
    5      C      -1.8522679785    -0.4206250583    -1.0641072563
    6      O      -1.7115222810    -0.2073797134    -2.4704672854
    7      C      -0.3085435614     0.1656940561    -2.7829405884
    8      C       0.6304758599    -1.0970567543    -2.9207027620
    9      O       2.0166213061    -0.6885903739    -2.5879664608
   10      C       2.3218899307    -1.0461339603    -1.2298229560
   11      C       3.6736698316    -0.3588206918    -0.8478375749
   12      C       3.4672139621     0.9510681563     0.0391380804
   13      C       1.9494203608     1.2280552028     0.3559618245
   14      O       1.1065885393     1.6523052189    -0.4769660799
   15      O      -2.5273714397     2.0535699988    -0.7183883775
   16      O       1.6750093642     0.9183403598     1.7066867061
   17      O       1.6011470924    -1.7743841154    -0.5137465629
   18      C       0.2215237106     1.0214044016     2.0054777497
   19      C       4.5520055406    -1.2457239303     0.1336958542
   20      C       6.0258904540    -0.6799234525     0.1145654346
   21      C       5.8498243740     0.6429161581     0.9487475459
   22      C       4.3154038457     0.5717043581     1.3218248720
   23      O       4.0586091781    -0.8786472911     1.4796015802
   24      H       4.2120395033    -0.1173083290    -1.7811829042
   25      H       3.8718430450     1.8364122232    -0.4841052655
   26      H       4.4571321024    -2.3369670665    -0.0278987339
   27      H       6.7126909078    -1.3825194551     0.6127702328
   28      H       6.3897619097    -0.4951254852    -0.9088344003
   29      H       6.4672178257     0.6296633860     1.8607534765
   30      H       6.0952795105     1.5476541161     0.3698855972
   31      H       4.0237222261     1.1176874649     2.2388017652
   32      O      -0.8886217972    -0.4002371828    -0.2644727672
   33      C      -1.4905824149     3.0942625171    -0.5044024495
   34      C      -4.3260055340    -0.4669306993     1.5086572137
   35      C      -5.5871854471    -1.3716980573     1.2222186381
   36      C      -4.9666453773    -2.4637725077     0.2736855787
   37      C      -3.4570103195    -2.0020588753     0.2196490826
   38      O      -3.2098587126    -1.4404075637     1.5669237389
   39      H      -4.9245163393     0.7823823364    -0.2567023471
   40      H      -3.9076096378    -0.8513782968    -1.6698545308
   41      H      -1.7102248805     3.6842342022     0.4068125151
   42      H      -4.3610304805     0.1376865637     2.4358175263
   43      H      -5.9611675856    -1.8166588878     2.1580141124
   44      H      -6.4057807436    -0.8082560138     0.7467194325
   45      H      -5.0455932570    -3.4718813848     0.7107258988
   46      H      -5.4321547859    -2.4749855176    -0.7248821554
   47      H      -2.7248233702    -2.8014817196    -0.0057064577
   48      H      -1.5130633788     3.7484387245    -1.3951011303
   49      H      -0.4884249474     2.6077056869    -0.4126252171
   50      H       0.0974581353     0.5912832571     3.0153058299
   51      H      -0.3684424941     0.4409425645     1.2572761587
   52      H      -0.1129423355     2.0778655543     2.0127939699
   53      H       0.3064499465    -1.8862982581    -2.2078809569
   54      H       0.6358216603    -1.4940483007    -3.9551539693
   55      H       0.1181832077     0.8131727367    -1.9793734125
   56      H      -0.3535220272     0.7265098053    -3.7365780214
 ----------------------------------------------------------------

    9   -1510.2998792314      3.90E-09 Convergence criterion met
 Total energy in the final basis set = -1510.29987923
 Final energy is   -1510.29987923139
 **  OPTIMIZATION CONVERGED  **

                    Orbital Energies (a.u.)
 --------------------------------------------------------------

 Alpha MOs
 -- Occupied --
-18.939 -18.933 -18.928 -18.927 -18.885 -18.885 -18.876 -18.876
-18.873 -18.873 -10.105 -10.100 -10.096 -10.096 -10.062 -10.058
-10.058 -10.056 -10.056 -10.056 -10.039 -10.038 -10.036 -10.036
-10.036 -10.035 -10.019 -10.019 -10.018 -10.017  -1.015  -1.010
 -1.006  -1.003  -0.968  -0.967  -0.936  -0.936  -0.932  -0.931
 -0.762  -0.761  -0.724  -0.721  -0.709  -0.703  -0.690  -0.652
 -0.647  -0.615  -0.594  -0.577  -0.544  -0.543  -0.535  -0.534
 -0.510  -0.505  -0.478  -0.473  -0.461  -0.458  -0.450  -0.443
 -0.434  -0.430  -0.426  -0.422  -0.409  -0.404  -0.398  -0.392
 -0.382  -0.375  -0.371  -0.362  -0.358  -0.355  -0.353  -0.348
 -0.343  -0.338  -0.330  -0.328  -0.327  -0.322  -0.316  -0.309
 -0.307  -0.304  -0.302  -0.297  -0.286  -0.284  -0.283  -0.275
 -0.269  -0.259  -0.246  -0.241  -0.238  -0.232  -0.230  -0.186
 -0.175  -0.171  -0.161  -0.158  -0.154  -0.149  -0.148  -0.141
 -0.140

          Ground-State Mulliken Net Atomic Charges

     Atom                 Charge (a.u.)
  ----------------------------------------
      1 O                    -0.214253
      2 C                     0.210870
      3 C                    -0.078464
      4 C                    -0.078659
      5 C                     0.219243
      6 O                    -0.168422
      7 C                    -0.061092
      8 C                    -0.057486
      9 O                    -0.174040
     10 C                     0.206838
     11 C                    -0.078879
     12 C                    -0.076985
     13 C                     0.220653
     14 O                    -0.226069
     15 O                    -0.174382
     16 O                    -0.158808
     17 O                    -0.202428
     18 C                    -0.144167
     19 C                     0.025817
     20 C                    -0.143763
     21 C                    -0.144766
     22 C                     0.025610
     23 O                    -0.183839
     24 H                     0.085969
     25 H                     0.084019
     26 H                     0.085065
     27 H                     0.077935
     28 H                     0.072853
     29 H                     0.077887
     30 H                     0.072324
     31 H                     0.090710
     32 O                    -0.217487
     33 C                    -0.150240
     34 C                     0.023545
     35 C                    -0.143802
     36 C                    -0.144120
     37 C                     0.025497
     38 O                    -0.186860
     39 H                     0.084807
     40 H                     0.086579
     41 H                     0.086576
     42 H                     0.090166
     43 H                     0.078241
     44 H                     0.072910
     45 H                     0.078285
     46 H                     0.073287
     47 H                     0.084767
     48 H                     0.081638
     49 H                     0.111278
     50 H                     0.090322
     51 H                     0.121841
     52 H                     0.083076
     53 H                     0.099257
     54 H                     0.083860
     55 H                     0.112317
     56 H                     0.084970
  ----------------------------------------
  Sum of atomic charges =    -0.000000

                    Cartesian Multipole Moments
 -----------------------------------------------------------------
    Charge (ESU x 10^10)
                 0.0000
    Dipole Moment (Debye)
         X       0.0308      Y       0.7149      Z      -2.4191
       Tot       2.5227
    Quadrupole Moments (Debye-Ang)
        XX    -135.9815     XY       6.8353     YY    -157.1001
        XZ      -1.2700     YZ       4.2249     ZZ    -162.8414

 Total job time:  195.64s(wall), 9338.40s(cpu)
        *  Thank you very much for using Q-Chem.  Have a nice day.  *
