 Q-Chem 5.0, Q-Chem, Inc., Pleasanton, CA (2017)
 Q-Chem 5.0.1 for Intel X86 EM64T Linux

User input:
--------------------------------------------------------------
$molecule
0  1
O -3.8690004931 1.5156437806 1.8456080504
C -4.0254347405 1.3717339052 0.614313709
C -4.724302021 0.1781634389 -0.1299950049
C -3.6899200071 -0.8649682856 -0.7506144484
C -2.1967648165 -0.4470565198 -0.5320024335
O -1.8281362511 0.461114485 -1.5748026855
C -0.4161537469 0.8868842246 -1.4251996092
C 0.6180452345 -0.2620264573 -1.7023385049
O 1.9199975135 0.3429499918 -1.3460053857
C 3.0032523559 -0.5705578754 -1.5374882076
C 4.313541697 0.1923662557 -1.1368790851
C 4.1906680334 0.9726055747 0.2431691284
C 2.7685437059 0.9117989251 0.9143572571
O 2.0021480237 1.8771421656 1.1298334539
O -3.5680997984 2.3049353521 -0.3705367578
O 2.5046571802 -0.4381195934 1.3064101257
O 2.8800654482 -1.7348895434 -1.968716466
C 1.1960879215 -0.5345417666 1.9990681768
C 5.4818185091 -0.8255621252 -0.8150289444
C 6.8456411661 -0.0314794902 -0.7752837824
C 6.720846221 0.716396759 0.6043641226
C 5.3026832286 0.2198024157 1.0949787806
O 5.2383079578 -1.1751108508 0.6042272646
H 4.5772194864 0.88405396 -1.9585323104
H 4.4381315428 2.0403640614 0.1096209555
H 5.4672274085 -1.735256878 -1.4464556569
H 7.6988169918 -0.728241012 -0.7828413132
H 6.9478931518 0.6608112549 -1.6263961846
H 7.5046700166 0.3955719856 1.3090354456
H 6.7659878009 1.8123556976 0.5010079191
H 5.1438462486 0.2519946863 2.1901060348
O -1.4376817264 -0.8101030149 0.3950397572
C -2.8172019208 3.4034480902 0.2798734721
C -5.4973551981 -0.7509918553 0.8951603309
C -6.452451901 -1.7150615912 0.08947172
C -5.4184925012 -2.7404461549 -0.5082759597
C -4.061422456 -2.1731312229 0.0660194919
O -4.4358450906 -1.6523403871 1.4003200824
H -5.3834047874 0.587885221 -0.9163409164
H -3.8620468707 -0.98439139 -1.8351799031
H -1.9068380888 3.0264451276 0.7898626945
H -5.9663311232 -0.2025251275 1.7348685059
H -7.1613116905 -2.2093966418 0.7723500024
H -7.0236751704 -1.1832388401 -0.6882135156
H -5.5977815987 -3.7605394107 -0.1333102763
H -5.4270914945 -2.7619640782 -1.6097168334
H -3.2354958543 -2.9050486944 0.1564691379
H -3.4391787262 3.9421702039 1.0234350547
H -2.5250677172 4.0953413716 -0.5311999916
H 1.2119551164 -1.4978378069 2.5409856158
H 0.3385691336 -0.5338204086 1.2880775556
H 1.0623129332 0.2958787598 2.7203170757
H 0.4020162011 -1.1449642371 -1.0643140203
H 0.5954124122 -0.579065342 -2.7674754738
H -0.2259635006 1.2828720365 -0.4031756267
H -0.2769484194 1.7062740144 -2.15760356
$end

$rem
JOBTYPE                   OPT
METHOD                    B3LYP
DFT_D                     d3_op
BASIS                     STO-3G
GEOM_OPT_MAX_CYCLES       100
GEOM_OPT_TOL_GRADIENT     300
GEOM_OPT_TOL_DISPLACEMENT 1200
GEOM_OPT_TOL_ENERGY       100
SYMMETRY                  False
THRESH                    12
SCF_CONVERGENCE           8
MAX_SUB_FILE_NUM          128
MEM_STATIC                400
MEM_TOTAL                 4000
$end
--------------------------------------------------------------

   16   -1510.2882761355      5.20E-09 Convergence criterion met
 Total energy in the final basis set = -1510.28827614
   14   -1510.2725396130      5.78E-09 Convergence criterion met
 Total energy in the final basis set = -1510.27253961
   14   -1510.2885380571      2.96E-09 Convergence criterion met
 Total energy in the final basis set = -1510.28853806
   13   -1510.2884750578      7.90E-09 Convergence criterion met
 Total energy in the final basis set = -1510.28847506
   15   -1510.2895999245      2.29E-09 Convergence criterion met
 Total energy in the final basis set = -1510.28959992
   13   -1510.2902576590      6.56E-09 Convergence criterion met
 Total energy in the final basis set = -1510.29025766
   14   -1510.2906559560      5.05E-09 Convergence criterion met
 Total energy in the final basis set = -1510.29065596
   13   -1510.2917711674      8.18E-09 Convergence criterion met
   11   -1510.2998679293      5.56E-09 Convergence criterion met
 Total energy in the final basis set = -1510.29986793
   11   -1510.2998724843      7.55E-09 Convergence criterion met
 Total energy in the final basis set = -1510.29987248
   10   -1510.2998751899      7.17E-09 Convergence criterion met
 Total energy in the final basis set = -1510.29987519
   11   -1510.2998761009      4.08E-09 Convergence criterion met
 Total energy in the final basis set = -1510.29987610
    9   -1510.2998788990      9.62E-09 Convergence criterion met
 Total energy in the final basis set = -1510.29987890
   10   -1510.2998792483      9.56E-09 Convergence criterion met
 Total energy in the final basis set = -1510.29987925

             Standard Nuclear Orientation (Angstroms)
    I     Atom           X                Y                Z
 ----------------------------------------------------------------
    1      O      -2.7869517382     2.0249051161     1.6389860417
    2      C      -3.0516040576     1.5614077477     0.5089873790
    3      C      -4.0142153294     0.3671761671     0.1666406303
    4      C      -3.3406011509    -0.7374133655    -0.7555877652
    5      C      -1.8374376424    -0.4293008356    -1.0660900139
    6      O      -1.6716056768    -0.2153847458    -2.4695514190
    7      C      -0.2635991851     0.1586989020    -2.7568937238
    8      C       0.6792692936    -1.1030436997    -2.8747425110
    9      O       2.0608879304    -0.6879949150    -2.5316796319
   10      C       2.3535022370    -1.0337696364    -1.1677500286
   11      C       3.6966826665    -0.3353635039    -0.7758438991
   12      C       3.4709000271     0.9746932881     0.1061611634
   13      C       1.9475181640     1.2394127327     0.4060515741
   14      O       1.1109084980     1.6590096599    -0.4355458726
   15      O      -2.5233837910     2.0525836381    -0.7233693952
   16      O       1.6596441047     0.9234337897     1.7524535025
   17      O       1.6288877558    -1.7603136515    -0.4538330763
   18      C       0.2021475334     1.0161179814     2.0347288568
   19      C       4.5728412769    -1.2127358416     0.2159705302
   20      C       6.0417030912    -0.6338551399     0.2104972183
   21      C       5.8461572598     0.6879837773     1.0419021734
   22      C       4.3085906998     0.6046079558     1.3986282786
   23      O       4.0624585212    -0.8476588646     1.5561691999
   24      H       4.2414934945    -0.0917628011    -1.7048859509
   25      H       3.8738801124     1.8622048428    -0.4146395454
   26      H       4.4891934652    -2.3050528194     0.0555044597
   27      H       6.7301877460    -1.3298575740     0.7155816315
   28      H       6.4133502490    -0.4464843346    -0.8096301860
   29      H       6.4536994603     0.6798734300     1.9605653846
   30      H       6.0908583081     1.5944501888     0.4654018044
   31      H       4.0025310991     1.1497013809     2.3114323284
   32      O      -0.8887812670    -0.4071155113    -0.2487799737
   33      C      -1.4907655401     3.0923474916    -0.4856936231
   34      C      -4.3640831153    -0.4800620381     1.4579023084
   35      C      -5.6205932251    -1.3811334232     1.1404874174
   36      C      -4.9815670144    -2.4709445894     0.2017593138
   37      C      -3.4697890284    -2.0128110643     0.1836288130
   38      O      -3.2516532307    -1.4561841661     1.5378578947
   39      H      -4.9209793709     0.7766746557    -0.3157218666
   40      H      -3.8811672910    -0.8572839681    -1.7106023329
   41      H      -1.7224290410     3.6727391794     0.4286907607
   42      H      -4.4183019627     0.1217211410     2.3859745160
   43      H      -6.0159125572    -1.8287485964     2.0662122034
   44      H      -6.4274122752    -0.8140905705     0.6493400536
   45      H      -5.0732794830    -3.4806976182     0.6324759599
   46      H      -5.4238830000    -2.4763833479    -0.8073454707
   47      H      -2.7344947316    -2.8131145644    -0.0280470022
   48      H      -1.5034030217     3.7557940158    -1.3697201561
   49      H      -0.4887680283     2.6068020561    -0.3867236895
   50      H       0.0688190714     0.5794907815     3.0405875471
   51      H      -0.3762137704     0.4367493853     1.2768073098
   52      H      -0.1383094653     2.0706504454     2.0442852799
   53      H       0.3501477874    -1.8870297906    -2.1584770043
   54      H       0.6954812107    -1.5086306398    -3.9057436189
   55      H       0.1473772695     0.8092526444    -1.9475264764
   56      H      -0.2916565640     0.7170802002    -3.7126160402
 ----------------------------------------------------------------

   10   -1510.2998801741      6.61E-09 Convergence criterion met
 Total energy in the final basis set = -1510.29988017
 Final energy is   -1510.29988017405
 **  OPTIMIZATION CONVERGED  **

                    Orbital Energies (a.u.)
 --------------------------------------------------------------

 Alpha MOs
 -- Occupied --
-18.939 -18.933 -18.928 -18.928 -18.885 -18.885 -18.876 -18.876
-18.873 -18.872 -10.105 -10.101 -10.096 -10.096 -10.062 -10.058
-10.058 -10.057 -10.056 -10.056 -10.039 -10.038 -10.036 -10.036
-10.036 -10.035 -10.019 -10.019 -10.018 -10.018  -1.015  -1.010
 -1.007  -1.003  -0.968  -0.967  -0.936  -0.936  -0.932  -0.931
 -0.762  -0.761  -0.724  -0.721  -0.709  -0.703  -0.691  -0.652
 -0.647  -0.615  -0.594  -0.577  -0.544  -0.543  -0.535  -0.534
 -0.510  -0.505  -0.478  -0.473  -0.461  -0.458  -0.450  -0.443
 -0.434  -0.430  -0.426  -0.422  -0.409  -0.404  -0.398  -0.392
 -0.382  -0.375  -0.371  -0.362  -0.358  -0.356  -0.353  -0.348
 -0.343  -0.338  -0.330  -0.328  -0.327  -0.322  -0.316  -0.309
 -0.307  -0.304  -0.302  -0.297  -0.286  -0.284  -0.283  -0.275
 -0.269  -0.259  -0.246  -0.241  -0.238  -0.232  -0.230  -0.186
 -0.175  -0.171  -0.161  -0.158  -0.154  -0.149  -0.148  -0.141
 -0.140

          Ground-State Mulliken Net Atomic Charges

     Atom                 Charge (a.u.)
  ----------------------------------------
      1 O                    -0.214283
      2 C                     0.210798
      3 C                    -0.078439
      4 C                    -0.078673
      5 C                     0.219097
      6 O                    -0.168362
      7 C                    -0.061037
      8 C                    -0.057527
      9 O                    -0.174051
     10 C                     0.206777
     11 C                    -0.078876
     12 C                    -0.077000
     13 C                     0.220564
     14 O                    -0.226151
     15 O                    -0.174512
     16 O                    -0.158704
     17 O                    -0.202393
     18 C                    -0.144056
     19 C                     0.025805
     20 C                    -0.143762
     21 C                    -0.144751
     22 C                     0.025629
     23 O                    -0.183779
     24 H                     0.086006
     25 H                     0.084044
     26 H                     0.085065
     27 H                     0.077954
     28 H                     0.072873
     29 H                     0.077917
     30 H                     0.072353
     31 H                     0.090671
     32 O                    -0.217364
     33 C                    -0.150252
     34 C                     0.023602
     35 C                    -0.143810
     36 C                    -0.144087
     37 C                     0.025489
     38 O                    -0.186795
     39 H                     0.084795
     40 H                     0.086587
     41 H                     0.086501
     42 H                     0.090172
     43 H                     0.078233
     44 H                     0.072910
     45 H                     0.078244
     46 H                     0.073261
     47 H                     0.084682
     48 H                     0.081555
     49 H                     0.111192
     50 H                     0.090427
     51 H                     0.121854
     52 H                     0.083159
     53 H                     0.099360
     54 H                     0.083877
     55 H                     0.112180
     56 H                     0.085030
  ----------------------------------------
  Sum of atomic charges =    -0.000000

                    Cartesian Multipole Moments
 -----------------------------------------------------------------
    Charge (ESU x 10^10)
                 0.0000
    Dipole Moment (Debye)
         X       0.0724      Y       0.7304      Z      -2.4364
       Tot       2.5445
    Quadrupole Moments (Debye-Ang)
        XX    -135.9593     XY       6.8677     YY    -156.9936
        XZ      -0.8823     YZ       4.4155     ZZ    -163.0567

 Total job time:  184.39s(wall), 8801.66s(cpu)
        *  Thank you very much for using Q-Chem.  Have a nice day.  *
