 Q-Chem 5.0, Q-Chem, Inc., Pleasanton, CA (2017)
 Q-Chem 5.0.1 for Intel X86 EM64T Linux

User input:
--------------------------------------------------------------
$molecule
0  1
O -3.94934 -3.66094 2.70899
C -3.26408 -4.56952 2.26188
C -3.36658 -6.02376 2.66595
C -2.31831 -6.55279 3.65847
C -1.39277 -5.52616 4.27288
O -0.34162 -5.28806 3.43394
C 0.58639 -4.32911 3.95208
C 1.32969 -4.91103 5.15
O 2.15075 -3.8997 5.75492
C 2.86566 -4.29867 6.83606
C 3.71461 -3.19467 7.42013
C 2.99189 -1.85276 7.60787
C 1.47916 -1.90037 7.52983
O 0.795 -1.34031 6.68554
O -2.24135 -4.26476 1.42131
O 0.85159 -2.70335 8.43207
O 2.72191 -5.38712 7.37986
C -0.51069 -2.91207 8.47545
C 4.25166 -3.42954 8.84664
C 5.50573 -2.5832 9.06597
C 4.90483 -1.1914 9.12836
C 3.41176 -1.5306 9.0525
O 3.31936 -2.78784 9.6835
H 4.5707 -3.07983 6.71738
H 3.3312 -1.09653 6.86524
H 4.46494 -4.49671 9.07203
H 5.90069 -2.84347 10.0743
H 6.31178 -2.71846 8.31308
H 5.15696 -0.74458 10.11563
H 5.2099 -0.5046 8.30927
H 2.79797 -0.71456 9.49388
O -1.63771 -4.90316 5.30148
C -1.93548 -2.98805 0.99968
C -4.66066 -6.29325 3.46747
C -5.02624 -7.77595 3.39791
C -3.96915 -8.3659 4.30306
C -3.25727 -7.08983 4.76143
O -4.28084 -6.12911 4.80842
H -3.42048 -6.61198 1.7228
H -1.69585 -7.38909 3.26816
H -1.68209 -2.34824 1.87205
H -5.52422 -5.68121 3.12537
H -6.01924 -7.90123 3.88629
H -5.065 -8.19911 2.37111
H -4.47667 -8.84787 5.16843
H -3.27651 -9.08858 3.82009
H -2.72205 -7.27898 5.71871
H -2.7951 -2.55057 0.44834
H -1.05865 -3.02957 0.32157
H -0.74538 -3.60903 9.30576
H -0.85813 -3.36248 7.52158
H -1.03966 -1.95142 8.65273
H 0.62159 -5.27793 5.92079
H 1.9485 -5.7711 4.80883
H 0.0583 -3.38672 4.2254
H 1.32913 -4.07639 3.16621
$end

$opt
CONSTRAINT
tors           1           2           3           4    -100.910
tors           3           4           5           6     -84.325
tors           4           5           6           7    -179.639
tors           5           6           7           8     +68.988
tors           6           7           8           9    -173.738
tors           7           8           9          10    -179.965
tors           8           9          10          11    +179.603
tors           9          10          11          12     +46.779
tors          11          12          13          14    -116.438
ENDCONSTRAINT
$end

$rem
JOBTYPE                   OPT
METHOD                    B3LYP
DFT_D                     d3_op
BASIS                     STO-3G
GEOM_OPT_MAX_CYCLES       100
GEOM_OPT_TOL_GRADIENT     300
GEOM_OPT_TOL_DISPLACEMENT 1200
GEOM_OPT_TOL_ENERGY       100
SYMMETRY                  False
THRESH                    12
SCF_CONVERGENCE           8
MAX_SUB_FILE_NUM          128
MEM_STATIC                400
MEM_TOTAL                 4000
$end
--------------------------------------------------------------

   15   -1510.1571086776      5.90E-09 Convergence criterion met
 Total energy in the final basis set = -1510.15710868
   14   -1510.2261501250      8.02E-09 Convergence criterion met
 Total energy in the final basis set = -1510.22615013
   15   -1510.2632689055      1.23E-09 Convergence criterion met
 Total energy in the final basis set = -1510.26326891
   14   -1510.2797146750      9.41E-09 Convergence criterion met
 Total energy in the final basis set = -1510.27971467
   13   -1510.2846022111      7.91E-09 Convergence criterion met
 Total energy in the final basis set = -1510.28460221
    3   -1510.2846022113      4.19E-10 Convergence criterion met
 Total energy in the final basis set = -1510.28460221
   13   -1510.2845398336      8.88E-09 Convergence criterion met
 Total energy in the final basis set = -1510.28453983
   13   -1510.2862930185      8.65E-09 Convergence criterion met
   11   -1510.2880693808      8.66E-09 Convergence criterion met
 Total energy in the final basis set = -1510.28806938
   12   -1510.2881372855      2.88E-09 Convergence criterion met
 Total energy in the final basis set = -1510.28813729
   11   -1510.2882026010      7.54E-09 Convergence criterion met
 Total energy in the final basis set = -1510.28820260
   11   -1510.2882309524      5.50E-09 Convergence criterion met
 Total energy in the final basis set = -1510.28823095
   11   -1510.2882496436      3.91E-09 Convergence criterion met
 Total energy in the final basis set = -1510.28824964
   10   -1510.2882534469      8.43E-09 Convergence criterion met
 Total energy in the final basis set = -1510.28825345

             Standard Nuclear Orientation (Angstroms)
    I     Atom           X                Y                Z
 ----------------------------------------------------------------
    1      O      -3.8690004931     1.5156437806     1.8456080504
    2      C      -4.0254347405     1.3717339052     0.6143137090
    3      C      -4.7243020210     0.1781634389    -0.1299950049
    4      C      -3.6899200071    -0.8649682856    -0.7506144484
    5      C      -2.1967648165    -0.4470565198    -0.5320024335
    6      O      -1.8281362511     0.4611144850    -1.5748026855
    7      C      -0.4161537469     0.8868842246    -1.4251996092
    8      C       0.6180452345    -0.2620264573    -1.7023385049
    9      O       1.9199975135     0.3429499918    -1.3460053857
   10      C       3.0032523559    -0.5705578754    -1.5374882076
   11      C       4.3135416970     0.1923662557    -1.1368790851
   12      C       4.1906680334     0.9726055747     0.2431691284
   13      C       2.7685437059     0.9117989251     0.9143572571
   14      O       2.0021480237     1.8771421656     1.1298334539
   15      O      -3.5680997984     2.3049353521    -0.3705367578
   16      O       2.5046571802    -0.4381195934     1.3064101257
   17      O       2.8800654482    -1.7348895434    -1.9687164660
   18      C       1.1960879215    -0.5345417666     1.9990681768
   19      C       5.4818185091    -0.8255621252    -0.8150289444
   20      C       6.8456411661    -0.0314794902    -0.7752837824
   21      C       6.7208462210     0.7163967590     0.6043641226
   22      C       5.3026832286     0.2198024157     1.0949787806
   23      O       5.2383079578    -1.1751108508     0.6042272646
   24      H       4.5772194864     0.8840539600    -1.9585323104
   25      H       4.4381315428     2.0403640614     0.1096209555
   26      H       5.4672274085    -1.7352568780    -1.4464556569
   27      H       7.6988169918    -0.7282410120    -0.7828413132
   28      H       6.9478931518     0.6608112549    -1.6263961846
   29      H       7.5046700166     0.3955719856     1.3090354456
   30      H       6.7659878009     1.8123556976     0.5010079191
   31      H       5.1438462486     0.2519946863     2.1901060348
   32      O      -1.4376817264    -0.8101030149     0.3950397572
   33      C      -2.8172019208     3.4034480902     0.2798734721
   34      C      -5.4973551981    -0.7509918553     0.8951603309
   35      C      -6.4524519010    -1.7150615912     0.0894717200
   36      C      -5.4184925012    -2.7404461549    -0.5082759597
   37      C      -4.0614224560    -2.1731312229     0.0660194919
   38      O      -4.4358450906    -1.6523403871     1.4003200824
   39      H      -5.3834047874     0.5878852210    -0.9163409164
   40      H      -3.8620468707    -0.9843913900    -1.8351799031
   41      H      -1.9068380888     3.0264451276     0.7898626945
   42      H      -5.9663311232    -0.2025251275     1.7348685059
   43      H      -7.1613116905    -2.2093966418     0.7723500024
   44      H      -7.0236751704    -1.1832388401    -0.6882135156
   45      H      -5.5977815987    -3.7605394107    -0.1333102763
   46      H      -5.4270914945    -2.7619640782    -1.6097168334
   47      H      -3.2354958543    -2.9050486944     0.1564691379
   48      H      -3.4391787262     3.9421702039     1.0234350547
   49      H      -2.5250677172     4.0953413716    -0.5311999916
   50      H       1.2119551164    -1.4978378069     2.5409856158
   51      H       0.3385691336    -0.5338204086     1.2880775556
   52      H       1.0623129332     0.2958787598     2.7203170757
   53      H       0.4020162011    -1.1449642371    -1.0643140203
   54      H       0.5954124122    -0.5790653420    -2.7674754738
   55      H      -0.2259635006     1.2828720365    -0.4031756267
   56      H      -0.2769484194     1.7062740144    -2.1576035600
 ----------------------------------------------------------------

    9   -1510.2882543372      5.62E-09 Convergence criterion met
 Total energy in the final basis set = -1510.28825434
 Final energy is   -1510.28825433722
 **  OPTIMIZATION CONVERGED  **

                    Orbital Energies (a.u.)
 --------------------------------------------------------------

 Alpha MOs
 -- Occupied --
-18.947 -18.938 -18.935 -18.918 -18.890 -18.889 -18.884 -18.881
-18.878 -18.857 -10.111 -10.103 -10.099 -10.089 -10.079 -10.077
-10.064 -10.062 -10.060 -10.056 -10.055 -10.044 -10.041 -10.038
-10.037 -10.031 -10.022 -10.021 -10.018 -10.017  -1.024  -1.017
 -1.011  -0.995  -0.971  -0.966  -0.949  -0.942  -0.937  -0.921
 -0.767  -0.761  -0.731  -0.723  -0.711  -0.704  -0.699  -0.664
 -0.645  -0.621  -0.596  -0.585  -0.550  -0.544  -0.539  -0.534
 -0.515  -0.508  -0.486  -0.470  -0.467  -0.463  -0.458  -0.444
 -0.434  -0.431  -0.426  -0.415  -0.413  -0.402  -0.402  -0.400
 -0.395  -0.385  -0.374  -0.362  -0.361  -0.358  -0.354  -0.351
 -0.346  -0.341  -0.336  -0.332  -0.331  -0.327  -0.321  -0.313
 -0.308  -0.306  -0.304  -0.298  -0.292  -0.286  -0.284  -0.278
 -0.275  -0.263  -0.253  -0.249  -0.238  -0.235  -0.230  -0.191
 -0.181  -0.176  -0.169  -0.159  -0.158  -0.152  -0.145  -0.141
 -0.138

          Ground-State Mulliken Net Atomic Charges

     Atom                 Charge (a.u.)
  ----------------------------------------
      1 O                    -0.206857
      2 C                     0.204525
      3 C                    -0.077535
      4 C                    -0.077789
      5 C                     0.211348
      6 O                    -0.164356
      7 C                    -0.048814
      8 C                    -0.049953
      9 O                    -0.174732
     10 C                     0.217823
     11 C                    -0.078040
     12 C                    -0.079439
     13 C                     0.212012
     14 O                    -0.225894
     15 O                    -0.169013
     16 O                    -0.173431
     17 O                    -0.207390
     18 C                    -0.142004
     19 C                     0.024076
     20 C                    -0.144263
     21 C                    -0.143908
     22 C                     0.026113
     23 O                    -0.185845
     24 H                     0.084068
     25 H                     0.082154
     26 H                     0.089323
     27 H                     0.077802
     28 H                     0.072139
     29 H                     0.077398
     30 H                     0.072895
     31 H                     0.083779
     32 O                    -0.210095
     33 C                    -0.129200
     34 C                     0.025351
     35 C                    -0.144285
     36 C                    -0.143827
     37 C                     0.025311
     38 O                    -0.184970
     39 H                     0.086643
     40 H                     0.087133
     41 H                     0.090229
     42 H                     0.088603
     43 H                     0.079027
     44 H                     0.073417
     45 H                     0.079003
     46 H                     0.073197
     47 H                     0.087073
     48 H                     0.090162
     49 H                     0.090746
     50 H                     0.086303
     51 H                     0.101023
     52 H                     0.085463
     53 H                     0.097116
     54 H                     0.087196
     55 H                     0.099029
     56 H                     0.094159
  ----------------------------------------
  Sum of atomic charges =    -0.000000

                    Cartesian Multipole Moments
 -----------------------------------------------------------------
    Charge (ESU x 10^10)
                 0.0000
    Dipole Moment (Debye)
         X      -0.8640      Y       1.5629      Z      -3.0188
       Tot       3.5075
    Quadrupole Moments (Debye-Ang)
        XX    -139.0496     XY      10.1163     YY    -160.6760
        XZ       5.0392     YZ      -0.0251     ZZ    -162.4601

 Total job time:  56.12s(wall), 2666.00s(cpu)
        *  Thank you very much for using Q-Chem.  Have a nice day.  *
