 Q-Chem 5.0, Q-Chem, Inc., Pleasanton, CA (2017)
 Q-Chem 5.0.1 for Intel X86 EM64T Linux

User input:
--------------------------------------------------------------
$molecule
0  1
O -3.8576085377 1.4371251936 1.9084551293
C -4.0088779197 1.335515225 0.6722409089
C -4.7111896702 0.1714203949 -0.1141138579
C -3.6839962647 -0.8579274734 -0.7686146858
C -2.1871198667 -0.4594989272 -0.5390450346
O -1.8272030135 0.5072567498 -1.530674677
C -0.4147426989 0.9262359019 -1.3690745783
C 0.6194614544 -0.2023930871 -1.7198379907
O 1.9199135054 0.38966472 -1.3386122209
C 3.0102874975 -0.4990286455 -1.5861454554
C 4.3151076683 0.2546493042 -1.149577406
C 4.197296754 0.9575246683 0.2733062362
C 2.7652066664 0.9103798812 0.9265986163
O 1.9861575199 1.8760381586 1.0906414109
O -3.5473152226 2.3020105572 -0.2778641882
O 2.4974052945 -0.429178259 1.3489846255
O 2.8971130661 -1.6401966759 -2.0781956682
C 1.1715172017 -0.514659125 2.0101270001
C 5.4849916232 -0.7771797672 -0.884570862
C 6.8468478457 0.0157864913 -0.7782582308
C 6.7171067265 0.6525020452 0.6555852135
C 5.2881137535 0.136346628 1.0894747109
O 5.2236888214 -1.2217636448 0.5045541695
H 4.5726489419 0.9902636629 -1.9340204713
H 4.4748898756 2.0236234461 0.1965842678
H 5.4804318793 -1.6428156789 -1.5754790118
H 7.7029028101 -0.6747044917 -0.8397631636
H 6.9466187424 0.7729939221 -1.5724243657
H 7.4883589088 0.2638462891 1.3395755758
H 6.7783666111 1.7525284866 0.642212168
H 5.1111406874 0.0960723421 2.1814784278
O -1.4195216876 -0.8785604983 0.3569750948
C -2.7982139691 3.3764999325 0.4138565958
C -5.4947551818 -0.7880681581 0.8751859972
C -6.454600903 -1.7125200902 0.0289038687
C -5.4272265475 -2.7269579767 -0.5981198641
C -4.0677037234 -2.1913958065 0.0003013626
O -4.4427380595 -1.7157851529 1.3510279936
H -5.3662700539 0.6107498344 -0.887642568
H -3.8572593232 -0.9376055102 -1.856692513
H -1.8883039139 2.9815522125 0.9108892042
H -5.962927281 -0.2668098634 1.7325505421
H -7.1753432531 -2.22262724 0.6872831219
H -7.0120205601 -1.1456333175 -0.7337372154
H -5.6173240268 -3.757218589 -0.2578111503
H -5.430924728 -2.7121781268 -1.6997014216
H -3.2471463544 -2.9319562558 0.0665194819
H -3.4219058095 3.8868020488 1.1757549913
H -2.5051198362 4.0978877512 -0.3707347549
H 1.1885251506 -1.4466525778 2.6042787431
H 0.3354275981 -0.5693390087 1.2758107782
H 1.0016137327 0.351352551 2.6799904913
H 0.4119271003 -1.1200718886 -1.1294365262
H 0.5900821842 -0.4593091807 -2.800798499
H -0.2133160657 1.2659801989 -0.3289264573
H -0.2834622387 1.7853723781 -2.0560373423
$end

$rem
JOBTYPE                   OPT
METHOD                    B3LYP
DFT_D                     d3_op
BASIS                     STO-3G
GEOM_OPT_MAX_CYCLES       100
GEOM_OPT_TOL_GRADIENT     300
GEOM_OPT_TOL_DISPLACEMENT 1200
GEOM_OPT_TOL_ENERGY       100
SYMMETRY                  False
THRESH                    12
SCF_CONVERGENCE           8
MAX_SUB_FILE_NUM          128
MEM_STATIC                400
MEM_TOTAL                 4000
$end
--------------------------------------------------------------

   16   -1510.2878408714      5.24E-09 Convergence criterion met
 Total energy in the final basis set = -1510.28784087
   14   -1510.2728406666      4.59E-09 Convergence criterion met
 Total energy in the final basis set = -1510.27284067
   14   -1510.2877380627      8.00E-09 Convergence criterion met
 Total energy in the final basis set = -1510.28773806
   14   -1510.2880944438      4.98E-09 Convergence criterion met
 Total energy in the final basis set = -1510.28809444
   15   -1510.2888955135      2.38E-09 Convergence criterion met
 Total energy in the final basis set = -1510.28889551
   14   -1510.2895489639      4.51E-09 Convergence criterion met
 Total energy in the final basis set = -1510.28954896
   13   -1510.2904612530      5.17E-09 Convergence criterion met
 Total energy in the final basis set = -1510.29046125
   13   -1510.2913095067      9.99E-09 Convergence criterion met
   11   -1510.2998839970      3.99E-09 Convergence criterion met
 Total energy in the final basis set = -1510.29988400
   10   -1510.2998831943      9.31E-09 Convergence criterion met
 Total energy in the final basis set = -1510.29988319
   11   -1510.2998812459      2.33E-09 Convergence criterion met
 Total energy in the final basis set = -1510.29988125
   10   -1510.2998815560      9.82E-09 Convergence criterion met
 Total energy in the final basis set = -1510.29988156
   10   -1510.2998807697      7.76E-09 Convergence criterion met
 Total energy in the final basis set = -1510.29988077
    9   -1510.2998821396      6.11E-09 Convergence criterion met
 Total energy in the final basis set = -1510.29988214

             Standard Nuclear Orientation (Angstroms)
    I     Atom           X                Y                Z
 ----------------------------------------------------------------
    1      O      -2.7927902450     2.0527125007     1.6113442418
    2      C      -3.0526041460     1.5730207043     0.4870136714
    3      C      -4.0147534863     0.3749809878     0.1569410583
    4      C      -3.3407078534    -0.7392680942    -0.7532557397
    5      C      -1.8362808054    -0.4362162169    -1.0629618019
    6      O      -1.6662366136    -0.2375649482    -2.4681683108
    7      C      -0.2568504680     0.1314600331    -2.7554886865
    8      C       0.6846855241    -1.1326266637    -2.8564949768
    9      O       2.0663116349    -0.7147011878    -2.5168962171
   10      C       2.3552688271    -1.0417251918    -1.1474774452
   11      C       3.6977668148    -0.3391668364    -0.7608960672
   12      C       3.4702553940     0.9770330254     0.1112965317
   13      C       1.9459975729     1.2458297875     0.4029815380
   14      O       1.1127755279     1.6565731701    -0.4463340768
   15      O      -2.5191568452     2.0464846434    -0.7499877787
   16      O       1.6532849864     0.9452540312     1.7517380584
   17      O       1.6283332372    -1.7580613556    -0.4256064267
   18      C       0.1947508162     1.0413271492     2.0275491264
   19      C       4.5733800178    -1.2085592415     0.2383132985
   20      C       6.0412915462    -0.6271711902     0.2328395968
   21      C       5.8421043050     0.6983878175     1.0574026314
   22      C       4.3034044174     0.6154243502     1.4092444801
   23      O       4.0586396414    -0.8361711384     1.5747801656
   24      H       4.2428178176    -0.1024638367    -1.6915900843
   25      H       3.8763357013     1.8603766168    -0.4141763302
   26      H       4.4922412517    -2.3020044292     0.0844187630
   27      H       6.7300836581    -1.3195175796     0.7425124525
   28      H       6.4144007333    -0.4440597275    -0.7875199849
   29      H       6.4464706732     0.6948555971     1.9781843373
   30      H       6.0881564190     1.6023983337     0.4776216644
   31      H       3.9932891627     1.1656521394     2.3175889604
   32      O      -0.8897737503    -0.4068445871    -0.2433511952
   33      C      -1.4873743369     3.0894148471    -0.5230314032
   34      C      -4.3663552289    -0.4587081345     1.4564706200
   35      C      -5.6241571044    -1.3607982571     1.1475024397
   36      C      -4.9867376024    -2.4601327826     0.2187569084
   37      C      -3.4739248284    -2.0054433521     0.1978195051
   38      O      -3.2559266266    -1.4361892842     1.5468272741
   39      H      -4.9210950209     0.7794340387    -0.3304255531
   40      H      -3.8791424914    -0.8672411765    -1.7084343822
   41      H      -1.7215694569     3.6813182191     0.3832858718
   42      H      -4.4201230105     0.1523947783     2.3784659183
   43      H      -6.0198876661    -1.7993054466     2.0774140013
   44      H      -6.4303307224    -0.7971545614     0.6513929628
   45      H      -5.0810280550    -3.4659619353     0.6579745695
   46      H      -5.4282831608    -2.4731453901    -0.7906095164
   47      H      -2.7401795926    -2.8093733470    -0.0053627297
   48      H      -1.4976124868     3.7414107887    -1.4155609117
   49      H      -0.4857275143     2.6051084704    -0.4149166839
   50      H       0.0578495149     0.6162810886     3.0378662723
   51      H      -0.3809129293     0.4533262455     1.2741642426
   52      H      -0.1455584495     2.0959458075     2.0237837832
   53      H       0.3538311286    -1.9071912973    -2.1308307314
   54      H       0.7018354949    -1.5509069114    -3.8823655526
   55      H       0.1524898436     0.7905467843    -1.9521957647
   56      H      -0.2813673729     0.6792697134    -3.7174169185
 ----------------------------------------------------------------

    9   -1510.2998817927      7.21E-09 Convergence criterion met
 Total energy in the final basis set = -1510.29988179
 Final energy is   -1510.29988179275
 **  OPTIMIZATION CONVERGED  **

                    Orbital Energies (a.u.)
 --------------------------------------------------------------

 Alpha MOs
 -- Occupied --
-18.939 -18.933 -18.928 -18.928 -18.885 -18.885 -18.876 -18.876
-18.873 -18.872 -10.105 -10.101 -10.096 -10.096 -10.062 -10.058
-10.058 -10.057 -10.056 -10.056 -10.039 -10.038 -10.036 -10.036
-10.036 -10.035 -10.019 -10.019 -10.018 -10.018  -1.015  -1.010
 -1.007  -1.003  -0.968  -0.967  -0.936  -0.936  -0.932  -0.931
 -0.762  -0.761  -0.724  -0.721  -0.709  -0.703  -0.691  -0.652
 -0.647  -0.615  -0.594  -0.577  -0.544  -0.543  -0.535  -0.534
 -0.510  -0.505  -0.478  -0.473  -0.461  -0.458  -0.450  -0.443
 -0.434  -0.430  -0.426  -0.422  -0.409  -0.404  -0.398  -0.392
 -0.382  -0.375  -0.371  -0.362  -0.358  -0.356  -0.353  -0.348
 -0.343  -0.338  -0.330  -0.328  -0.327  -0.322  -0.316  -0.309
 -0.307  -0.304  -0.302  -0.297  -0.286  -0.284  -0.283  -0.275
 -0.269  -0.259  -0.246  -0.241  -0.238  -0.232  -0.230  -0.186
 -0.175  -0.171  -0.161  -0.158  -0.154  -0.149  -0.148  -0.141
 -0.140

          Ground-State Mulliken Net Atomic Charges

     Atom                 Charge (a.u.)
  ----------------------------------------
      1 O                    -0.214297
      2 C                     0.210860
      3 C                    -0.078459
      4 C                    -0.078651
      5 C                     0.219141
      6 O                    -0.168380
      7 C                    -0.061004
      8 C                    -0.057550
      9 O                    -0.174031
     10 C                     0.206736
     11 C                    -0.078875
     12 C                    -0.077021
     13 C                     0.220642
     14 O                    -0.226182
     15 O                    -0.174487
     16 O                    -0.158718
     17 O                    -0.202356
     18 C                    -0.144079
     19 C                     0.025832
     20 C                    -0.143787
     21 C                    -0.144729
     22 C                     0.025603
     23 O                    -0.183788
     24 H                     0.086011
     25 H                     0.084022
     26 H                     0.085014
     27 H                     0.077954
     28 H                     0.072885
     29 H                     0.077922
     30 H                     0.072353
     31 H                     0.090737
     32 O                    -0.217433
     33 C                    -0.150318
     34 C                     0.023589
     35 C                    -0.143783
     36 C                    -0.144106
     37 C                     0.025492
     38 O                    -0.186811
     39 H                     0.084804
     40 H                     0.086580
     41 H                     0.086522
     42 H                     0.090165
     43 H                     0.078232
     44 H                     0.072903
     45 H                     0.078249
     46 H                     0.073265
     47 H                     0.084668
     48 H                     0.081549
     49 H                     0.111245
     50 H                     0.090412
     51 H                     0.121880
     52 H                     0.083170
     53 H                     0.099405
     54 H                     0.083879
     55 H                     0.112107
     56 H                     0.085018
  ----------------------------------------
  Sum of atomic charges =    -0.000000

                    Cartesian Multipole Moments
 -----------------------------------------------------------------
    Charge (ESU x 10^10)
                 0.0000
    Dipole Moment (Debye)
         X       0.0768      Y       0.7084      Z      -2.4375
       Tot       2.5395
    Quadrupole Moments (Debye-Ang)
        XX    -135.9458     XY       6.8578     YY    -156.9319
        XZ      -0.8708     YZ       4.3549     ZZ    -163.1559

 Total job time:  171.72s(wall), 8193.44s(cpu)
        *  Thank you very much for using Q-Chem.  Have a nice day.  *
