 Q-Chem 5.0, Q-Chem, Inc., Pleasanton, CA (2017)
 Q-Chem 5.0.1 for Intel X86 EM64T Linux

User input:
--------------------------------------------------------------
$molecule
0  1
O -3.94934 -3.66094 2.70899
C -3.26408 -4.56952 2.26188
C -3.36658 -6.02376 2.66595
C -2.3167 -6.55348 3.65641
C -1.38946 -5.52741 4.26919
O -0.3591 -5.2629 3.41256
C 0.56591 -4.29813 3.92523
C 1.34156 -4.88591 5.09955
O 2.1607 -3.87147 5.70187
C 2.90305 -4.27513 6.76259
C 3.74835 -3.16736 7.34481
C 3.01105 -1.83854 7.566
C 1.49785 -1.90651 7.51796
O 0.79484 -1.43553 6.63563
O -2.24416 -4.26501 1.41779
O 0.89827 -2.67545 8.46765
O 2.78594 -5.37281 7.29403
C -0.45736 -2.91954 8.53263
C 4.32036 -3.41085 8.75645
C 5.56918 -2.55191 8.95582
C 4.95406 -1.16746 9.04356
C 3.46342 -1.5234 9.00202
O 3.40132 -2.78803 9.62218
H 4.58781 -3.03107 6.62589
H 3.32117 -1.07659 6.81648
H 4.55091 -4.47769 8.96577
H 5.98817 -2.81669 9.95324
H 6.36107 -2.67095 8.18537
H 5.22674 -0.72429 10.02698
H 5.22969 -0.47191 8.22142
H 2.85081 -0.719 9.46569
O -1.59229 -4.96286 5.33983
C -1.94083 -2.98865 0.99326
C -4.66038 -6.29183 3.46807
C -5.02801 -7.77384 3.39789
C -3.97051 -8.36544 4.30105
C -3.25687 -7.09031 4.75961
O -4.27907 -6.12847 4.80849
H -3.42174 -6.61156 1.72261
H -1.69532 -7.39146 3.26828
H -1.68558 -2.34717 1.86386
H -5.52351 -5.6786 3.12699
H -6.02054 -7.8981 3.88748
H -5.0686 -8.19627 2.37085
H -4.47753 -8.84777 5.16653
H -3.27907 -9.08831 3.81666
H -2.72236 -7.28253 5.71662
H -2.8025 -2.55296 0.44371
H -1.06594 -3.03036 0.31265
H -0.66747 -3.57441 9.40283
H -0.79737 -3.43328 7.60838
H -1.01234 -1.96552 8.65901
H 0.66141 -5.27793 5.88175
H 1.96638 -5.73058 4.7319
H 0.02896 -3.36846 4.2237
H 1.28836 -4.02286 3.1281
$end

$opt
CONSTRAINT
tors           1           2           3           4    -101.023
tors           3           4           5           6     -82.692
tors           4           5           6           7    -179.916
tors           5           6           7           8     +68.988
tors           6           7           8           9    -173.738
tors           7           8           9          10    -179.965
tors           8           9          10          11    +179.603
tors           9          10          11          12     +46.779
tors          11          12          13          14    -110.159
ENDCONSTRAINT
$end

$rem
JOBTYPE                   OPT
METHOD                    B3LYP
DFT_D                     d3_op
BASIS                     STO-3G
GEOM_OPT_MAX_CYCLES       100
GEOM_OPT_TOL_GRADIENT     300
GEOM_OPT_TOL_DISPLACEMENT 1200
GEOM_OPT_TOL_ENERGY       100
SYMMETRY                  False
THRESH                    12
SCF_CONVERGENCE           8
MAX_SUB_FILE_NUM          128
MEM_STATIC                400
MEM_TOTAL                 4000
$end
--------------------------------------------------------------

   15   -1510.1563435057      5.97E-09 Convergence criterion met
 Total energy in the final basis set = -1510.15634351
   14   -1510.2253325773      7.97E-09 Convergence criterion met
 Total energy in the final basis set = -1510.22533258
   15   -1510.2623516676      1.17E-09 Convergence criterion met
 Total energy in the final basis set = -1510.26235167
   14   -1510.2786167527      9.43E-09 Convergence criterion met
 Total energy in the final basis set = -1510.27861675
   13   -1510.2837920385      9.25E-09 Convergence criterion met
 Total energy in the final basis set = -1510.28379204
   13   -1510.2849936231      5.75E-09 Convergence criterion met
 Total energy in the final basis set = -1510.28499362
   13   -1510.2851335094      7.71E-09 Convergence criterion met
 Total energy in the final basis set = -1510.28513351
   13   -1510.2862726090      4.78E-09 Convergence criterion met
   11   -1510.2877923723      4.35E-09 Convergence criterion met
 Total energy in the final basis set = -1510.28779237
   11   -1510.2878338032      7.90E-09 Convergence criterion met
 Total energy in the final basis set = -1510.28783380
   10   -1510.2878554401      9.62E-09 Convergence criterion met
 Total energy in the final basis set = -1510.28785544
   10   -1510.2878584679      7.95E-09 Convergence criterion met
 Total energy in the final basis set = -1510.28785847
    9   -1510.2878595074      9.30E-09 Convergence criterion met
 Total energy in the final basis set = -1510.28785951
    9   -1510.2878612921      6.30E-09 Convergence criterion met
 Total energy in the final basis set = -1510.28786129

             Standard Nuclear Orientation (Angstroms)
    I     Atom           X                Y                Z
 ----------------------------------------------------------------
    1      O      -3.8576085377     1.4371251936     1.9084551293
    2      C      -4.0088779197     1.3355152250     0.6722409089
    3      C      -4.7111896702     0.1714203949    -0.1141138579
    4      C      -3.6839962647    -0.8579274734    -0.7686146858
    5      C      -2.1871198667    -0.4594989272    -0.5390450346
    6      O      -1.8272030135     0.5072567498    -1.5306746770
    7      C      -0.4147426989     0.9262359019    -1.3690745783
    8      C       0.6194614544    -0.2023930871    -1.7198379907
    9      O       1.9199135054     0.3896647200    -1.3386122209
   10      C       3.0102874975    -0.4990286455    -1.5861454554
   11      C       4.3151076683     0.2546493042    -1.1495774060
   12      C       4.1972967540     0.9575246683     0.2733062362
   13      C       2.7652066664     0.9103798812     0.9265986163
   14      O       1.9861575199     1.8760381586     1.0906414109
   15      O      -3.5473152226     2.3020105572    -0.2778641882
   16      O       2.4974052945    -0.4291782590     1.3489846255
   17      O       2.8971130661    -1.6401966759    -2.0781956682
   18      C       1.1715172017    -0.5146591250     2.0101270001
   19      C       5.4849916232    -0.7771797672    -0.8845708620
   20      C       6.8468478457     0.0157864913    -0.7782582308
   21      C       6.7171067265     0.6525020452     0.6555852135
   22      C       5.2881137535     0.1363466280     1.0894747109
   23      O       5.2236888214    -1.2217636448     0.5045541695
   24      H       4.5726489419     0.9902636629    -1.9340204713
   25      H       4.4748898756     2.0236234461     0.1965842678
   26      H       5.4804318793    -1.6428156789    -1.5754790118
   27      H       7.7029028101    -0.6747044917    -0.8397631636
   28      H       6.9466187424     0.7729939221    -1.5724243657
   29      H       7.4883589088     0.2638462891     1.3395755758
   30      H       6.7783666111     1.7525284866     0.6422121680
   31      H       5.1111406874     0.0960723421     2.1814784278
   32      O      -1.4195216876    -0.8785604983     0.3569750948
   33      C      -2.7982139691     3.3764999325     0.4138565958
   34      C      -5.4947551818    -0.7880681581     0.8751859972
   35      C      -6.4546009030    -1.7125200902     0.0289038687
   36      C      -5.4272265475    -2.7269579767    -0.5981198641
   37      C      -4.0677037234    -2.1913958065     0.0003013626
   38      O      -4.4427380595    -1.7157851529     1.3510279936
   39      H      -5.3662700539     0.6107498344    -0.8876425680
   40      H      -3.8572593232    -0.9376055102    -1.8566925130
   41      H      -1.8883039139     2.9815522125     0.9108892042
   42      H      -5.9629272810    -0.2668098634     1.7325505421
   43      H      -7.1753432531    -2.2226272400     0.6872831219
   44      H      -7.0120205601    -1.1456333175    -0.7337372154
   45      H      -5.6173240268    -3.7572185890    -0.2578111503
   46      H      -5.4309247280    -2.7121781268    -1.6997014216
   47      H      -3.2471463544    -2.9319562558     0.0665194819
   48      H      -3.4219058095     3.8868020488     1.1757549913
   49      H      -2.5051198362     4.0978877512    -0.3707347549
   50      H       1.1885251506    -1.4466525778     2.6042787431
   51      H       0.3354275981    -0.5693390087     1.2758107782
   52      H       1.0016137327     0.3513525510     2.6799904913
   53      H       0.4119271003    -1.1200718886    -1.1294365262
   54      H       0.5900821842    -0.4593091807    -2.8007984990
   55      H      -0.2133160657     1.2659801989    -0.3289264573
   56      H      -0.2834622387     1.7853723781    -2.0560373423
 ----------------------------------------------------------------

    9   -1510.2878618893      5.86E-09 Convergence criterion met
 Total energy in the final basis set = -1510.28786189
 Final energy is   -1510.28786188929
 **  OPTIMIZATION CONVERGED  **

                    Orbital Energies (a.u.)
 --------------------------------------------------------------

 Alpha MOs
 -- Occupied --
-18.947 -18.939 -18.935 -18.919 -18.890 -18.889 -18.883 -18.881
-18.878 -18.857 -10.111 -10.104 -10.099 -10.089 -10.079 -10.077
-10.064 -10.062 -10.060 -10.056 -10.055 -10.043 -10.041 -10.039
-10.037 -10.031 -10.022 -10.021 -10.018 -10.017  -1.024  -1.017
 -1.011  -0.995  -0.971  -0.966  -0.949  -0.942  -0.937  -0.922
 -0.767  -0.760  -0.731  -0.723  -0.711  -0.704  -0.699  -0.664
 -0.645  -0.621  -0.596  -0.585  -0.550  -0.544  -0.539  -0.534
 -0.515  -0.508  -0.486  -0.470  -0.467  -0.463  -0.458  -0.444
 -0.434  -0.431  -0.427  -0.415  -0.413  -0.402  -0.402  -0.400
 -0.394  -0.385  -0.374  -0.362  -0.362  -0.358  -0.353  -0.351
 -0.345  -0.340  -0.335  -0.332  -0.331  -0.327  -0.322  -0.313
 -0.308  -0.306  -0.304  -0.298  -0.293  -0.286  -0.284  -0.278
 -0.276  -0.263  -0.253  -0.248  -0.238  -0.235  -0.230  -0.192
 -0.181  -0.176  -0.169  -0.159  -0.158  -0.152  -0.146  -0.142
 -0.138

          Ground-State Mulliken Net Atomic Charges

     Atom                 Charge (a.u.)
  ----------------------------------------
      1 O                    -0.207227
      2 C                     0.204447
      3 C                    -0.077547
      4 C                    -0.077796
      5 C                     0.211460
      6 O                    -0.164295
      7 C                    -0.048916
      8 C                    -0.049792
      9 O                    -0.174234
     10 C                     0.217148
     11 C                    -0.077842
     12 C                    -0.079633
     13 C                     0.212199
     14 O                    -0.226330
     15 O                    -0.168596
     16 O                    -0.173112
     17 O                    -0.207378
     18 C                    -0.142371
     19 C                     0.023976
     20 C                    -0.144489
     21 C                    -0.143808
     22 C                     0.026081
     23 O                    -0.186214
     24 H                     0.084310
     25 H                     0.081870
     26 H                     0.089165
     27 H                     0.077731
     28 H                     0.072116
     29 H                     0.077425
     30 H                     0.072858
     31 H                     0.084369
     32 O                    -0.210204
     33 C                    -0.129210
     34 C                     0.025344
     35 C                    -0.144304
     36 C                    -0.143789
     37 C                     0.025249
     38 O                    -0.185119
     39 H                     0.086613
     40 H                     0.087091
     41 H                     0.090190
     42 H                     0.088552
     43 H                     0.078980
     44 H                     0.073369
     45 H                     0.079007
     46 H                     0.073197
     47 H                     0.087301
     48 H                     0.090132
     49 H                     0.090829
     50 H                     0.086287
     51 H                     0.100981
     52 H                     0.085508
     53 H                     0.097118
     54 H                     0.087350
     55 H                     0.099685
     56 H                     0.094268
  ----------------------------------------
  Sum of atomic charges =    -0.000000

                    Cartesian Multipole Moments
 -----------------------------------------------------------------
    Charge (ESU x 10^10)
                 0.0000
    Dipole Moment (Debye)
         X      -0.8698      Y       1.7122      Z      -2.8510
       Tot       3.4375
    Quadrupole Moments (Debye-Ang)
        XX    -139.1468     XY      10.0042     YY    -160.9580
        XZ       5.6865     YZ       0.2945     ZZ    -162.2667

 Total job time:  57.77s(wall), 2747.57s(cpu)
        *  Thank you very much for using Q-Chem.  Have a nice day.  *
