 Q-Chem 5.0, Q-Chem, Inc., Pleasanton, CA (2017)
 Q-Chem 5.0.1 for Intel X86 EM64T Linux

User input:
--------------------------------------------------------------
$molecule
0  1
O -3.9140072872 1.4802372946 1.8720197719
C -4.0603481214 1.354573162 0.6376067999
C -4.7464076634 0.1688341027 -0.130780776
C -3.6986304579 -0.8562055268 -0.7583566164
C -2.2122478932 -0.4180935572 -0.5351820875
O -1.8435799897 0.4698828971 -1.5964537391
C -0.4371753031 0.9119231862 -1.4406405315
C 0.6053386995 -0.2371244626 -1.6810997269
O 1.9046022161 0.375151555 -1.3269313037
C 2.9830802363 -0.5511062663 -1.4926105916
C 4.3009250415 0.2232818964 -1.1437796659
C 4.2219240326 0.9735286229 0.256071928
C 2.8163371936 0.8997721523 0.9574952075
O 2.0698730982 1.8638371942 1.2373120782
O -3.5914042156 2.3005592429 -0.3298859523
O 2.5368672201 -0.464890963 1.2843425261
O 2.8500698688 -1.7302688467 -1.8777796576
C 1.23418602 -0.5761567008 1.9862212322
C 5.4891061341 -0.7881261414 -0.8840233553
C 6.8451933236 0.0200585055 -0.8595210588
C 6.7590503462 0.7171855239 0.549150614
C 5.3558871169 0.1997673554 1.0600534905
O 5.2864746267 -1.1804293553 0.5307907474
H 4.5206722455 0.9315719521 -1.9637521644
H 4.469297172 2.043399491 0.1407187584
H 5.4677399513 -1.6804794465 -1.5394774882
H 7.7052630805 -0.6655090151 -0.9205311093
H 6.9116338696 0.7435334258 -1.6879664095
H 7.5620867113 0.3715057437 1.2195258212
H 6.8007736362 1.8163367364 0.4853299834
H 5.2230665826 0.2001287843 2.159145556
O -1.4585341907 -0.7464748765 0.4089653391
C -2.850594057 3.3914780565 0.3446223318
C -5.5176658245 -0.7815728132 0.8760966723
C -6.4532519333 -1.7478827719 0.0502846885
C -5.4020307652 -2.7569950968 -0.5451015227
C -4.0569890182 -2.1768915627 0.0446386361
O -4.4489786837 -1.6747613046 1.3808603693
H -5.403683923 0.5849740511 -0.9152536469
H -3.8675842778 -0.9679551 -1.8441674271
H -1.9495309799 3.0081195296 0.8662929132
H -6.0012498668 -0.2488780425 1.7177105108
H -7.1656002632 -2.2555792598 0.7195709216
H -7.0199632424 -1.214027854 -0.7292790665
H -5.5720345096 -3.781518055 -0.1779189806
H -5.4008896395 -2.7718005177 -1.6466916665
H -3.2219852418 -2.8985626495 0.1339342652
H -3.4846960418 3.9230954782 1.0830191214
H -2.5441364703 4.0915445542 -0.4540731405
H 1.2350894393 -1.5709322264 2.4681632147
H 0.3693860644 -0.5137272237 1.2873876067
H 1.1262630843 0.2117835309 2.757684429
H 0.3840674532 -1.1075926811 -1.0282359833
H 0.5931108447 -0.5765680458 -2.7395358899
H -0.264380648 1.3306592258 -0.4248246632
H -0.2958176098 1.7163183799 -2.1890366139
$end

$rem
JOBTYPE                   OPT
METHOD                    B3LYP
DFT_D                     d3_op
BASIS                     STO-3G
GEOM_OPT_MAX_CYCLES       100
GEOM_OPT_TOL_GRADIENT     300
GEOM_OPT_TOL_DISPLACEMENT 1200
GEOM_OPT_TOL_ENERGY       100
SYMMETRY                  False
THRESH                    12
SCF_CONVERGENCE           8
MAX_SUB_FILE_NUM          128
MEM_STATIC                400
MEM_TOTAL                 4000
$end
--------------------------------------------------------------

   16   -1510.2881405516      5.40E-09 Convergence criterion met
 Total energy in the final basis set = -1510.28814055
   14   -1510.2663498909      4.32E-09 Convergence criterion met
 Total energy in the final basis set = -1510.26634989
   15   -1510.2886438951      2.45E-09 Convergence criterion met
 Total energy in the final basis set = -1510.28864390
   14   -1510.2891669373      3.87E-09 Convergence criterion met
 Total energy in the final basis set = -1510.28916694
   14   -1510.2899168908      5.56E-09 Convergence criterion met
 Total energy in the final basis set = -1510.28991689
   13   -1510.2907714182      7.55E-09 Convergence criterion met
 Total energy in the final basis set = -1510.29077142
   13   -1510.2913553557      8.14E-09 Convergence criterion met
 Total energy in the final basis set = -1510.29135536
   14   -1510.2922175565      5.11E-09 Convergence criterion met
   11   -1510.2998651111      4.78E-09 Convergence criterion met
 Total energy in the final basis set = -1510.29986511
   12   -1510.2998625067      5.93E-09 Convergence criterion met
 Total energy in the final basis set = -1510.29986251
   11   -1510.2998670964      2.18E-09 Convergence criterion met
 Total energy in the final basis set = -1510.29986710
   11   -1510.2998714984      2.57E-09 Convergence criterion met
 Total energy in the final basis set = -1510.29987150
   11   -1510.2998697126      2.96E-09 Convergence criterion met
 Total energy in the final basis set = -1510.29986971
   10   -1510.2998724531      4.47E-09 Convergence criterion met
 Total energy in the final basis set = -1510.29987245

             Standard Nuclear Orientation (Angstroms)
    I     Atom           X                Y                Z
 ----------------------------------------------------------------
    1      O      -2.7822195811     2.0066694778     1.6652250553
    2      C      -3.0501383054     1.5519605679     0.5324417590
    3      C      -4.0112818946     0.3583429383     0.1836831623
    4      C      -3.3394727903    -0.7356756938    -0.7523753605
    5      C      -1.8390504983    -0.4200835409    -1.0686395956
    6      O      -1.6819877435    -0.1914777668    -2.4707394077
    7      C      -0.2767213819     0.1891738761    -2.7626137029
    8      C       0.6675852491    -1.0692063392    -2.9036522812
    9      O       2.0498809734    -0.6581725041    -2.5582966488
   10      C       2.3456204683    -1.0218851196    -1.1997145743
   11      C       3.6909754889    -0.3307761741    -0.8023749230
   12      C       3.4704948049     0.9710695810     0.0931032244
   13      C       1.9488958609     1.2347022796     0.4026893470
   14      O       1.1087948780     1.6624134564    -0.4313618114
   15      O      -2.5271104763     2.0541034565    -0.6976759106
   16      O       1.6669000814     0.9075932751     1.7476463759
   17      O       1.6218839943    -1.7565888104    -0.4932825944
   18      C       0.2106142476     0.9979282317     2.0368343865
   19      C       4.5671869262    -1.2202982127     0.1787858149
   20      C       6.0380826241    -0.6466318698     0.1736997961
   21      C       5.8492339213     0.6696490461     1.0153765830
   22      C       4.3129919356     0.5874251036     1.3782319947
   23      O       4.0630228240    -0.8654239446     1.5240769454
   24      H       4.2350752321    -0.0787859970    -1.7295739333
   25      H       3.8720860913     1.8630989678    -0.4210337645
   26      H       4.4790478474    -2.3108308139     0.0088733110
   27      H       6.7252060941    -1.3488620061     0.6719840733
   28      H       6.4080026681    -0.4531602497    -0.8459195364
   29      H       6.4609130009     0.6537946547     1.9311869590
   30      H       6.0933864068     1.5795573754     0.4440912844
   31      H       4.0126858389     1.1253280583     2.2971884360
   32      O      -0.8857796099    -0.4039149502    -0.2565863865
   33      C      -1.4944346210     3.0927490852    -0.4551386212
   34      C      -4.3518048007    -0.5020443698     1.4688050433
   35      C      -5.6067577941    -1.4045834882     1.1491510791
   36      C      -4.9683096377    -2.4842783968     0.1983977605
   37      C      -3.4585606966    -2.0199740923     0.1759741913
   38      O      -3.2353465415    -1.4746499417     1.5339725749
   39      H      -4.9217491231     0.7699886006    -0.2898495501
   40      H      -3.8851984606    -0.8488988312    -1.7052498405
   41      H      -1.7221226520     3.6641532071     0.4658874702
   42      H      -4.4035166949     0.0909334330     2.4026752470
   43      H      -5.9967741676    -1.8612881151     2.0726654454
   44      H      -6.4173524699    -0.8359429051     0.6661671252
   45      H      -5.0535398687    -3.4977351616     0.6217247293
   46      H      -5.4159333961    -2.4838547434    -0.8083780236
   47      H      -2.7212426033    -2.8153700568    -0.0468671249
   48      H      -1.5119987057     3.7646438893    -1.3326750024
   49      H      -0.4915772700     2.6071745649    -0.3656889108
   50      H       0.0812140410     0.5518923652     3.0390788985
   51      H      -0.3707166118     0.4258504232     1.2756663498
   52      H      -0.1294337107     2.0524256602     2.0576847827
   53      H       0.3414736795    -1.8651214583    -2.1992955687
   54      H       0.6814553455    -1.4579395177    -3.9411635439
   55      H       0.1386890075     0.8293008504    -1.9472331419
   56      H      -0.3121761807     0.7603023876    -3.7105275258
 ----------------------------------------------------------------

    9   -1510.2998726844      8.61E-09 Convergence criterion met
 Total energy in the final basis set = -1510.29987268
 Final energy is   -1510.29987268444
 **  OPTIMIZATION CONVERGED  **

                    Orbital Energies (a.u.)
 --------------------------------------------------------------

 Alpha MOs
 -- Occupied --
-18.939 -18.933 -18.928 -18.928 -18.885 -18.885 -18.876 -18.876
-18.873 -18.872 -10.105 -10.100 -10.096 -10.096 -10.062 -10.058
-10.058 -10.057 -10.056 -10.056 -10.039 -10.038 -10.036 -10.036
-10.036 -10.035 -10.019 -10.019 -10.018 -10.018  -1.015  -1.010
 -1.007  -1.003  -0.968  -0.967  -0.936  -0.936  -0.932  -0.931
 -0.762  -0.761  -0.724  -0.721  -0.709  -0.703  -0.691  -0.652
 -0.647  -0.615  -0.594  -0.577  -0.544  -0.543  -0.535  -0.534
 -0.510  -0.505  -0.478  -0.473  -0.461  -0.458  -0.450  -0.443
 -0.434  -0.430  -0.426  -0.422  -0.409  -0.404  -0.398  -0.392
 -0.382  -0.375  -0.371  -0.362  -0.358  -0.356  -0.353  -0.348
 -0.343  -0.338  -0.330  -0.328  -0.327  -0.322  -0.316  -0.308
 -0.307  -0.304  -0.302  -0.297  -0.286  -0.284  -0.283  -0.275
 -0.269  -0.259  -0.246  -0.241  -0.238  -0.232  -0.230  -0.186
 -0.175  -0.171  -0.161  -0.158  -0.154  -0.149  -0.148  -0.141
 -0.140

          Ground-State Mulliken Net Atomic Charges

     Atom                 Charge (a.u.)
  ----------------------------------------
      1 O                    -0.214273
      2 C                     0.210815
      3 C                    -0.078423
      4 C                    -0.078685
      5 C                     0.219158
      6 O                    -0.168409
      7 C                    -0.061093
      8 C                    -0.057478
      9 O                    -0.174019
     10 C                     0.206758
     11 C                    -0.078896
     12 C                    -0.076977
     13 C                     0.220614
     14 O                    -0.226099
     15 O                    -0.174487
     16 O                    -0.158716
     17 O                    -0.202424
     18 C                    -0.144037
     19 C                     0.025795
     20 C                    -0.143739
     21 C                    -0.144773
     22 C                     0.025623
     23 O                    -0.183790
     24 H                     0.085981
     25 H                     0.084057
     26 H                     0.085086
     27 H                     0.077955
     28 H                     0.072867
     29 H                     0.077907
     30 H                     0.072346
     31 H                     0.090656
     32 O                    -0.217405
     33 C                    -0.150313
     34 C                     0.023600
     35 C                    -0.143825
     36 C                    -0.144078
     37 C                     0.025491
     38 O                    -0.186822
     39 H                     0.084783
     40 H                     0.086569
     41 H                     0.086521
     42 H                     0.090166
     43 H                     0.078229
     44 H                     0.072908
     45 H                     0.078240
     46 H                     0.073259
     47 H                     0.084732
     48 H                     0.081536
     49 H                     0.111238
     50 H                     0.090440
     51 H                     0.121860
     52 H                     0.083124
     53 H                     0.099264
     54 H                     0.083905
     55 H                     0.112276
     56 H                     0.085002
  ----------------------------------------
  Sum of atomic charges =    -0.000000

                    Cartesian Multipole Moments
 -----------------------------------------------------------------
    Charge (ESU x 10^10)
                 0.0000
    Dipole Moment (Debye)
         X       0.0665      Y       0.7447      Z      -2.4266
       Tot       2.5392
    Quadrupole Moments (Debye-Ang)
        XX    -135.9985     XY       6.8918     YY    -157.0760
        XZ      -0.9382     YZ       4.4190     ZZ    -162.9099

 Total job time:  172.29s(wall), 8223.94s(cpu)
        *  Thank you very much for using Q-Chem.  Have a nice day.  *
