 Q-Chem 5.0, Q-Chem, Inc., Pleasanton, CA (2017)
 Q-Chem 5.0.1 for Intel X86 EM64T Linux

User input:
--------------------------------------------------------------
$molecule
0  1
O -3.94934 -3.66094 2.70899
C -3.26408 -4.56952 2.26188
C -3.36658 -6.02376 2.66595
C -2.31831 -6.55279 3.65847
C -1.39277 -5.52616 4.27288
O -0.32088 -5.31784 3.45246
C 0.60828 -4.36075 3.97197
C 1.31809 -4.92847 5.19671
O 2.13917 -3.91595 5.79965
C 2.82551 -4.3027 6.90351
C 3.70843 -3.2111 7.45984
C 3.00745 -1.86346 7.68522
C 1.4924 -1.89567 7.66809
O 0.77978 -1.30178 6.87184
O -2.24087 -4.26505 1.42184
O 0.89344 -2.71614 8.57405
O 2.66404 -5.38178 7.46084
C -0.4675 -2.92094 8.66044
C 4.29523 -3.46303 8.86398
C 5.56581 -2.63205 9.04343
C 4.98285 -1.23465 9.13856
C 3.48448 -1.55776 9.11574
O 3.4018 -2.8188 9.74003
H 4.54129 -3.10298 6.72862
H 3.32565 -1.10237 6.9383
H 4.50524 -4.53424 9.07289
H 5.99456 -2.90473 10.03455
H 6.34229 -2.76976 8.2605
H 5.27641 -0.79826 10.11902
H 5.26452 -0.54473 8.31374
H 2.89651 -0.73895 9.58625
O -1.7435 -4.7491 5.1558
C -1.93454 -2.9884 1.00041
C -4.65453 -6.30038 3.47762
C -5.0184 -7.78342 3.40052
C -3.94978 -8.38086 4.28899
C -3.24095 -7.10779 4.76015
O -4.26745 -6.14994 4.81964
H -3.42644 -6.61325 1.72384
H -1.68742 -7.3634 3.22868
H -1.68145 -2.34868 1.87294
H -5.52158 -5.687 3.14721
H -6.00494 -7.91094 3.90134
H -5.07223 -8.20146 2.37233
H -4.44705 -8.88226 5.14912
H -3.25427 -9.0884 3.78792
H -2.69547 -7.29977 5.71093
H -2.79382 -2.55072 0.44869
H -1.05742 -3.03006 0.32268
H -0.67603 -3.63448 9.48363
H -0.84972 -3.35053 7.70961
H -0.98608 -1.96252 8.87637
H 0.57296 -5.25895 5.952
H 1.92915 -5.80711 4.89066
H 0.09279 -3.40241 4.21097
H 1.37233 -4.13709 3.19782
$end

$opt
CONSTRAINT
tors           1           2           3           4    -100.910
tors           3           4           5           6     -86.143
tors           4           5           6           7    -179.642
tors           5           6           7           8     +68.988
tors           6           7           8           9    -173.738
tors           7           8           9          10    -179.965
tors           8           9          10          11    +177.850
tors           9          10          11          12     +50.960
tors          11          12          13          14    -117.979
ENDCONSTRAINT
$end

$rem
JOBTYPE                   OPT
METHOD                    B3LYP
DFT_D                     d3_op
BASIS                     STO-3G
GEOM_OPT_MAX_CYCLES       100
GEOM_OPT_TOL_GRADIENT     300
GEOM_OPT_TOL_DISPLACEMENT 1200
GEOM_OPT_TOL_ENERGY       100
SYMMETRY                  False
THRESH                    12
SCF_CONVERGENCE           8
MAX_SUB_FILE_NUM          128
MEM_STATIC                400
MEM_TOTAL                 4000
$end
--------------------------------------------------------------

   15   -1510.1530252210      5.86E-09 Convergence criterion met
 Total energy in the final basis set = -1510.15302522
   14   -1510.2223102610      8.61E-09 Convergence criterion met
 Total energy in the final basis set = -1510.22231026
   15   -1510.2598792520      1.21E-09 Convergence criterion met
 Total energy in the final basis set = -1510.25987925
   14   -1510.2771519554      8.21E-09 Convergence criterion met
 Total energy in the final basis set = -1510.27715196
   14   -1510.2834826192      6.13E-09 Convergence criterion met
 Total energy in the final basis set = -1510.28348262
   14   -1510.2856463667      5.16E-09 Convergence criterion met
 Total energy in the final basis set = -1510.28564637
   13   -1510.2859442701      4.64E-09 Convergence criterion met
 Total energy in the final basis set = -1510.28594427
   12   -1510.2867976381      8.25E-09 Convergence criterion met
   12   -1510.2880500771      3.25E-09 Convergence criterion met
 Total energy in the final basis set = -1510.28805008
   12   -1510.2881082440      3.22E-09 Convergence criterion met
 Total energy in the final basis set = -1510.28810824
   11   -1510.2881451899      6.50E-09 Convergence criterion met
 Total energy in the final basis set = -1510.28814519
   11   -1510.2881607196      3.23E-09 Convergence criterion met
 Total energy in the final basis set = -1510.28816072
   10   -1510.2881636052      9.78E-09 Convergence criterion met
 Total energy in the final basis set = -1510.28816361
   10   -1510.2881648887      5.24E-09 Convergence criterion met
 Total energy in the final basis set = -1510.28816489

             Standard Nuclear Orientation (Angstroms)
    I     Atom           X                Y                Z
 ----------------------------------------------------------------
    1      O      -3.9140072872     1.4802372946     1.8720197719
    2      C      -4.0603481214     1.3545731620     0.6376067999
    3      C      -4.7464076634     0.1688341027    -0.1307807760
    4      C      -3.6986304579    -0.8562055268    -0.7583566164
    5      C      -2.2122478932    -0.4180935572    -0.5351820875
    6      O      -1.8435799897     0.4698828971    -1.5964537391
    7      C      -0.4371753031     0.9119231862    -1.4406405315
    8      C       0.6053386995    -0.2371244626    -1.6810997269
    9      O       1.9046022161     0.3751515550    -1.3269313037
   10      C       2.9830802363    -0.5511062663    -1.4926105916
   11      C       4.3009250415     0.2232818964    -1.1437796659
   12      C       4.2219240326     0.9735286229     0.2560719280
   13      C       2.8163371936     0.8997721523     0.9574952075
   14      O       2.0698730982     1.8638371942     1.2373120782
   15      O      -3.5914042156     2.3005592429    -0.3298859523
   16      O       2.5368672201    -0.4648909630     1.2843425261
   17      O       2.8500698688    -1.7302688467    -1.8777796576
   18      C       1.2341860200    -0.5761567008     1.9862212322
   19      C       5.4891061341    -0.7881261414    -0.8840233553
   20      C       6.8451933236     0.0200585055    -0.8595210588
   21      C       6.7590503462     0.7171855239     0.5491506140
   22      C       5.3558871169     0.1997673554     1.0600534905
   23      O       5.2864746267    -1.1804293553     0.5307907474
   24      H       4.5206722455     0.9315719521    -1.9637521644
   25      H       4.4692971720     2.0433994910     0.1407187584
   26      H       5.4677399513    -1.6804794465    -1.5394774882
   27      H       7.7052630805    -0.6655090151    -0.9205311093
   28      H       6.9116338696     0.7435334258    -1.6879664095
   29      H       7.5620867113     0.3715057437     1.2195258212
   30      H       6.8007736362     1.8163367364     0.4853299834
   31      H       5.2230665826     0.2001287843     2.1591455560
   32      O      -1.4585341907    -0.7464748765     0.4089653391
   33      C      -2.8505940570     3.3914780565     0.3446223318
   34      C      -5.5176658245    -0.7815728132     0.8760966723
   35      C      -6.4532519333    -1.7478827719     0.0502846885
   36      C      -5.4020307652    -2.7569950968    -0.5451015227
   37      C      -4.0569890182    -2.1768915627     0.0446386361
   38      O      -4.4489786837    -1.6747613046     1.3808603693
   39      H      -5.4036839230     0.5849740511    -0.9152536469
   40      H      -3.8675842778    -0.9679551000    -1.8441674271
   41      H      -1.9495309799     3.0081195296     0.8662929132
   42      H      -6.0012498668    -0.2488780425     1.7177105108
   43      H      -7.1656002632    -2.2555792598     0.7195709216
   44      H      -7.0199632424    -1.2140278540    -0.7292790665
   45      H      -5.5720345096    -3.7815180550    -0.1779189806
   46      H      -5.4008896395    -2.7718005177    -1.6466916665
   47      H      -3.2219852418    -2.8985626495     0.1339342652
   48      H      -3.4846960418     3.9230954782     1.0830191214
   49      H      -2.5441364703     4.0915445542    -0.4540731405
   50      H       1.2350894393    -1.5709322264     2.4681632147
   51      H       0.3693860644    -0.5137272237     1.2873876067
   52      H       1.1262630843     0.2117835309     2.7576844290
   53      H       0.3840674532    -1.1075926811    -1.0282359833
   54      H       0.5931108447    -0.5765680458    -2.7395358899
   55      H      -0.2643806480     1.3306592258    -0.4248246632
   56      H      -0.2958176098     1.7163183799    -2.1890366139
 ----------------------------------------------------------------

    9   -1510.2881639974      5.25E-09 Convergence criterion met
 Total energy in the final basis set = -1510.28816400
 Final energy is   -1510.28816399744
 **  OPTIMIZATION CONVERGED  **

                    Orbital Energies (a.u.)
 --------------------------------------------------------------

 Alpha MOs
 -- Occupied --
-18.946 -18.936 -18.935 -18.919 -18.889 -18.889 -18.884 -18.880
-18.878 -18.859 -10.111 -10.103 -10.099 -10.090 -10.079 -10.076
-10.064 -10.062 -10.060 -10.056 -10.056 -10.043 -10.041 -10.040
-10.037 -10.031 -10.022 -10.021 -10.018 -10.017  -1.024  -1.016
 -1.011  -0.996  -0.971  -0.966  -0.948  -0.941  -0.937  -0.923
 -0.767  -0.761  -0.731  -0.723  -0.711  -0.704  -0.699  -0.664
 -0.646  -0.621  -0.597  -0.585  -0.550  -0.544  -0.539  -0.534
 -0.515  -0.508  -0.486  -0.470  -0.467  -0.463  -0.458  -0.444
 -0.434  -0.431  -0.427  -0.415  -0.412  -0.402  -0.402  -0.400
 -0.395  -0.384  -0.374  -0.362  -0.361  -0.358  -0.354  -0.350
 -0.347  -0.342  -0.335  -0.332  -0.331  -0.327  -0.322  -0.313
 -0.308  -0.306  -0.304  -0.298  -0.291  -0.286  -0.284  -0.278
 -0.275  -0.263  -0.254  -0.250  -0.239  -0.235  -0.230  -0.191
 -0.180  -0.176  -0.168  -0.160  -0.157  -0.152  -0.145  -0.142
 -0.139

          Ground-State Mulliken Net Atomic Charges

     Atom                 Charge (a.u.)
  ----------------------------------------
      1 O                    -0.206476
      2 C                     0.204673
      3 C                    -0.077488
      4 C                    -0.077940
      5 C                     0.210742
      6 O                    -0.164548
      7 C                    -0.048572
      8 C                    -0.050326
      9 O                    -0.175926
     10 C                     0.218042
     11 C                    -0.078073
     12 C                    -0.079500
     13 C                     0.211303
     14 O                    -0.223753
     15 O                    -0.169419
     16 O                    -0.173064
     17 O                    -0.207235
     18 C                    -0.140701
     19 C                     0.024197
     20 C                    -0.144417
     21 C                    -0.143720
     22 C                     0.026075
     23 O                    -0.185740
     24 H                     0.084149
     25 H                     0.082385
     26 H                     0.089239
     27 H                     0.077770
     28 H                     0.072176
     29 H                     0.077496
     30 H                     0.073015
     31 H                     0.083722
     32 O                    -0.210435
     33 C                    -0.129290
     34 C                     0.025393
     35 C                    -0.144340
     36 C                    -0.143742
     37 C                     0.025372
     38 O                    -0.184831
     39 H                     0.086613
     40 H                     0.087101
     41 H                     0.090180
     42 H                     0.088578
     43 H                     0.079012
     44 H                     0.073405
     45 H                     0.078997
     46 H                     0.073229
     47 H                     0.086820
     48 H                     0.090155
     49 H                     0.090717
     50 H                     0.086963
     51 H                     0.100419
     52 H                     0.086281
     53 H                     0.096981
     54 H                     0.086630
     55 H                     0.097809
     56 H                     0.093898
  ----------------------------------------
  Sum of atomic charges =    -0.000000

                    Cartesian Multipole Moments
 -----------------------------------------------------------------
    Charge (ESU x 10^10)
                 0.0000
    Dipole Moment (Debye)
         X      -0.8488      Y       1.5858      Z      -3.0657
       Tot       3.5545
    Quadrupole Moments (Debye-Ang)
        XX    -139.2337     XY      10.1132     YY    -160.6421
        XZ       5.0026     YZ      -0.1369     ZZ    -162.2809

 Total job time:  56.50s(wall), 2687.56s(cpu)
        *  Thank you very much for using Q-Chem.  Have a nice day.  *
