 Q-Chem 5.0, Q-Chem, Inc., Pleasanton, CA (2017)
 Q-Chem 5.0.1 for Intel X86 EM64T Linux

User input:
--------------------------------------------------------------
$molecule
0  1
O -3.94934 -3.66094 2.70899
C -3.26408 -4.56952 2.26188
C -3.36658 -6.02376 2.66595
C -2.1637 -6.92746 2.34928
C -0.92277 -6.23941 1.8251
O 0.19181 -6.83364 2.34475
C 1.36007 -6.01069 2.26012
C 1.2541 -5.06882 1.06522
O -0.03631 -4.43831 1.05198
C -0.02285 -3.08226 1.06245
C 0.93914 -2.49564 0.05691
C 0.99124 -0.96109 0.02981
C 0.36806 -0.25768 1.21875
O -0.81666 0.01983 1.33708
O -2.84295 -4.40119 0.97856
O 1.21365 0.13999 2.20903
O -0.77345 -2.48537 1.81217
C 0.82028 0.79915 3.35488
C 2.49534 -2.71177 -0.18983
C 2.88853 -2.31369 -1.63144
C 2.95623 -0.81981 -1.51312
C 2.49705 -0.65549 -0.07676
O 3.10587 -1.72546 0.59473
H 0.48102 -2.85971 -0.88974
H 0.46744 -0.52295 -0.85026
H 2.95559 -3.7121 -0.1576
H 3.91382 -2.67418 -1.88037
H 2.17823 -2.70008 -2.39391
H 4.02227 -0.49985 -1.56091
H 2.36414 -0.25427 -2.26467
H 2.77215 0.36318 0.27592
O -1.04688 -6.35381 0.59434
C -3.20477 -3.35349 0.1511
C -3.47237 -6.16707 4.19594
C -4.15493 -7.48514 4.54677
C -3.06187 -8.46238 4.18903
C -1.94086 -7.49365 3.78753
O -2.14906 -6.37662 4.61185
H -4.30189 -6.39844 2.19224
H -2.43649 -7.79167 1.69383
H -2.93428 -2.37585 0.59923
H -4.00934 -5.32614 4.68702
H -4.30061 -7.50223 5.65083
H -5.13071 -7.65663 4.04329
H -2.77795 -9.01784 5.11107
H -3.30991 -9.18158 3.37894
H -0.97721 -8.02601 3.93166
H -4.3007 -3.37651 -0.02776
H -2.68299 -3.46205 -0.82178
H 1.71191 0.99831 3.98395
H 0.10829 0.17074 3.93162
H 0.34215 1.76759 3.09464
H 2.05514 -4.40908 1.41642
H 1.43029 -5.61314 0.11205
H 2.28127 -6.63005 2.21054
H 1.39319 -5.42034 3.20583
$end

$opt
CONSTRAINT
tors           1           2           3           4    -161.053
tors           3           4           5           6    +142.105
tors           4           5           6           7    -161.053
tors           5           6           7           8     -28.421
tors           6           7           8           9     +47.368
tors           7           8           9          10    +123.158
tors           8           9          10          11     +47.368
tors           9          10          11          12    -180.000
tors          11          12          13          14     -85.263
ENDCONSTRAINT
$end

$rem
JOBTYPE                   OPT
METHOD                    B3LYP
DFT_D                     d3_op
BASIS                     STO-3G
GEOM_OPT_MAX_CYCLES       100
GEOM_OPT_TOL_GRADIENT     300
GEOM_OPT_TOL_DISPLACEMENT 1200
GEOM_OPT_TOL_ENERGY       100
SYMMETRY                  False
THRESH                    12
SCF_CONVERGENCE           8
MAX_SUB_FILE_NUM          128
MEM_STATIC                400
MEM_TOTAL                 4000
$end
--------------------------------------------------------------

   16   -1509.9852837531      6.36E-09 Convergence criterion met
 Total energy in the final basis set = -1509.98528375
   15   -1510.0701750631      7.46E-09 Convergence criterion met
 Total energy in the final basis set = -1510.07017506
   15   -1510.1297074176      4.18E-09 Convergence criterion met
 Total energy in the final basis set = -1510.12970742
   14   -1510.1649025696      4.71E-09 Convergence criterion met
 Total energy in the final basis set = -1510.16490257
   14   -1510.1873756099      7.47E-09 Convergence criterion met
 Total energy in the final basis set = -1510.18737561
   14   -1510.2017991778      7.14E-09 Convergence criterion met
 Total energy in the final basis set = -1510.20179918
   14   -1510.2113322461      5.43E-09 Convergence criterion met
 Total energy in the final basis set = -1510.21133225
   13   -1510.2172714840      5.28E-09 Convergence criterion met
   10   -1510.2338540516      9.40E-09 Convergence criterion met
 Total energy in the final basis set = -1510.23385405
    9   -1510.2338523634      9.38E-09 Convergence criterion met
 Total energy in the final basis set = -1510.23385236
    9   -1510.2338494502      8.84E-09 Convergence criterion met
 Total energy in the final basis set = -1510.23384945
    9   -1510.2338489814      7.44E-09 Convergence criterion met
 Total energy in the final basis set = -1510.23384898
    9   -1510.2338498464      5.70E-09 Convergence criterion met
 Total energy in the final basis set = -1510.23384985
    9   -1510.2338508535      4.77E-09 Convergence criterion met
 Total energy in the final basis set = -1510.23385085

             Standard Nuclear Orientation (Angstroms)
    I     Atom           X                Y                Z
 ----------------------------------------------------------------
    1      O      -2.9057249956    -3.1291606996     0.0749711322
    2      C      -2.8707220907    -1.8905767222     0.2542886546
    3      C      -4.0897701234    -0.9938699946     0.7083030713
    4      C      -3.9090522430     0.5436725849     0.4073011467
    5      C      -2.4393674719     1.0897956018     0.6106860087
    6      O      -2.2002102095     2.0476803516    -0.4336622666
    7      C      -0.8175340920     2.4311540692    -0.7867640843
    8      C       0.4186259328     2.4181395781     0.2103653710
    9      O       0.5320071738     1.1792232553     1.0001400258
   10      C       1.7456974832     0.4206342418     0.9308079241
   11      C       3.2007100106     1.0638839085     1.0626676601
   12      C       4.3181482279    -0.0691965722     0.9386548340
   13      C       3.8259704153    -1.5616446219     1.0740623479
   14      O       3.6696863272    -2.1899976184     2.1436335760
   15      O      -1.7874030380    -1.0633521773    -0.1575218206
   16      O       3.7077928074    -2.1395879650    -0.2356653504
   17      O       1.5994463121    -0.8293001847     0.9440370085
   18      C       3.1917166175    -3.5210464469    -0.1248139829
   19      C       3.6850130770     1.9923548228    -0.1416184466
   20      C       5.1003908347     2.6129471327     0.2159995418
   21      C       6.0657245803     1.4263734089    -0.1469538914
   22      C       5.0131553380     0.2923702299    -0.4408279550
   23      O       3.9673863326     1.0101172891    -1.2085141038
   24      H       3.2514114087     1.5892931872     2.0349797213
   25      H       5.0384611038     0.0758320235     1.7642097207
   26      H       2.9692966209     2.7515116710    -0.4993804435
   27      H       5.2947465772     3.5043049231    -0.4010480359
   28      H       5.1631239863     2.9005708198     1.2778582478
   29      H       6.6554715248     1.6491822882    -1.0508599291
   30      H       6.7538185965     1.1653428458     0.6727480420
   31      H       5.3806178551    -0.5814489650    -1.0113725623
   32      O      -1.7683554131     0.9592164075     1.6535249437
   33      C      -0.6358479446    -1.8616928450    -0.6394724731
   34      C      -5.2137034649    -1.3272449361    -0.3659187317
   35      C      -6.5293998495    -0.4905719295    -0.1025047339
   36      C      -6.1465028322     0.9047256489    -0.7263957696
   37      C      -4.6134309756     0.6720345357    -1.0137617448
   38      O      -4.6116324743    -0.7013993666    -1.5727824141
   39      H      -4.3753383932    -1.2085602561     1.7532564568
   40      H      -4.5171462689     1.1021278246     1.1446160309
   41      H      -0.4629968794    -1.6194063624    -1.7063878684
   42      H      -5.3631538335    -2.4129618531    -0.5260128495
   43      H      -7.3907667601    -0.9473171025    -0.6148784972
   44      H      -6.7573000268    -0.4206601012     0.9734854640
   45      H      -6.6891282869     1.0831651709    -1.6690206663
   46      H      -6.3327399107     1.7485009720    -0.0429477829
   47      H      -4.1280073134     1.3845551703    -1.7075097620
   48      H      -0.8694096043    -2.9395584071    -0.5359021659
   49      H       0.2502060001    -1.5702818151    -0.0264149770
   50      H       3.1712453642    -3.9248929883    -1.1539574065
   51      H       2.1663365951    -3.5339582337     0.2986335309
   52      H       3.8433595810    -4.1544635535     0.5113925666
   53      H       1.2938913859     2.6050277295    -0.4335432745
   54      H       0.3225125522     3.2644807554     0.9265266740
   55      H      -0.8934635613     3.4760359962    -1.1586474961
   56      H      -0.5286189207     1.7916817355    -1.6531307755
 ----------------------------------------------------------------

    9   -1510.2338520372      4.85E-09 Convergence criterion met
 Total energy in the final basis set = -1510.23385204
 Final energy is   -1510.23385203721
 **  OPTIMIZATION CONVERGED  **

                    Orbital Energies (a.u.)
 --------------------------------------------------------------

 Alpha MOs
 -- Occupied --
-18.946 -18.925 -18.919 -18.918 -18.909 -18.896 -18.878 -18.863
-18.860 -18.853 -10.122 -10.096 -10.091 -10.090 -10.089 -10.080
-10.073 -10.063 -10.052 -10.052 -10.052 -10.051 -10.036 -10.031
-10.030 -10.029 -10.026 -10.025 -10.016 -10.014  -1.024  -1.002
 -0.996  -0.992  -0.980  -0.962  -0.952  -0.929  -0.922  -0.921
 -0.768  -0.756  -0.728  -0.725  -0.715  -0.712  -0.693  -0.652
 -0.643  -0.619  -0.604  -0.583  -0.555  -0.544  -0.537  -0.531
 -0.526  -0.505  -0.488  -0.472  -0.466  -0.460  -0.453  -0.444
 -0.435  -0.433  -0.427  -0.418  -0.406  -0.404  -0.402  -0.396
 -0.393  -0.385  -0.377  -0.368  -0.359  -0.358  -0.353  -0.344
 -0.339  -0.335  -0.331  -0.327  -0.326  -0.324  -0.321  -0.314
 -0.309  -0.306  -0.302  -0.298  -0.293  -0.289  -0.287  -0.273
 -0.265  -0.249  -0.242  -0.239  -0.238  -0.227  -0.223  -0.186
 -0.172  -0.164  -0.162  -0.156  -0.151  -0.145  -0.141  -0.137
 -0.130

          Ground-State Mulliken Net Atomic Charges

     Atom                 Charge (a.u.)
  ----------------------------------------
      1 O                    -0.220306
      2 C                     0.215676
      3 C                    -0.075333
      4 C                    -0.079570
      5 C                     0.228199
      6 O                    -0.182915
      7 C                    -0.044638
      8 C                    -0.044130
      9 O                    -0.157269
     10 C                     0.225078
     11 C                    -0.079357
     12 C                    -0.082334
     13 C                     0.216478
     14 O                    -0.223182
     15 O                    -0.169349
     16 O                    -0.176058
     17 O                    -0.180786
     18 C                    -0.128045
     19 C                     0.022467
     20 C                    -0.144853
     21 C                    -0.142438
     22 C                     0.023977
     23 O                    -0.190807
     24 H                     0.088644
     25 H                     0.082578
     26 H                     0.074946
     27 H                     0.078363
     28 H                     0.074492
     29 H                     0.078788
     30 H                     0.075836
     31 H                     0.093744
     32 O                    -0.204855
     33 C                    -0.150545
     34 C                     0.023121
     35 C                    -0.146200
     36 C                    -0.141359
     37 C                     0.022075
     38 O                    -0.194375
     39 H                     0.086275
     40 H                     0.079219
     41 H                     0.076285
     42 H                     0.087455
     43 H                     0.077390
     44 H                     0.073095
     45 H                     0.076162
     46 H                     0.072120
     47 H                     0.089982
     48 H                     0.094107
     49 H                     0.111460
     50 H                     0.086577
     51 H                     0.091658
     52 H                     0.086773
     53 H                     0.089425
     54 H                     0.086558
     55 H                     0.087474
     56 H                     0.082229
  ----------------------------------------
  Sum of atomic charges =     0.000000

                    Cartesian Multipole Moments
 -----------------------------------------------------------------
    Charge (ESU x 10^10)
                 0.0000
    Dipole Moment (Debye)
         X       1.7198      Y       4.4931      Z      -0.6304
       Tot       4.8521
    Quadrupole Moments (Debye-Ang)
        XX    -141.0726     XY       2.7777     YY    -154.7359
        XZ      -3.6541     YZ       3.5311     ZZ    -167.9560

 Total job time:  117.77s(wall), 5613.99s(cpu)
        *  Thank you very much for using Q-Chem.  Have a nice day.  *
