 Q-Chem 5.0, Q-Chem, Inc., Pleasanton, CA (2017)
 Q-Chem 5.0.1 for Intel X86 EM64T Linux

User input:
--------------------------------------------------------------
$molecule
0  1
O -2.9057249956 -3.1291606996 0.0749711322
C -2.8707220907 -1.8905767222 0.2542886546
C -4.0897701234 -0.9938699946 0.7083030713
C -3.909052243 0.5436725849 0.4073011467
C -2.4393674719 1.0897956018 0.6106860087
O -2.2002102095 2.0476803516 -0.4336622666
C -0.817534092 2.4311540692 -0.7867640843
C 0.4186259328 2.4181395781 0.210365371
O 0.5320071738 1.1792232553 1.0001400258
C 1.7456974832 0.4206342418 0.9308079241
C 3.2007100106 1.0638839085 1.0626676601
C 4.3181482279 -0.0691965722 0.938654834
C 3.8259704153 -1.5616446219 1.0740623479
O 3.6696863272 -2.1899976184 2.143633576
O -1.787403038 -1.0633521773 -0.1575218206
O 3.7077928074 -2.139587965 -0.2356653504
O 1.5994463121 -0.8293001847 0.9440370085
C 3.1917166175 -3.5210464469 -0.1248139829
C 3.685013077 1.9923548228 -0.1416184466
C 5.1003908347 2.6129471327 0.2159995418
C 6.0657245803 1.4263734089 -0.1469538914
C 5.013155338 0.2923702299 -0.440827955
O 3.9673863326 1.0101172891 -1.2085141038
H 3.2514114087 1.5892931872 2.0349797213
H 5.0384611038 0.0758320235 1.7642097207
H 2.9692966209 2.751511671 -0.4993804435
H 5.2947465772 3.5043049231 -0.4010480359
H 5.1631239863 2.9005708198 1.2778582478
H 6.6554715248 1.6491822882 -1.0508599291
H 6.7538185965 1.1653428458 0.672748042
H 5.3806178551 -0.581448965 -1.0113725623
O -1.7683554131 0.9592164075 1.6535249437
C -0.6358479446 -1.861692845 -0.6394724731
C -5.2137034649 -1.3272449361 -0.3659187317
C -6.5293998495 -0.4905719295 -0.1025047339
C -6.1465028322 0.9047256489 -0.7263957696
C -4.6134309756 0.6720345357 -1.0137617448
O -4.6116324743 -0.7013993666 -1.5727824141
H -4.3753383932 -1.2085602561 1.7532564568
H -4.5171462689 1.1021278246 1.1446160309
H -0.4629968794 -1.6194063624 -1.7063878684
H -5.3631538335 -2.4129618531 -0.5260128495
H -7.3907667601 -0.9473171025 -0.6148784972
H -6.7573000268 -0.4206601012 0.973485464
H -6.6891282869 1.0831651709 -1.6690206663
H -6.3327399107 1.748500972 -0.0429477829
H -4.1280073134 1.3845551703 -1.707509762
H -0.8694096043 -2.9395584071 -0.5359021659
H 0.2502060001 -1.5702818151 -0.026414977
H 3.1712453642 -3.9248929883 -1.1539574065
H 2.1663365951 -3.5339582337 0.2986335309
H 3.843359581 -4.1544635535 0.5113925666
H 1.2938913859 2.6050277295 -0.4335432745
H 0.3225125522 3.2644807554 0.926526674
H -0.8934635613 3.4760359962 -1.1586474961
H -0.5286189207 1.7916817355 -1.6531307755
$end

$rem
JOBTYPE                   OPT
METHOD                    B3LYP
DFT_D                     d3_op
BASIS                     STO-3G
GEOM_OPT_MAX_CYCLES       100
GEOM_OPT_TOL_GRADIENT     300
GEOM_OPT_TOL_DISPLACEMENT 1200
GEOM_OPT_TOL_ENERGY       100
SYMMETRY                  False
THRESH                    12
SCF_CONVERGENCE           8
MAX_SUB_FILE_NUM          128
MEM_STATIC                400
MEM_TOTAL                 4000
$end
--------------------------------------------------------------

   16   -1510.2336652220      5.62E-09 Convergence criterion met
 Total energy in the final basis set = -1510.23366522
   13   -1510.2388280903      4.74E-09 Convergence criterion met
 Total energy in the final basis set = -1510.23882809
   14   -1510.2436658997      5.78E-09 Convergence criterion met
 Total energy in the final basis set = -1510.24366590
   14   -1510.2421472740      5.75E-09 Convergence criterion met
 Total energy in the final basis set = -1510.24214727
   14   -1510.2479368738      8.76E-09 Convergence criterion met
 Total energy in the final basis set = -1510.24793687
   14   -1510.2521677513      6.69E-09 Convergence criterion met
 Total energy in the final basis set = -1510.25216775
   13   -1510.2553023840      3.94E-09 Convergence criterion met
 Total energy in the final basis set = -1510.25530238
   13   -1510.2585427735      7.43E-09 Convergence criterion met
   12   -1510.2899705796      2.66E-09 Convergence criterion met
 Total energy in the final basis set = -1510.28997058
   11   -1510.2899857365      7.73E-09 Convergence criterion met
 Total energy in the final basis set = -1510.28998574
   11   -1510.2900077088      8.98E-09 Convergence criterion met
 Total energy in the final basis set = -1510.29000771
   12   -1510.2900238597      2.84E-09 Convergence criterion met
 Total energy in the final basis set = -1510.29002386
   12   -1510.2900417601      2.68E-09 Convergence criterion met
 Total energy in the final basis set = -1510.29004176
    9   -1510.2900449941      9.97E-09 Convergence criterion met
 Total energy in the final basis set = -1510.29004499

             Standard Nuclear Orientation (Angstroms)
    I     Atom           X                Y                Z
 ----------------------------------------------------------------
    1      O      -0.6354853194    -0.4011200063    -0.4548718053
    2      C      -1.6492826790    -0.9959078271    -0.0152782212
    3      C      -2.7331047199    -0.3410691699     0.9012616746
    4      C      -2.5517037681     1.2289957659     0.9794966372
    5      C      -1.3537882583     1.8088758309     0.1262681587
    6      O      -1.7657087922     1.8936973620    -1.2446607978
    7      C      -0.8707167457     2.7273553445    -2.0789532247
    8      C       0.6611189743     2.3515434322    -2.1161030128
    9      O       0.8722890925     0.9756595460    -2.6104388001
   10      C       1.5485358414     0.0702076795    -1.7284621558
   11      C       2.0267472501     0.5509014109    -0.3097726555
   12      C       2.5226142300    -0.6606643229     0.5790786251
   13      C       2.5799510671    -2.0466802629    -0.1705650461
   14      O       1.7451986484    -2.9798520507    -0.0694493804
   15      O      -1.9741782221    -2.3443352549    -0.2812527012
   16      O       3.8501466601    -2.1929069239    -0.8126447272
   17      O       1.7339652906    -1.0918682622    -2.1655977108
   18      C       3.8846704736    -3.4692537334    -1.5600302005
   19      C       3.3322918601     1.4646970060    -0.3312965648
   20      C       3.3830785533     2.2245786330     1.0518635400
   21      C       3.7996837183     1.0513035776     2.0156231835
   22      C       3.9641676673    -0.1472654796     0.9948347253
   23      O       4.4533704209     0.5065518963    -0.2402757411
   24      H       1.1910078375     1.0775007421     0.1928106926
   25      H       1.8599800413    -0.7935687773     1.4526164123
   26      H       3.4488054984     2.1027195616    -1.2284865568
   27      H       4.1457087357     3.0197011513     1.0299556131
   28      H       2.4097879213     2.6686240389     1.3163954913
   29      H       4.7547357408     1.2615840637     2.5225104354
   30      H       3.0334776456     0.8382708308     2.7778918901
   31      H       4.6624139708    -0.9453271257     1.3117423959
   32      O      -0.2877615247     2.2788215193     0.5951232616
   33      C      -0.9382650845    -2.9577533357    -1.1572804206
   34      C      -4.1976758718    -0.4584515241     0.2982946142
   35      C      -5.2310632834    -0.1140624074     1.4408455823
   36      C      -5.0514514874     1.4458490180     1.5478388321
   37      C      -3.9643170070     1.7084800559     0.4305191646
   38      O      -4.2850900491     0.7059646611    -0.6114316962
   39      H      -2.6760751620    -0.8070374033     1.9023289263
   40      H      -2.3846990488     1.5544295206     2.0213689343
   41      H      -1.2770547443    -3.9952315341    -1.3286901013
   42      H      -4.3835151920    -1.4026814772    -0.2498021245
   43      H      -6.2528721409    -0.3828949016     1.1290990639
   44      H      -4.9988011186    -0.6363381423     2.3826573118
   45      H      -5.9856267905     1.9775030088     1.3067704501
   46      H      -4.7085382247     1.7677800774     2.5441027995
   47      H      -3.9675870399     2.7279058220    -0.0006619357
   48      H       0.0712188895    -2.9517505372    -0.6695043076
   49      H      -0.8765037936    -2.4212511728    -2.1254481175
   50      H       4.8992503636    -3.5428525924    -1.9927090860
   51      H       3.1310618970    -3.4723988541    -2.3740920683
   52      H       3.6956740474    -4.3389194308    -0.8977562857
   53      H       1.1463077337     3.0430956074    -2.8402507122
   54      H       1.0780463931     2.5334637470    -1.1122244362
   55      H      -0.9319991612     3.7911377724    -1.7538143548
   56      H      -1.2978387436     2.6460546599    -3.0990215975
 ----------------------------------------------------------------

    9   -1510.2900448343      8.06E-09 Convergence criterion met
 Total energy in the final basis set = -1510.29004483
 Final energy is   -1510.29004483426
 **  OPTIMIZATION CONVERGED  **

                    Orbital Energies (a.u.)
 --------------------------------------------------------------

 Alpha MOs
 -- Occupied --
-18.939 -18.933 -18.931 -18.919 -18.889 -18.882 -18.880 -18.870
-18.868 -18.853 -10.105 -10.105 -10.099 -10.090 -10.076 -10.072
-10.062 -10.061 -10.055 -10.053 -10.049 -10.041 -10.037 -10.035
-10.027 -10.022 -10.022 -10.021 -10.015 -10.013  -1.018  -1.008
 -1.002  -0.993  -0.972  -0.964  -0.939  -0.938  -0.930  -0.919
 -0.765  -0.754  -0.727  -0.716  -0.714  -0.702  -0.699  -0.650
 -0.647  -0.611  -0.592  -0.588  -0.547  -0.540  -0.539  -0.533
 -0.514  -0.510  -0.486  -0.475  -0.464  -0.459  -0.447  -0.437
 -0.435  -0.428  -0.421  -0.413  -0.405  -0.404  -0.402  -0.397
 -0.391  -0.389  -0.375  -0.365  -0.363  -0.352  -0.349  -0.345
 -0.337  -0.334  -0.331  -0.325  -0.321  -0.320  -0.316  -0.311
 -0.308  -0.304  -0.300  -0.300  -0.297  -0.284  -0.279  -0.271
 -0.265  -0.253  -0.244  -0.242  -0.236  -0.234  -0.228  -0.183
 -0.179  -0.163  -0.157  -0.156  -0.150  -0.145  -0.145  -0.137
 -0.136

          Ground-State Mulliken Net Atomic Charges

     Atom                 Charge (a.u.)
  ----------------------------------------
      1 O                    -0.215559
      2 C                     0.220097
      3 C                    -0.079027
      4 C                    -0.081090
      5 C                     0.220720
      6 O                    -0.166092
      7 C                    -0.046117
      8 C                    -0.054005
      9 O                    -0.168624
     10 C                     0.228464
     11 C                    -0.092391
     12 C                    -0.079030
     13 C                     0.225675
     14 O                    -0.235560
     15 O                    -0.166803
     16 O                    -0.165907
     17 O                    -0.204791
     18 C                    -0.126844
     19 C                     0.020868
     20 C                    -0.145114
     21 C                    -0.144474
     22 C                     0.026502
     23 O                    -0.186537
     24 H                     0.104928
     25 H                     0.081613
     26 H                     0.077710
     27 H                     0.074995
     28 H                     0.079430
     29 H                     0.076050
     30 H                     0.073403
     31 H                     0.085000
     32 O                    -0.237233
     33 C                    -0.147004
     34 C                     0.025111
     35 C                    -0.143607
     36 C                    -0.144532
     37 C                     0.026731
     38 O                    -0.186335
     39 H                     0.086481
     40 H                     0.082654
     41 H                     0.083264
     42 H                     0.090345
     43 H                     0.078749
     44 H                     0.073883
     45 H                     0.078032
     46 H                     0.073139
     47 H                     0.083318
     48 H                     0.121471
     49 H                     0.087417
     50 H                     0.087680
     51 H                     0.093211
     52 H                     0.085597
     53 H                     0.084242
     54 H                     0.104180
     55 H                     0.081319
     56 H                     0.094396
  ----------------------------------------
  Sum of atomic charges =    -0.000000

                    Cartesian Multipole Moments
 -----------------------------------------------------------------
    Charge (ESU x 10^10)
                -0.0000
    Dipole Moment (Debye)
         X      -1.5658      Y       2.1521      Z       2.3658
       Tot       3.5609
    Quadrupole Moments (Debye-Ang)
        XX    -159.8494     XY      -1.3499     YY    -150.7613
        XZ      -2.9579     YZ      -2.6433     ZZ    -158.3091

 Total job time:  292.79s(wall), 13979.85s(cpu)
        *  Thank you very much for using Q-Chem.  Have a nice day.  *
