 Q-Chem 5.0, Q-Chem, Inc., Pleasanton, CA (2017)
 Q-Chem 5.0.1 for Intel X86 EM64T Linux

User input:
--------------------------------------------------------------
$molecule
0  1
O -3.94934 -3.66094 2.70899
C -3.26408 -4.56952 2.26188
C -3.36658 -6.02376 2.66595
C -2.05424 -6.81773 2.77194
C -0.77335 -6.02476 2.63554
O -0.85413 -5.1953 1.55346
C -0.91265 -5.89857 0.30797
C 0.49548 -6.23016 -0.17509
O 0.44315 -7.28424 -1.14929
C 0.61375 -6.89655 -2.4376
C -0.51333 -6.02893 -2.94512
C -0.08173 -4.88529 -3.87469
C 1.32127 -4.98598 -4.43876
O 2.2847 -4.33382 -4.0632
O -2.97861 -4.35725 0.95167
O 1.54661 -5.95359 -5.37141
O 1.34231 -7.53406 -3.18149
C 2.76853 -6.20676 -5.95932
C -1.4748 -6.78207 -3.91
C -2.85288 -6.11284 -3.90641
C -2.52441 -4.79594 -4.58591
C -1.081 -5.07335 -5.03009
O -1.03714 -6.46844 -5.20878
H -1.18229 -5.68287 -2.19777
H -0.14745 -3.90709 -3.34863
H -1.57495 -7.86505 -3.67807
H -3.49436 -6.71768 -4.58759
H -3.36238 -6.02132 -2.92281
H -3.21176 -4.66776 -5.45086
H -2.56152 -3.90119 -3.92687
H -0.80958 -4.45802 -5.91624
O 0.01059 -5.81083 3.54849
C -3.03407 -3.15313 0.25953
C -3.89789 -6.17619 4.10911
C -4.50814 -7.56429 4.30026
C -3.25963 -8.41513 4.33644
C -2.18261 -7.33096 4.22473
O -2.7395 -6.23285 4.90132
H -4.09451 -6.49213 1.96589
H -2.01415 -7.70763 2.11043
H -3.32983 -2.29379 0.89762
H -4.64509 -5.40344 4.39284
H -4.98189 -7.58985 5.30781
H -5.25891 -7.85143 3.53288
H -3.1983 -8.90551 5.33377
H -3.1807 -9.18097 3.53494
H -1.22261 -7.72007 4.63062
H -3.75954 -3.24622 -0.57439
H -2.03413 -2.92619 -0.16404
H 2.65913 -7.04432 -6.67827
H 3.51308 -6.49394 -5.18638
H 3.12252 -5.30772 -6.50758
H 1.02464 -5.31091 -0.51885
H 1.0809 -6.64352 0.67296
H -1.34793 -5.17941 -0.37038
H -1.56753 -6.78821 0.30324
$end

$opt
CONSTRAINT
tors           1           2           3           4    -142.105
tors           3           4           5           6     -47.368
tors           4           5           6           7     -66.316
tors           5           6           7           8     -85.263
tors           6           7           8           9    +161.053
tors           7           8           9          10    +104.211
tors           8           9          10          11     -66.316
tors           9          10          11          12    +142.105
tors          11          12          13          14    -104.211
ENDCONSTRAINT
$end

$rem
JOBTYPE                   OPT
METHOD                    B3LYP
DFT_D                     d3_op
BASIS                     STO-3G
GEOM_OPT_MAX_CYCLES       100
GEOM_OPT_TOL_GRADIENT     300
GEOM_OPT_TOL_DISPLACEMENT 1200
GEOM_OPT_TOL_ENERGY       100
SYMMETRY                  False
THRESH                    12
SCF_CONVERGENCE           8
MAX_SUB_FILE_NUM          128
MEM_STATIC                400
MEM_TOTAL                 4000
$end
--------------------------------------------------------------

   15   -1510.0741667553      7.95E-09 Convergence criterion met
 Total energy in the final basis set = -1510.07416676
   14   -1510.1521976816      5.75E-09 Convergence criterion met
 Total energy in the final basis set = -1510.15219768
   13   -1510.1931686364      8.38E-09 Convergence criterion met
 Total energy in the final basis set = -1510.19316864
   15   -1510.2147331020      2.27E-09 Convergence criterion met
 Total energy in the final basis set = -1510.21473310
   14   -1510.2251464854      3.05E-09 Convergence criterion met
 Total energy in the final basis set = -1510.22514649
   13   -1510.2300192349      9.11E-09 Convergence criterion met
 Total energy in the final basis set = -1510.23001923
   12   -1510.2324987205      9.99E-09 Convergence criterion met
 Total energy in the final basis set = -1510.23249872
   13   -1510.2334423772      2.85E-09 Convergence criterion met
   11   -1510.2342504067      6.49E-09 Convergence criterion met
 Total energy in the final basis set = -1510.23425041
   11   -1510.2342595720      3.97E-09 Convergence criterion met
 Total energy in the final basis set = -1510.23425957
   11   -1510.2342628740      2.63E-09 Convergence criterion met
 Total energy in the final basis set = -1510.23426287
   10   -1510.2342653528      7.89E-09 Convergence criterion met
 Total energy in the final basis set = -1510.23426535
    9   -1510.2342673512      5.01E-09 Convergence criterion met
 Total energy in the final basis set = -1510.23426735
    9   -1510.2342688854      6.67E-09 Convergence criterion met
 Total energy in the final basis set = -1510.23426889

             Standard Nuclear Orientation (Angstroms)
    I     Atom           X                Y                Z
 ----------------------------------------------------------------
    1      O       4.3670483550    -2.5385256247     1.3268067138
    2      C       3.6452970676    -1.7100732132     0.7257653379
    3      C       4.1563551093    -0.6831752465    -0.3482538780
    4      C       3.5882726636     0.8013537542    -0.4524471668
    5      C       2.7029907639     1.4044100097     0.7265972782
    6      O       1.6214325538     0.6070997579     1.2635492732
    7      C       0.5617808615     0.4114275965     0.2516809431
    8      C      -0.4465245800     1.6363895445     0.2605142682
    9      O      -1.2359191187     1.7175903034    -0.9929954294
   10      C      -2.6031592848     1.2554669736    -0.8135841590
   11      C      -2.7650763232    -0.2785295805    -0.4897421527
   12      C      -3.9056918671    -0.6399127250     0.5559382402
   13      C      -4.7783331416     0.5854678943     1.0102871584
   14      O      -4.6983839629     1.1808522218     2.1081488613
   15      O       2.2184432790    -1.7764699537     0.7045723332
   16      O      -5.7583776293     0.8661828628     0.0112748291
   17      O      -3.5394701864     2.0273117455    -1.1084619978
   18      C      -6.5516728742     2.0550837591     0.3975107646
   19      C      -3.2431500858    -1.1142364945    -1.7620143045
   20      C      -2.8510387155    -2.6230688462    -1.5031649132
   21      C      -3.9168692484    -3.0254453647    -0.4168415732
   22      C      -4.7496359757    -1.6871699318    -0.2897699713
   23      O      -4.7159414970    -1.1204604556    -1.6576268662
   24      H      -1.7975255185    -0.6660696890    -0.1361375891
   25      H      -3.4706785781    -1.0919120793     1.4648936731
   26      H      -2.9228985069    -0.6998989865    -2.7378258022
   27      H      -2.9719727498    -3.2136078958    -2.4255912347
   28      H      -1.8140823875    -2.7325114666    -1.1471746385
   29      H      -4.5600493289    -3.8486105278    -0.7659533430
   30      H      -3.4572492727    -3.3176486851     0.5410166507
   31      H      -5.7955670663    -1.8130858219     0.0497676178
   32      O       3.0069106754     2.4681518961     1.3093512215
   33      C       1.7276603851    -2.8032030419     1.6520333145
   34      C       5.7130725843    -0.4073606502    -0.1882489589
   35      C       6.3011982855    -0.0764685565    -1.6133953509
   36      C       5.6946183474     1.3562919256    -1.8552404686
   37      C       4.9518600050     1.6146661207    -0.4853485749
   38      O       5.7755330609     0.8939017739     0.5135524631
   39      H       3.9653468776    -1.1815411598    -1.3187710388
   40      H       3.0274736832     0.9148727732    -1.3986715356
   41      H       2.5857148522    -3.3856141470     2.0437464637
   42      H       6.2393357519    -1.1943110932     0.3871722312
   43      H       7.4018773931    -0.0468071224    -1.5759747968
   44      H       5.9921672574    -0.8084748726    -2.3767310605
   45      H       6.4824310946     2.1093521136    -2.0141725400
   46      H       5.0021213792     1.3857737412    -2.7118017153
   47      H       4.8305614684     2.6750758979    -0.1909490466
   48      H       1.0256655052    -3.4681513500     1.1125526574
   49      H       1.1957959630    -2.3046077422     2.4869140817
   50      H      -7.3363434159     2.1593781111    -0.3739624253
   51      H      -5.9222512051     2.9681450594     0.4104471135
   52      H      -7.0196548113     1.9297545914     1.3953352082
   53      H      -1.0847997381     1.5900202311     1.1668659510
   54      H       0.1482981723     2.5743098714     0.3095168996
   55      H       0.0387840647    -0.5225977426     0.5368773906
   56      H       0.9641225212     0.2773042452    -0.7746741262
 ----------------------------------------------------------------

    9   -1510.2342697401      3.19E-09 Convergence criterion met
 Total energy in the final basis set = -1510.23426974
 Final energy is   -1510.23426974005
 **  OPTIMIZATION CONVERGED  **

                    Orbital Energies (a.u.)
 --------------------------------------------------------------

 Alpha MOs
 -- Occupied --
-18.942 -18.934 -18.923 -18.915 -18.902 -18.900 -18.896 -18.889
-18.883 -18.870 -10.110 -10.110 -10.109 -10.097 -10.079 -10.076
-10.069 -10.066 -10.065 -10.060 -10.060 -10.059 -10.046 -10.044
-10.044 -10.042 -10.028 -10.026 -10.023 -10.022  -1.021  -1.013
 -1.011  -1.005  -0.976  -0.973  -0.948  -0.943  -0.938  -0.933
 -0.769  -0.766  -0.728  -0.725  -0.713  -0.709  -0.706  -0.669
 -0.658  -0.614  -0.606  -0.595  -0.553  -0.549  -0.544  -0.542
 -0.519  -0.515  -0.489  -0.479  -0.471  -0.464  -0.460  -0.449
 -0.441  -0.433  -0.429  -0.419  -0.418  -0.415  -0.409  -0.407
 -0.401  -0.393  -0.382  -0.372  -0.369  -0.361  -0.355  -0.350
 -0.348  -0.345  -0.339  -0.338  -0.333  -0.331  -0.328  -0.318
 -0.316  -0.314  -0.312  -0.305  -0.301  -0.292  -0.287  -0.283
 -0.277  -0.257  -0.251  -0.250  -0.241  -0.239  -0.236  -0.192
 -0.175  -0.175  -0.170  -0.162  -0.159  -0.151  -0.150  -0.148
 -0.147

          Ground-State Mulliken Net Atomic Charges

     Atom                 Charge (a.u.)
  ----------------------------------------
      1 O                    -0.213184
      2 C                     0.212062
      3 C                    -0.080413
      4 C                    -0.082599
      5 C                     0.213999
      6 O                    -0.178914
      7 C                    -0.043948
      8 C                    -0.053908
      9 O                    -0.189706
     10 C                     0.212934
     11 C                    -0.085090
     12 C                    -0.080351
     13 C                     0.206131
     14 O                    -0.217916
     15 O                    -0.170219
     16 O                    -0.158862
     17 O                    -0.177374
     18 C                    -0.126198
     19 C                     0.026833
     20 C                    -0.143102
     21 C                    -0.144912
     22 C                     0.027718
     23 O                    -0.180714
     24 H                     0.076252
     25 H                     0.082751
     26 H                     0.085486
     27 H                     0.079347
     28 H                     0.071398
     29 H                     0.079362
     30 H                     0.073001
     31 H                     0.087151
     32 O                    -0.181391
     33 C                    -0.136397
     34 C                     0.023314
     35 C                    -0.143224
     36 C                    -0.145462
     37 C                     0.023548
     38 O                    -0.189265
     39 H                     0.083617
     40 H                     0.078892
     41 H                     0.104753
     42 H                     0.092183
     43 H                     0.079320
     44 H                     0.072322
     45 H                     0.079520
     46 H                     0.072159
     47 H                     0.093007
     48 H                     0.083026
     49 H                     0.088175
     50 H                     0.092100
     51 H                     0.092219
     52 H                     0.087824
     53 H                     0.087130
     54 H                     0.090508
     55 H                     0.082976
     56 H                     0.082135
  ----------------------------------------
  Sum of atomic charges =     0.000000

                    Cartesian Multipole Moments
 -----------------------------------------------------------------
    Charge (ESU x 10^10)
                 0.0000
    Dipole Moment (Debye)
         X      -0.2416      Y      -3.3288      Z      -2.1320
       Tot       3.9604
    Quadrupole Moments (Debye-Ang)
        XX    -169.9441     XY       4.2730     YY    -161.1902
        XZ     -18.4088     YZ      -2.6553     ZZ    -166.4125

 Total job time:  58.29s(wall), 2775.08s(cpu)
        *  Thank you very much for using Q-Chem.  Have a nice day.  *
