 Q-Chem 5.0, Q-Chem, Inc., Pleasanton, CA (2017)
 Q-Chem 5.0.1 for Intel X86 EM64T Linux

User input:
--------------------------------------------------------------
$molecule
0  1
O 4.367048355 -2.5385256247 1.3268067138
C 3.6452970676 -1.7100732132 0.7257653379
C 4.1563551093 -0.6831752465 -0.348253878
C 3.5882726636 0.8013537542 -0.4524471668
C 2.7029907639 1.4044100097 0.7265972782
O 1.6214325538 0.6070997579 1.2635492732
C 0.5617808615 0.4114275965 0.2516809431
C -0.44652458 1.6363895445 0.2605142682
O -1.2359191187 1.7175903034 -0.9929954294
C -2.6031592848 1.2554669736 -0.813584159
C -2.7650763232 -0.2785295805 -0.4897421527
C -3.9056918671 -0.639912725 0.5559382402
C -4.7783331416 0.5854678943 1.0102871584
O -4.6983839629 1.1808522218 2.1081488613
O 2.218443279 -1.7764699537 0.7045723332
O -5.7583776293 0.8661828628 0.0112748291
O -3.5394701864 2.0273117455 -1.1084619978
C -6.5516728742 2.0550837591 0.3975107646
C -3.2431500858 -1.1142364945 -1.7620143045
C -2.8510387155 -2.6230688462 -1.5031649132
C -3.9168692484 -3.0254453647 -0.4168415732
C -4.7496359757 -1.6871699318 -0.2897699713
O -4.715941497 -1.1204604556 -1.6576268662
H -1.7975255185 -0.666069689 -0.1361375891
H -3.4706785781 -1.0919120793 1.4648936731
H -2.9228985069 -0.6998989865 -2.7378258022
H -2.9719727498 -3.2136078958 -2.4255912347
H -1.8140823875 -2.7325114666 -1.1471746385
H -4.5600493289 -3.8486105278 -0.765953343
H -3.4572492727 -3.3176486851 0.5410166507
H -5.7955670663 -1.8130858219 0.0497676178
O 3.0069106754 2.4681518961 1.3093512215
C 1.7276603851 -2.8032030419 1.6520333145
C 5.7130725843 -0.4073606502 -0.1882489589
C 6.3011982855 -0.0764685565 -1.6133953509
C 5.6946183474 1.3562919256 -1.8552404686
C 4.951860005 1.6146661207 -0.4853485749
O 5.7755330609 0.8939017739 0.5135524631
H 3.9653468776 -1.1815411598 -1.3187710388
H 3.0274736832 0.9148727732 -1.3986715356
H 2.5857148522 -3.385614147 2.0437464637
H 6.2393357519 -1.1943110932 0.3871722312
H 7.4018773931 -0.0468071224 -1.5759747968
H 5.9921672574 -0.8084748726 -2.3767310605
H 6.4824310946 2.1093521136 -2.01417254
H 5.0021213792 1.3857737412 -2.7118017153
H 4.8305614684 2.6750758979 -0.1909490466
H 1.0256655052 -3.46815135 1.1125526574
H 1.195795963 -2.3046077422 2.4869140817
H -7.3363434159 2.1593781111 -0.3739624253
H -5.9222512051 2.9681450594 0.4104471135
H -7.0196548113 1.9297545914 1.3953352082
H -1.0847997381 1.5900202311 1.166865951
H 0.1482981723 2.5743098714 0.3095168996
H 0.0387840647 -0.5225977426 0.5368773906
H 0.9641225212 0.2773042452 -0.7746741262
$end

$rem
JOBTYPE                   OPT
METHOD                    B3LYP
DFT_D                     d3_op
BASIS                     STO-3G
GEOM_OPT_MAX_CYCLES       100
GEOM_OPT_TOL_GRADIENT     300
GEOM_OPT_TOL_DISPLACEMENT 1200
GEOM_OPT_TOL_ENERGY       100
SYMMETRY                  False
THRESH                    12
SCF_CONVERGENCE           8
MAX_SUB_FILE_NUM          128
MEM_STATIC                400
MEM_TOTAL                 4000
$end
--------------------------------------------------------------

   16   -1510.2342742208      2.60E-09 Convergence criterion met
 Total energy in the final basis set = -1510.23427422
   14   -1510.2383362101      2.52E-09 Convergence criterion met
 Total energy in the final basis set = -1510.23833621
   15   -1510.2418843251      4.67E-09 Convergence criterion met
 Total energy in the final basis set = -1510.24188433
   14   -1510.2450488610      4.54E-09 Convergence criterion met
 Total energy in the final basis set = -1510.24504886
   14   -1510.2480541590      8.27E-09 Convergence criterion met
 Total energy in the final basis set = -1510.24805416
   14   -1510.2508897443      8.76E-09 Convergence criterion met
 Total energy in the final basis set = -1510.25088974
   13   -1510.2530704577      7.63E-09 Convergence criterion met
 Total energy in the final basis set = -1510.25307046
   13   -1510.2551084639      6.36E-09 Convergence criterion met
   12   -1510.2783938724      9.75E-09 Convergence criterion met
 Total energy in the final basis set = -1510.27839387
   12   -1510.2783605110      6.44E-09 Convergence criterion met
 Total energy in the final basis set = -1510.27836051
   12   -1510.2784547348      3.57E-09 Convergence criterion met
 Total energy in the final basis set = -1510.27845473
   11   -1510.2784508766      2.76E-09 Convergence criterion met
 Total energy in the final basis set = -1510.27845088
   10   -1510.2784588331      8.50E-09 Convergence criterion met
 Total energy in the final basis set = -1510.27845883
    9   -1510.2784607489      4.04E-09 Convergence criterion met
 Total energy in the final basis set = -1510.27846075

             Standard Nuclear Orientation (Angstroms)
    I     Atom           X                Y                Z
 ----------------------------------------------------------------
    1      O       3.2089472233    -2.6065488800    -1.1605583290
    2      C       2.2632185776    -2.0215785722    -0.5962679025
    3      C       1.6858580526    -0.5969706580    -0.8438972905
    4      C       2.2749721324     0.5152556217     0.1321974063
    5      C       3.3653072998     0.0635307025     1.1772155101
    6      O       2.9203768188    -0.1715223449     2.5427805584
    7      C       1.5747389118    -0.7779182112     2.6575446416
    8      C       0.3911953614     0.2279915292     2.9787322024
    9      O       0.2118256148     1.2931632676     1.9651057500
   10      C      -0.8625665456     1.2103868418     1.0224816753
   11      C      -1.9533856691     0.0727823571     1.0596244857
   12      C      -2.9743930149     0.2680212631    -0.1464379082
   13      C      -2.8387670150     1.6152200120    -0.9611655029
   14      O      -3.4821626764     2.6641315706    -0.7400249526
   15      O       1.4717103960    -2.6348586397     0.4543688325
   16      O      -2.0420078379     1.3915284689    -2.1412853420
   17      O      -0.8647869456     2.1299774174     0.1658094512
   18      C      -1.9691504920     2.6462241499    -2.9235630363
   19      C      -1.3943631305    -1.3771931579     0.7149439785
   20      C      -2.5396542133    -2.4384848460     0.9494969575
   21      C      -3.4144025988    -2.2464455319    -0.3439351017
   22      C      -2.6792403699    -1.0265396174    -1.0186785539
   23      O      -1.2488822542    -1.3204518674    -0.7539189551
   24      H      -2.4728317835     0.0928810462     2.0353473898
   25      H      -4.0073038638     0.2471846089     0.2446960808
   26      H      -0.4230859438    -1.6510245419     1.1604373782
   27      H      -2.1120302093    -3.4519501732     1.0044517933
   28      H      -3.1030235056    -2.2428417736     1.8761609490
   29      H      -3.3663408696    -3.1328313009    -0.9963833043
   30      H      -4.4701774857    -2.0261138782    -0.1198247581
   31      H      -2.8525160757    -0.8960040189    -2.1036560605
   32      O       4.5983799574     0.0478971360     0.9786372262
   33      C       1.9954217098    -3.9739554443     0.8024058448
   34      C       2.1046168430    -0.0151134267    -2.2585164364
   35      C       1.1168125798     1.1732646593    -2.5783622935
   36      C       1.6603792399     2.2831013651    -1.6042160011
   37      C       2.8775997659     1.5298662686    -0.9296797556
   38      O       3.3978761683     0.6549396796    -2.0029494354
   39      H       0.5788361959    -0.6689578016    -0.7746265043
   40      H       1.4744179554     0.9925432165     0.7247848745
   41      H       2.8332822783    -4.2207404323     0.1192111198
   42      H       2.2137453579    -0.7799349211    -3.0516355853
   43      H       1.2101664007     1.4771806021    -3.6329192291
   44      H       0.0620476084     0.9185629167    -2.3681101000
   45      H       2.0077589472     3.1741989883    -2.1500984323
   46      H       0.8953057955     2.5789121763    -0.8636183816
   47      H       3.6841181724     2.1773377143    -0.5351266834
   48      H       1.1806628577    -4.7158774208     0.6936996610
   49      H       2.3512070762    -3.9666606023     1.8516441661
   50      H      -1.4705735822     2.3881813502    -3.8754751871
   51      H      -1.3721560435     3.4141805026    -2.3906709619
   52      H      -2.9782298573     3.0584614165    -3.1257706698
   53      H      -0.5372991422    -0.3558299710     3.1421209498
   54      H       0.6311089651     0.7704580525     3.9179634602
   55      H       1.6353621539    -1.4364603105     3.5513314714
   56      H       1.3609861538    -1.4321055441     1.7765892296
 ----------------------------------------------------------------

    9   -1510.2784628759      4.55E-09 Convergence criterion met
 Total energy in the final basis set = -1510.27846288
 Final energy is   -1510.27846287586
 **  OPTIMIZATION CONVERGED  **

                    Orbital Energies (a.u.)
 --------------------------------------------------------------

 Alpha MOs
 -- Occupied --
-18.970 -18.946 -18.928 -18.915 -18.914 -18.913 -18.893 -18.874
-18.872 -18.864 -10.134 -10.107 -10.100 -10.096 -10.089 -10.080
-10.075 -10.068 -10.066 -10.064 -10.058 -10.048 -10.045 -10.043
-10.038 -10.035 -10.024 -10.014  -9.997  -9.996  -1.040  -1.021
 -1.005  -0.994  -0.992  -0.966  -0.956  -0.947  -0.930  -0.928
 -0.780  -0.751  -0.738  -0.725  -0.723  -0.707  -0.691  -0.666
 -0.659  -0.620  -0.609  -0.590  -0.565  -0.555  -0.540  -0.532
 -0.524  -0.504  -0.499  -0.486  -0.474  -0.468  -0.461  -0.455
 -0.442  -0.431  -0.427  -0.422  -0.420  -0.414  -0.410  -0.408
 -0.400  -0.391  -0.385  -0.377  -0.370  -0.363  -0.356  -0.349
 -0.348  -0.346  -0.342  -0.339  -0.334  -0.329  -0.328  -0.320
 -0.317  -0.308  -0.303  -0.300  -0.293  -0.288  -0.282  -0.279
 -0.267  -0.264  -0.257  -0.254  -0.247  -0.232  -0.219  -0.201
 -0.187  -0.178  -0.171  -0.170  -0.166  -0.160  -0.147  -0.139
 -0.129

          Ground-State Mulliken Net Atomic Charges

     Atom                 Charge (a.u.)
  ----------------------------------------
      1 O                    -0.196843
      2 C                     0.213894
      3 C                    -0.094637
      4 C                    -0.105363
      5 C                     0.201611
      6 O                    -0.179953
      7 C                    -0.072509
      8 C                    -0.051551
      9 O                    -0.163090
     10 C                     0.220610
     11 C                    -0.083802
     12 C                    -0.081300
     13 C                     0.216469
     14 O                    -0.221948
     15 O                    -0.181758
     16 O                    -0.175720
     17 O                    -0.183671
     18 C                    -0.127887
     19 C                     0.017251
     20 C                    -0.144436
     21 C                    -0.142774
     22 C                     0.026241
     23 O                    -0.188782
     24 H                     0.086208
     25 H                     0.085731
     26 H                     0.093131
     27 H                     0.080856
     28 H                     0.073977
     29 H                     0.081233
     30 H                     0.077093
     31 H                     0.095129
     32 O                    -0.191319
     33 C                    -0.137603
     34 C                     0.025654
     35 C                    -0.151561
     36 C                    -0.152496
     37 C                     0.025582
     38 O                    -0.188850
     39 H                     0.101422
     40 H                     0.099562
     41 H                     0.107909
     42 H                     0.082125
     43 H                     0.069002
     44 H                     0.085809
     45 H                     0.070831
     46 H                     0.085280
     47 H                     0.083558
     48 H                     0.085789
     49 H                     0.085919
     50 H                     0.088926
     51 H                     0.092663
     52 H                     0.088745
     53 H                     0.085552
     54 H                     0.097526
     55 H                     0.081639
     56 H                     0.104931
  ----------------------------------------
  Sum of atomic charges =    -0.000000

                    Cartesian Multipole Moments
 -----------------------------------------------------------------
    Charge (ESU x 10^10)
                -0.0000
    Dipole Moment (Debye)
         X      -6.0016      Y      -3.1984      Z       2.3909
       Tot       7.2087
    Quadrupole Moments (Debye-Ang)
        XX    -185.8728     XY       8.1931     YY    -158.1327
        XZ       0.4987     YZ      -7.4909     ZZ    -152.4561

 Total job time:  180.53s(wall), 8604.19s(cpu)
        *  Thank you very much for using Q-Chem.  Have a nice day.  *
