 Q-Chem 5.0, Q-Chem, Inc., Pleasanton, CA (2017)
 Q-Chem 5.0.1 for Intel X86 EM64T Linux

User input:
--------------------------------------------------------------
$molecule
0  1
O 5.641390913 0.2528341798 0.6161850799
C 4.4331180842 0.4638018476 0.8550131064
C 3.259683587 -0.5789742 0.8490809113
C 2.0620450385 -0.2381425773 -0.1231402776
C 2.3723819886 0.8597174309 -1.2053537609
O 1.3895831919 0.7459411761 -2.2692918744
C 0.6737137046 2.022808155 -2.460492395
C -0.7740950606 1.8896360993 -1.8249948037
O -0.6495756111 0.8988528756 -0.7265093741
C -1.4683514464 1.2674596048 0.4215678959
C -3.0204879926 1.2176008444 0.1388513913
C -3.4920261951 -0.1024221498 -0.5846303866
C -2.6071528767 -1.3237282062 -0.114099277
O -1.4203035375 -1.2892384451 0.2809887679
O 3.9216649731 1.6898747851 1.3987071399
O -3.3518794637 -2.5311412878 -0.271511929
O -0.936550665 1.4681685964 1.5319130481
C -2.5310986636 -3.6919917459 0.1460786804
C -4.0000741013 1.2625357211 1.3868307865
C -5.3066761046 1.9941670084 0.89626898
C -5.8569668692 0.9303093605 -0.1285384548
C -4.894096521 -0.2953271039 0.1347301624
O -4.4699489391 -0.1355424233 1.5524973538
H -3.2433432941 2.0767139706 -0.5212856368
H -3.5250503018 -0.0284796292 -1.68632259
H -3.5422578693 1.6380913807 2.3227068866
H -6.0047036334 2.1369125534 1.7368611885
H -5.1005833789 2.9722046856 0.4326459349
H -6.9015634405 0.6567520137 0.0876154923
H -5.7944440712 1.2796189787 -1.1719479419
H -5.3384285953 -1.2961469205 -0.0246222981
O 3.2821177655 1.7137102815 -1.2100455845
C 4.9829120309 2.7195616522 1.4002187188
C 3.6655527339 -2.0274487219 0.3514544689
C 2.6276286583 -3.0429925943 0.975765386
C 1.3445254289 -2.7179208602 0.1227374633
C 1.9030383655 -1.6315045091 -0.8738628062
O 3.3152897553 -2.0309471908 -1.08776658
H 2.879669792 -0.6228653158 1.886675618
H 1.1322142087 0.0709712727 0.389992003
H 5.2614821849 3.0062926823 0.3652817107
H 4.7357851489 -2.2749625385 0.4928582668
H 2.962248039 -4.0807877121 0.8176197362
H 2.4792776232 -2.8797874863 2.0551899978
H 1.0012792618 -3.6034048419 -0.4355436405
H 0.4978106011 -2.3226573483 0.7083703847
H 1.3650343065 -1.5466451314 -1.837470255
H 5.8936674323 2.3706407044 1.9284681291
H 4.5607207424 3.5966885202 1.9243263973
H -3.1736569947 -4.5815162084 0.0120693907
H -2.2233472737 -3.6110558465 1.2083880904
H -1.6202780703 -3.7924089262 -0.4787809503
H -1.1236598739 2.8848304265 -1.4778129136
H -1.4901414746 1.5164744102 -2.5916988908
H 0.5822088418 2.2186132257 -3.5506122901
H 1.2267057554 2.8679948991 -1.9986347973
$end

$rem
JOBTYPE                   OPT
METHOD                    B3LYP
DFT_D                     d3_op
BASIS                     STO-3G
GEOM_OPT_MAX_CYCLES       100
GEOM_OPT_TOL_GRADIENT     300
GEOM_OPT_TOL_DISPLACEMENT 1200
GEOM_OPT_TOL_ENERGY       100
SYMMETRY                  False
THRESH                    12
SCF_CONVERGENCE           8
MAX_SUB_FILE_NUM          128
MEM_STATIC                400
MEM_TOTAL                 4000
$end
--------------------------------------------------------------

   16   -1510.2458826334      3.74E-09 Convergence criterion met
 Total energy in the final basis set = -1510.24588263
   15   -1510.2502265796      2.58E-09 Convergence criterion met
 Total energy in the final basis set = -1510.25022658
   14   -1510.2540571517      6.17E-09 Convergence criterion met
 Total energy in the final basis set = -1510.25405715
   14   -1510.2587140341      7.07E-09 Convergence criterion met
 Total energy in the final basis set = -1510.25871403
   14   -1510.2626947243      7.05E-09 Convergence criterion met
 Total energy in the final basis set = -1510.26269472
   13   -1510.2657175360      5.64E-09 Convergence criterion met
 Total energy in the final basis set = -1510.26571754
   13   -1510.2675767728      5.82E-09 Convergence criterion met
 Total energy in the final basis set = -1510.26757677
   13   -1510.2697210586      5.32E-09 Convergence criterion met
   12   -1510.2908564533      3.59E-09 Convergence criterion met
 Total energy in the final basis set = -1510.29085645
   11   -1510.2908974206      8.28E-09 Convergence criterion met
 Total energy in the final basis set = -1510.29089742
   11   -1510.2909072137      5.70E-09 Convergence criterion met
 Total energy in the final basis set = -1510.29090721
   11   -1510.2909029267      8.88E-09 Convergence criterion met
 Total energy in the final basis set = -1510.29090293
   11   -1510.2909014841      3.16E-09 Convergence criterion met
 Total energy in the final basis set = -1510.29090148
   10   -1510.2909037328      9.35E-09 Convergence criterion met
 Total energy in the final basis set = -1510.29090373

             Standard Nuclear Orientation (Angstroms)
    I     Atom           X                Y                Z
 ----------------------------------------------------------------
    1      O      -4.1061962229     0.4549159398    -1.6220038496
    2      C      -3.0992132981    -0.2149067268    -1.3074685264
    3      C      -3.0814380233    -1.6730783326    -0.7167595724
    4      C      -2.3959201744    -1.7848288915     0.7076691457
    5      C      -1.9334530818    -0.4084618403     1.2847988841
    6      O      -0.6553243074    -0.5886292535     1.9297879176
    7      C      -0.1771030265     0.6937745135     2.5021328153
    8      C       1.0692700462     1.2159027430     1.7136665747
    9      O       0.5568651416     1.6488988489     0.3888567348
   10      C       1.5426368010     2.0572190046    -0.5593076112
   11      C       3.0643474454     2.1689078282    -0.1447343346
   12      C       3.8717321774     0.7952332112    -0.1808220574
   13      C       2.9714307546    -0.4418210310    -0.5051174162
   14      O       2.6117621295    -0.8743231533    -1.6192329768
   15      O      -1.7474838707     0.2113305629    -1.4598976923
   16      O       2.5876821525    -1.0223693727     0.7551918274
   17      O       1.1294540214     2.3590228681    -1.7072360645
   18      C       1.5427178341    -2.0630420817     0.5768017855
   19      C       3.8426147586     2.9893591524    -1.2602698759
   20      C       5.2488419265     3.4172580957    -0.6837806167
   21      C       6.0318159026     2.0531826129    -0.7446506954
   22      C       4.9229718692     1.0947701996    -1.3324506086
   23      O       4.1741376756     1.9595304637    -2.2701731717
   24      H       3.1483482757     2.6481417991     0.8463254046
   25      H       4.3646966368     0.6108649413     0.7901599931
   26      H       3.2431100052     3.7984276795    -1.7197352398
   27      H       5.7122249107     4.1783623188    -1.3311746596
   28      H       5.1741900497     3.8212175119     0.3385960593
   29      H       6.8910915707     2.1105439891    -1.4315405972
   30      H       6.3901828973     1.7211830252     0.2429487487
   31      H       5.2964445443     0.1917099935    -1.8528811896
   32      O      -2.5536915406     0.6756426220     1.2733292413
   33      C      -1.6982702891     1.6008662029    -1.9775378207
   34      C      -4.5453254530    -2.1849817754    -0.3967124453
   35      C      -4.5026869073    -3.7543532937    -0.2330291226
   36      C      -3.7962613151    -3.8918574604     1.1667385985
   37      C      -3.6040321868    -2.3747677558     1.5641745904
   38      O      -4.7861183989    -1.7027747413     0.9855110872
   39      H      -2.5681737932    -2.3337933639    -1.4390372075
   40      H      -1.5344190870    -2.4736916610     0.6967447198
   41      H      -2.3305713092     2.2707226519    -1.3615591811
   42      H      -5.3180669041    -1.7867467742    -1.0825994036
   43      H      -5.5233407253    -4.1683173601    -0.2117477902
   44      H      -3.9387480681    -4.2418638324    -1.0443402845
   45      H      -4.4426525532    -4.4013359423     1.8989657459
   46      H      -2.8365571356    -4.4299777262     1.1087542839
   47      H      -3.5360909579    -2.1782638350     2.6519228776
   48      H      -2.0595958192     1.6426418777    -3.0251298964
   49      H      -0.6276391736     1.9163361394    -1.9196823898
   50      H       1.8910950076    -2.9949200966     1.0609607659
   51      H       1.3739066483    -2.2335522606    -0.5044774939
   52      H       0.6168747380    -1.6837421700     1.0712216936
   53      H       1.5196368896     2.0668132520     2.2703885803
   54      H       1.8142621497     0.3895991819     1.5840834382
   55      H       0.1037848601     0.5094171683     3.5601633148
   56      H      -1.0104873272     1.4282094105     2.4442689398
 ----------------------------------------------------------------

    9   -1510.2909031945      6.16E-09 Convergence criterion met
 Total energy in the final basis set = -1510.29090319
 Final energy is   -1510.29090319453
 **  OPTIMIZATION CONVERGED  **

                    Orbital Energies (a.u.)
 --------------------------------------------------------------

 Alpha MOs
 -- Occupied --
-18.946 -18.943 -18.943 -18.911 -18.895 -18.895 -18.888 -18.886
-18.885 -18.856 -10.111 -10.111 -10.106 -10.082 -10.077 -10.071
-10.067 -10.065 -10.061 -10.053 -10.050 -10.050 -10.049 -10.039
-10.030 -10.027 -10.026 -10.020 -10.019 -10.017  -1.024  -1.019
 -1.013  -0.990  -0.977  -0.968  -0.950  -0.947  -0.940  -0.916
 -0.772  -0.761  -0.730  -0.727  -0.714  -0.712  -0.700  -0.664
 -0.636  -0.612  -0.607  -0.581  -0.557  -0.545  -0.542  -0.534
 -0.518  -0.509  -0.495  -0.477  -0.471  -0.464  -0.452  -0.448
 -0.438  -0.432  -0.429  -0.425  -0.413  -0.410  -0.406  -0.399
 -0.392  -0.383  -0.381  -0.367  -0.362  -0.359  -0.352  -0.348
 -0.347  -0.342  -0.338  -0.336  -0.329  -0.324  -0.321  -0.315
 -0.314  -0.309  -0.308  -0.299  -0.292  -0.289  -0.287  -0.274
 -0.268  -0.261  -0.253  -0.249  -0.240  -0.233  -0.231  -0.193
 -0.184  -0.173  -0.171  -0.161  -0.157  -0.153  -0.150  -0.142
 -0.135

          Ground-State Mulliken Net Atomic Charges

     Atom                 Charge (a.u.)
  ----------------------------------------
      1 O                    -0.213752
      2 C                     0.211014
      3 C                    -0.079229
      4 C                    -0.078221
      5 C                     0.220210
      6 O                    -0.176174
      7 C                    -0.053475
      8 C                    -0.065934
      9 O                    -0.167081
     10 C                     0.211925
     11 C                    -0.082926
     12 C                    -0.081044
     13 C                     0.209166
     14 O                    -0.196020
     15 O                    -0.177332
     16 O                    -0.176586
     17 O                    -0.195002
     18 C                    -0.153188
     19 C                     0.027280
     20 C                    -0.144656
     21 C                    -0.143851
     22 C                     0.026543
     23 O                    -0.181753
     24 H                     0.080205
     25 H                     0.085625
     26 H                     0.091940
     27 H                     0.080502
     28 H                     0.072469
     29 H                     0.080090
     30 H                     0.073112
     31 H                     0.087722
     32 O                    -0.201168
     33 C                    -0.146955
     34 C                     0.024413
     35 C                    -0.143942
     36 C                    -0.143876
     37 C                     0.025780
     38 O                    -0.186430
     39 H                     0.083422
     40 H                     0.083615
     41 H                     0.081875
     42 H                     0.092025
     43 H                     0.078106
     44 H                     0.073404
     45 H                     0.077787
     46 H                     0.072455
     47 H                     0.080969
     48 H                     0.074660
     49 H                     0.114347
     50 H                     0.081174
     51 H                     0.098435
     52 H                     0.108133
     53 H                     0.076050
     54 H                     0.109998
     55 H                     0.086051
     56 H                     0.108094
  ----------------------------------------
  Sum of atomic charges =    -0.000000

                    Cartesian Multipole Moments
 -----------------------------------------------------------------
    Charge (ESU x 10^10)
                -0.0000
    Dipole Moment (Debye)
         X       4.6461      Y      -1.5563      Z       4.1295
       Tot       6.4079
    Quadrupole Moments (Debye-Ang)
        XX    -162.4830     XY      15.0278     YY    -148.0792
        XZ       7.5385     YZ       5.2560     ZZ    -163.6918

 Total job time:  257.00s(wall), 12252.46s(cpu)
        *  Thank you very much for using Q-Chem.  Have a nice day.  *
