 Q-Chem 5.0, Q-Chem, Inc., Pleasanton, CA (2017)
 Q-Chem 5.0.1 for Intel X86 EM64T Linux

User input:
--------------------------------------------------------------
$molecule
0  1
O -3.94934 -3.66094 2.70899
C -3.26408 -4.56952 2.26188
C -3.36658 -6.02376 2.66595
C -2.09215 -6.69516 3.20345
C -0.90361 -5.79095 3.44399
O -0.01917 -6.40149 4.28684
C 1.29391 -6.52688 3.73065
C 1.54187 -7.965 3.2874
O 0.29853 -8.5875 2.92759
C 0.35218 -9.42369 1.86126
C 1.18455 -10.65657 2.12165
C 0.88835 -11.36902 3.44942
C -0.40303 -10.97435 4.13736
O -0.95138 -9.88562 4.04486
O -2.46875 -4.31105 1.18854
O -0.86397 -11.83571 5.08392
O -0.45917 -9.3446 0.95159
C -1.98488 -11.61452 5.85717
C 0.95505 -11.79383 1.10701
C 2.17113 -12.71768 1.08261
C 2.03307 -13.39691 2.42731
C 0.69999 -12.80395 2.89853
O -0.02372 -12.5983 1.71018
H 2.24986 -10.34291 2.06
H 1.7072 -11.32335 4.20022
H 0.73253 -11.43575 0.07827
H 1.99252 -13.47215 0.28298
H 3.14658 -12.21692 0.90185
H 1.93689 -14.49239 2.25679
H 2.85194 -13.19379 3.15098
H 0.23049 -13.49434 3.63251
O -0.7444 -4.63843 3.07297
C -2.30969 -3.06481 0.61903
C -4.33227 -6.20905 3.85522
C -4.86877 -7.6346 3.88351
C -3.63622 -8.38085 4.3266
C -2.66259 -7.21338 4.55213
O -3.49345 -6.1648 4.97976
H -3.7655 -6.55905 1.77495
H -1.77324 -7.53692 2.56374
H -1.89216 -2.35444 1.36428
H -5.18752 -5.49846 3.85531
H -5.6293 -7.68993 4.69532
H -5.31979 -7.98323 2.92949
H -3.8613 -8.88782 5.29152
H -3.26267 -9.11933 3.58766
H -1.88164 -7.53202 5.27481
H -3.28519 -2.68707 0.24491
H -1.60544 -3.14238 -0.23445
H -2.13074 -12.47523 6.54141
H -2.88199 -11.51608 5.20905
H -1.85734 -10.69209 6.46332
H 2.36473 -8.04859 2.54098
H 1.87115 -8.49699 4.20578
H 2.07861 -6.14864 4.41953
H 1.38959 -5.92339 2.79576
$end

$opt
CONSTRAINT
tors           1           2           3           4    -123.158
tors           3           4           5           6    +161.053
tors           4           5           6           7    +123.158
tors           5           6           7           8    -104.211
tors           6           7           8           9     +28.421
tors           7           8           9          10    +142.105
tors           8           9          10          11     +66.316
tors           9          10          11          12     +47.368
tors          11          12          13          14     -28.421
ENDCONSTRAINT
$end

$rem
JOBTYPE                   OPT
METHOD                    B3LYP
DFT_D                     d3_op
BASIS                     STO-3G
GEOM_OPT_MAX_CYCLES       100
GEOM_OPT_TOL_GRADIENT     300
GEOM_OPT_TOL_DISPLACEMENT 1200
GEOM_OPT_TOL_ENERGY       100
SYMMETRY                  False
THRESH                    12
SCF_CONVERGENCE           8
MAX_SUB_FILE_NUM          128
MEM_STATIC                400
MEM_TOTAL                 4000
$end
--------------------------------------------------------------

   15   -1510.1004904945      6.65E-09 Convergence criterion met
 Total energy in the final basis set = -1510.10049049
   13   -1510.1714745042      9.97E-09 Convergence criterion met
 Total energy in the final basis set = -1510.17147450
   14   -1510.2126670115      5.46E-09 Convergence criterion met
 Total energy in the final basis set = -1510.21266701
   14   -1510.2326615175      7.22E-09 Convergence criterion met
 Total energy in the final basis set = -1510.23266152
   13   -1510.2384172393      9.84E-09 Convergence criterion met
 Total energy in the final basis set = -1510.23841724
    2   -1510.2384172393      8.77E-09 Convergence criterion met
 Total energy in the final basis set = -1510.23841724
   14   -1510.2416458124      6.88E-09 Convergence criterion met
 Total energy in the final basis set = -1510.24164581
   13   -1510.2432576098      4.18E-09 Convergence criterion met
   11   -1510.2458337902      6.29E-09 Convergence criterion met
 Total energy in the final basis set = -1510.24583379
   11   -1510.2458489813      2.27E-09 Convergence criterion met
 Total energy in the final basis set = -1510.24584898
   11   -1510.2458615384      3.18E-09 Convergence criterion met
 Total energy in the final basis set = -1510.24586154
   10   -1510.2458682484      7.99E-09 Convergence criterion met
 Total energy in the final basis set = -1510.24586825
   10   -1510.2458726876      9.19E-09 Convergence criterion met
 Total energy in the final basis set = -1510.24587269
   10   -1510.2458750997      8.00E-09 Convergence criterion met
 Total energy in the final basis set = -1510.24587510

             Standard Nuclear Orientation (Angstroms)
    I     Atom           X                Y                Z
 ----------------------------------------------------------------
    1      O       5.6413909130     0.2528341798     0.6161850799
    2      C       4.4331180842     0.4638018476     0.8550131064
    3      C       3.2596835870    -0.5789742000     0.8490809113
    4      C       2.0620450385    -0.2381425773    -0.1231402776
    5      C       2.3723819886     0.8597174309    -1.2053537609
    6      O       1.3895831919     0.7459411761    -2.2692918744
    7      C       0.6737137046     2.0228081550    -2.4604923950
    8      C      -0.7740950606     1.8896360993    -1.8249948037
    9      O      -0.6495756111     0.8988528756    -0.7265093741
   10      C      -1.4683514464     1.2674596048     0.4215678959
   11      C      -3.0204879926     1.2176008444     0.1388513913
   12      C      -3.4920261951    -0.1024221498    -0.5846303866
   13      C      -2.6071528767    -1.3237282062    -0.1140992770
   14      O      -1.4203035375    -1.2892384451     0.2809887679
   15      O       3.9216649731     1.6898747851     1.3987071399
   16      O      -3.3518794637    -2.5311412878    -0.2715119290
   17      O      -0.9365506650     1.4681685964     1.5319130481
   18      C      -2.5310986636    -3.6919917459     0.1460786804
   19      C      -4.0000741013     1.2625357211     1.3868307865
   20      C      -5.3066761046     1.9941670084     0.8962689800
   21      C      -5.8569668692     0.9303093605    -0.1285384548
   22      C      -4.8940965210    -0.2953271039     0.1347301624
   23      O      -4.4699489391    -0.1355424233     1.5524973538
   24      H      -3.2433432941     2.0767139706    -0.5212856368
   25      H      -3.5250503018    -0.0284796292    -1.6863225900
   26      H      -3.5422578693     1.6380913807     2.3227068866
   27      H      -6.0047036334     2.1369125534     1.7368611885
   28      H      -5.1005833789     2.9722046856     0.4326459349
   29      H      -6.9015634405     0.6567520137     0.0876154923
   30      H      -5.7944440712     1.2796189787    -1.1719479419
   31      H      -5.3384285953    -1.2961469205    -0.0246222981
   32      O       3.2821177655     1.7137102815    -1.2100455845
   33      C       4.9829120309     2.7195616522     1.4002187188
   34      C       3.6655527339    -2.0274487219     0.3514544689
   35      C       2.6276286583    -3.0429925943     0.9757653860
   36      C       1.3445254289    -2.7179208602     0.1227374633
   37      C       1.9030383655    -1.6315045091    -0.8738628062
   38      O       3.3152897553    -2.0309471908    -1.0877665800
   39      H       2.8796697920    -0.6228653158     1.8866756180
   40      H       1.1322142087     0.0709712727     0.3899920030
   41      H       5.2614821849     3.0062926823     0.3652817107
   42      H       4.7357851489    -2.2749625385     0.4928582668
   43      H       2.9622480390    -4.0807877121     0.8176197362
   44      H       2.4792776232    -2.8797874863     2.0551899978
   45      H       1.0012792618    -3.6034048419    -0.4355436405
   46      H       0.4978106011    -2.3226573483     0.7083703847
   47      H       1.3650343065    -1.5466451314    -1.8374702550
   48      H       5.8936674323     2.3706407044     1.9284681291
   49      H       4.5607207424     3.5966885202     1.9243263973
   50      H      -3.1736569947    -4.5815162084     0.0120693907
   51      H      -2.2233472737    -3.6110558465     1.2083880904
   52      H      -1.6202780703    -3.7924089262    -0.4787809503
   53      H      -1.1236598739     2.8848304265    -1.4778129136
   54      H      -1.4901414746     1.5164744102    -2.5916988908
   55      H       0.5822088418     2.2186132257    -3.5506122901
   56      H       1.2267057554     2.8679948991    -1.9986347973
 ----------------------------------------------------------------

   10   -1510.2458757262      6.48E-09 Convergence criterion met
 Total energy in the final basis set = -1510.24587573
 Final energy is   -1510.24587572617
 **  OPTIMIZATION CONVERGED  **

                    Orbital Energies (a.u.)
 --------------------------------------------------------------

 Alpha MOs
 -- Occupied --
-18.947 -18.913 -18.910 -18.906 -18.899 -18.892 -18.890 -18.890
-18.870 -18.856 -10.111 -10.110 -10.098 -10.082 -10.076 -10.073
-10.072 -10.066 -10.066 -10.050 -10.048 -10.044 -10.042 -10.041
-10.028 -10.027 -10.021 -10.019 -10.006 -10.001  -1.024  -1.008
 -1.002  -0.990  -0.977  -0.955  -0.948  -0.944  -0.927  -0.917
 -0.771  -0.747  -0.732  -0.715  -0.710  -0.703  -0.686  -0.669
 -0.646  -0.607  -0.600  -0.577  -0.556  -0.545  -0.531  -0.523
 -0.518  -0.499  -0.490  -0.476  -0.464  -0.460  -0.448  -0.440
 -0.439  -0.426  -0.422  -0.418  -0.415  -0.406  -0.396  -0.394
 -0.391  -0.383  -0.379  -0.372  -0.365  -0.356  -0.353  -0.345
 -0.342  -0.336  -0.331  -0.324  -0.322  -0.319  -0.319  -0.316
 -0.313  -0.308  -0.301  -0.296  -0.292  -0.284  -0.282  -0.266
 -0.264  -0.260  -0.244  -0.241  -0.240  -0.233  -0.219  -0.188
 -0.174  -0.163  -0.159  -0.158  -0.154  -0.151  -0.149  -0.135
 -0.129

          Ground-State Mulliken Net Atomic Charges

     Atom                 Charge (a.u.)
  ----------------------------------------
      1 O                    -0.217556
      2 C                     0.213497
      3 C                    -0.082712
      4 C                    -0.078487
      5 C                     0.227278
      6 O                    -0.187874
      7 C                    -0.044703
      8 C                    -0.050907
      9 O                    -0.184107
     10 C                     0.221307
     11 C                    -0.086777
     12 C                    -0.075215
     13 C                     0.218571
     14 O                    -0.205652
     15 O                    -0.171719
     16 O                    -0.168057
     17 O                    -0.185195
     18 C                    -0.127616
     19 C                     0.021728
     20 C                    -0.140918
     21 C                    -0.146123
     22 C                     0.022318
     23 O                    -0.192085
     24 H                     0.076604
     25 H                     0.086482
     26 H                     0.091408
     27 H                     0.079716
     28 H                     0.072842
     29 H                     0.079941
     30 H                     0.072977
     31 H                     0.092273
     32 O                    -0.193170
     33 C                    -0.127873
     34 C                     0.022909
     35 C                    -0.143573
     36 C                    -0.149675
     37 C                     0.025040
     38 O                    -0.195844
     39 H                     0.084573
     40 H                     0.107680
     41 H                     0.090318
     42 H                     0.086665
     43 H                     0.073590
     44 H                     0.071267
     45 H                     0.068022
     46 H                     0.088473
     47 H                     0.088655
     48 H                     0.086624
     49 H                     0.085401
     50 H                     0.092857
     51 H                     0.093068
     52 H                     0.091857
     53 H                     0.077404
     54 H                     0.073140
     55 H                     0.083751
     56 H                     0.087603
  ----------------------------------------
  Sum of atomic charges =     0.000000

                    Cartesian Multipole Moments
 -----------------------------------------------------------------
    Charge (ESU x 10^10)
                 0.0000
    Dipole Moment (Debye)
         X      -5.7631      Y       1.2104      Z      -0.9607
       Tot       5.9667
    Quadrupole Moments (Debye-Ang)
        XX    -168.0136     XY      -1.2214     YY    -145.4259
        XZ      13.0116     YZ      -5.5292     ZZ    -160.8341

 Total job time:  70.22s(wall), 3340.81s(cpu)
        *  Thank you very much for using Q-Chem.  Have a nice day.  *
