 Q-Chem 5.0, Q-Chem, Inc., Pleasanton, CA (2017)
 Q-Chem 5.0.1 for Intel X86 EM64T Linux

User input:
--------------------------------------------------------------
$molecule
0  1
O -3.94934 -3.66094 2.70899
C -3.26408 -4.56952 2.26188
C -3.36658 -6.02376 2.66595
C -2.57813 -6.46456 3.91009
C -1.91791 -5.36653 4.71416
O -1.61172 -4.31441 3.89886
C -0.35177 -4.46379 3.23593
C 0.5532 -3.27795 3.55365
O 1.81547 -3.43297 2.88618
C 2.71069 -2.43544 3.09273
C 4.02009 -2.92834 3.6612
C 4.22226 -2.64873 5.1576
C 2.97924 -2.2553 5.93015
O 2.01802 -2.98005 6.14307
O -2.60249 -4.34049 1.09541
O 2.99548 -1.01678 6.48915
O 2.40518 -1.25103 3.07049
C 1.96639 -0.49138 7.24212
C 4.23454 -4.46444 3.65782
C 5.73092 -4.77662 3.69167
C 6.07483 -4.36998 5.11015
C 4.679 -4.03169 5.64424
O 3.82093 -4.89169 4.93311
H 4.81628 -2.47871 3.02619
H 4.9789 -1.84684 5.31111
H 3.76837 -4.97977 2.79015
H 5.8311 -5.88281 3.60734
H 6.3425 -4.29567 2.89832
H 6.49828 -5.25407 5.63642
H 6.76508 -3.50345 5.20194
H 4.64948 -4.11667 6.75317
O -1.36939 -5.54522 5.79178
C -2.49769 -3.10697 0.48611
C -4.80038 -6.39306 3.08569
C -5.01016 -7.90376 2.9805
C -4.20689 -8.38154 4.17067
C -3.73854 -7.04237 4.74666
O -4.80798 -6.17023 4.4729
H -3.07206 -6.63119 1.77987
H -1.80653 -7.23929 3.70433
H -1.98579 -2.38974 1.16306
H -5.5771 -5.857 2.4968
H -6.08651 -8.11381 3.17326
H -4.71727 -8.34097 2.00169
H -4.90184 -8.87221 4.88844
H -3.36366 -9.06586 3.93406
H -3.4747 -7.16483 5.82049
H -3.50568 -2.72165 0.22237
H -1.90007 -3.20998 -0.44261
H 2.24144 0.53177 7.57068
H 1.78905 -1.12039 8.14059
H 1.03835 -0.43494 6.63364
H 0.04853 -2.3512 3.19982
H 0.59066 -3.24605 4.62178
H -0.4831 -4.51134 2.14047
H 0.18515 -5.39722 3.53383
$end

$opt
CONSTRAINT
tors           1           2           3           4     -85.263
tors           3           4           5           6     -28.421
tors           4           5           6           7     -85.263
tors           5           6           7           8    -123.158
tors           6           7           8           9    -180.000
tors           7           8           9          10    -180.000
tors           8           9          10          11    +123.158
tors           9          10          11          12    -104.211
tors          11          12          13          14     +66.316
ENDCONSTRAINT
$end

$rem
JOBTYPE                   OPT
METHOD                    B3LYP
DFT_D                     d3_op
BASIS                     STO-3G
GEOM_OPT_MAX_CYCLES       100
GEOM_OPT_TOL_GRADIENT     300
GEOM_OPT_TOL_DISPLACEMENT 1200
GEOM_OPT_TOL_ENERGY       100
SYMMETRY                  False
THRESH                    12
SCF_CONVERGENCE           8
MAX_SUB_FILE_NUM          128
MEM_STATIC                400
MEM_TOTAL                 4000
$end
--------------------------------------------------------------

   15   -1510.1037881538      7.21E-09 Convergence criterion met
 Total energy in the final basis set = -1510.10378815
   14   -1510.1771291338      6.26E-09 Convergence criterion met
 Total energy in the final basis set = -1510.17712913
   14   -1510.2172185310      9.24E-09 Convergence criterion met
 Total energy in the final basis set = -1510.21721853
   14   -1510.2364526167      4.11E-09 Convergence criterion met
 Total energy in the final basis set = -1510.23645262
   14   -1510.2438710727      7.51E-09 Convergence criterion met
 Total energy in the final basis set = -1510.24387107
    2   -1510.2438710727      1.98E-09 Convergence criterion met
 Total energy in the final basis set = -1510.24387107
   13   -1510.2476760323      8.82E-09 Convergence criterion met
 Total energy in the final basis set = -1510.24767603
   13   -1510.2496444464      6.25E-09 Convergence criterion met
   11   -1510.2514518689      8.46E-09 Convergence criterion met
 Total energy in the final basis set = -1510.25145187
   11   -1510.2514760209      5.91E-09 Convergence criterion met
 Total energy in the final basis set = -1510.25147602
    9   -1510.2514852689      8.61E-09 Convergence criterion met
 Total energy in the final basis set = -1510.25148527
    9   -1510.2514932081      7.49E-09 Convergence criterion met
 Total energy in the final basis set = -1510.25149321
    9   -1510.2514955894      4.64E-09 Convergence criterion met
 Total energy in the final basis set = -1510.25149559
    9   -1510.2514966911      6.30E-09 Convergence criterion met
 Total energy in the final basis set = -1510.25149669

             Standard Nuclear Orientation (Angstroms)
    I     Atom           X                Y                Z
 ----------------------------------------------------------------
    1      O      -4.0189521452     1.9643945418     0.9486676395
    2      C      -3.7588734263     1.4268144659    -0.1483616249
    3      C      -4.2449099328     0.0225537858    -0.6672281447
    4      C      -3.3560379596    -1.2094571781    -0.2143087402
    5      C      -2.1268767055    -0.8393875422     0.7061587203
    6      O      -1.6154511365     0.5055465738     0.4729697629
    7      C      -0.6457994448     0.4838734837    -0.6552543173
    8      C       0.7137499110     1.0640509328    -0.1410963702
    9      O       1.6523143937     1.0259360513    -1.2919775370
   10      C       2.9322950906     1.5516055939    -0.8784692053
   11      C       4.0825051111     0.4971069938    -1.1292504589
   12      C       4.5603503211    -0.2062419300     0.2189735199
   13      C       3.8588823486     0.3106345114     1.5206947345
   14      O       2.6558772686     0.1956503505     1.8517824378
   15      O      -3.1056232236     2.1018297769    -1.2432943986
   16      O       4.8406140622     0.9523657704     2.3348904108
   17      O       3.0903044753     2.6678469709    -0.3380475396
   18      C       4.2100916241     1.4838139434     3.5674839224
   19      C       3.5769068156    -0.7554990848    -1.9552692911
   20      C       4.8278057036    -1.5983092239    -2.4253110487
   21      C       5.2406803627    -2.3110191659    -1.0844962378
   22      C       4.1688769528    -1.7195780100    -0.0879078736
   23      O       2.9484424218    -1.6055062623    -0.9156954991
   24      H       4.9365165614     1.0051745722    -1.6138206958
   25      H       5.6491173786    -0.0851844796     0.3564018750
   26      H       2.8442521711    -0.5106564796    -2.7470915873
   27      H       4.5342109991    -2.3276125906    -3.1969986983
   28      H       5.6283639782    -0.9595462883    -2.8313899934
   29      H       5.1324257795    -3.4048653581    -1.1585233938
   30      H       6.2716852873    -2.0768939338    -0.7749787182
   31      H       3.9688307672    -2.3315618580     0.8130699555
   32      O      -1.6873034423    -1.5576822952     1.6247398233
   33      C      -2.6392243440     3.4319749458    -0.7925716114
   34      C      -5.6414078610    -0.3825995062    -0.0241664170
   35      C      -6.2752177008    -1.5396176825    -0.8937486151
   36      C      -5.3841867271    -2.7649099051    -0.4667062113
   37      C      -4.4135430376    -2.0850550776     0.5769134899
   38      O      -5.2621792140    -1.0653529558     1.2343982735
   39      H      -4.3027025612     0.0733116001    -1.7687445106
   40      H      -2.9658674556    -1.7517724699    -1.0962309057
   41      H      -1.8902012727     3.3431326610     0.0208708970
   42      H      -6.3107910985     0.4728328986     0.1902140571
   43      H      -7.3305553556    -1.6931482052    -0.6175934093
   44      H      -6.2200556468    -1.3279186142    -1.9735333067
   45      H      -5.9830974693    -3.5513192114     0.0193798952
   46      H      -4.8364225878    -3.2093785394    -1.3131370273
   47      H      -3.9583702412    -2.7605031652     1.3275034711
   48      H      -3.4787713199     4.0586567149    -0.4287058335
   49      H      -2.1733762194     3.9108033684    -1.6736224764
   50      H       5.0267427297     1.9458761327     4.1516806287
   51      H       3.7340351763     0.6773932922     4.1613943530
   52      H       3.4427019924     2.2484253078     3.3298683895
   53      H       0.5598249410     2.1057283817     0.2193805697
   54      H       1.1352770195     0.4586540893     0.6974621535
   55      H      -1.0624397902     1.1220729259    -1.4668233308
   56      H      -0.4798190040    -0.5367333211    -1.0581922111
 ----------------------------------------------------------------

    9   -1510.2514972595      2.26E-09 Convergence criterion met
 Total energy in the final basis set = -1510.25149726
 Final energy is   -1510.25149725952
 **  OPTIMIZATION CONVERGED  **

                    Orbital Energies (a.u.)
 --------------------------------------------------------------

 Alpha MOs
 -- Occupied --
-18.945 -18.918 -18.909 -18.908 -18.906 -18.891 -18.889 -18.885
-18.884 -18.856 -10.111 -10.108 -10.103 -10.088 -10.067 -10.066
-10.064 -10.061 -10.057 -10.056 -10.054 -10.053 -10.043 -10.039
-10.037 -10.031 -10.024 -10.022 -10.019 -10.017  -1.020  -1.010
 -1.004  -0.995  -0.973  -0.967  -0.943  -0.941  -0.932  -0.922
 -0.766  -0.760  -0.726  -0.720  -0.711  -0.702  -0.691  -0.667
 -0.654  -0.604  -0.596  -0.578  -0.550  -0.545  -0.540  -0.536
 -0.514  -0.507  -0.485  -0.475  -0.461  -0.455  -0.453  -0.445
 -0.435  -0.431  -0.424  -0.416  -0.413  -0.406  -0.404  -0.401
 -0.392  -0.385  -0.378  -0.364  -0.361  -0.356  -0.350  -0.346
 -0.346  -0.338  -0.335  -0.331  -0.328  -0.326  -0.323  -0.315
 -0.310  -0.308  -0.304  -0.300  -0.296  -0.291  -0.280  -0.274
 -0.272  -0.261  -0.246  -0.243  -0.238  -0.237  -0.231  -0.186
 -0.167  -0.166  -0.164  -0.158  -0.154  -0.152  -0.147  -0.141
 -0.138

          Ground-State Mulliken Net Atomic Charges

     Atom                 Charge (a.u.)
  ----------------------------------------
      1 O                    -0.217623
      2 C                     0.213510
      3 C                    -0.082437
      4 C                    -0.082960
      5 C                     0.228426
      6 O                    -0.189601
      7 C                    -0.049995
      8 C                    -0.057001
      9 O                    -0.192655
     10 C                     0.213583
     11 C                    -0.079226
     12 C                    -0.080487
     13 C                     0.210728
     14 O                    -0.213157
     15 O                    -0.178696
     16 O                    -0.164012
     17 O                    -0.197211
     18 C                    -0.128562
     19 C                     0.025555
     20 C                    -0.144852
     21 C                    -0.143572
     22 C                     0.025394
     23 O                    -0.188333
     24 H                     0.083693
     25 H                     0.088499
     26 H                     0.090297
     27 H                     0.077925
     28 H                     0.073752
     29 H                     0.078628
     30 H                     0.074342
     31 H                     0.084310
     32 O                    -0.171516
     33 C                    -0.129737
     34 C                     0.025792
     35 C                    -0.144164
     36 C                    -0.144092
     37 C                     0.023661
     38 O                    -0.187089
     39 H                     0.082671
     40 H                     0.082185
     41 H                     0.089084
     42 H                     0.085986
     43 H                     0.077949
     44 H                     0.072720
     45 H                     0.078305
     46 H                     0.072180
     47 H                     0.089600
     48 H                     0.087781
     49 H                     0.085868
     50 H                     0.092711
     51 H                     0.091845
     52 H                     0.093949
     53 H                     0.079895
     54 H                     0.109440
     55 H                     0.092569
     56 H                     0.084143
  ----------------------------------------
  Sum of atomic charges =     0.000000

                    Cartesian Multipole Moments
 -----------------------------------------------------------------
    Charge (ESU x 10^10)
                 0.0000
    Dipole Moment (Debye)
         X       2.5757      Y      -1.4431      Z      -3.0235
       Tot       4.2259
    Quadrupole Moments (Debye-Ang)
        XX    -144.9515     XY      -0.2242     YY    -158.7041
        XZ      13.0649     YZ       2.7383     ZZ    -157.8701

 Total job time:  59.98s(wall), 2854.05s(cpu)
        *  Thank you very much for using Q-Chem.  Have a nice day.  *
