 Q-Chem 5.0, Q-Chem, Inc., Pleasanton, CA (2017)
 Q-Chem 5.0.1 for Intel X86 EM64T Linux

User input:
--------------------------------------------------------------
$molecule
0  1
O -4.0189521452 1.9643945418 0.9486676395
C -3.7588734263 1.4268144659 -0.1483616249
C -4.2449099328 0.0225537858 -0.6672281447
C -3.3560379596 -1.2094571781 -0.2143087402
C -2.1268767055 -0.8393875422 0.7061587203
O -1.6154511365 0.5055465738 0.4729697629
C -0.6457994448 0.4838734837 -0.6552543173
C 0.713749911 1.0640509328 -0.1410963702
O 1.6523143937 1.0259360513 -1.291977537
C 2.9322950906 1.5516055939 -0.8784692053
C 4.0825051111 0.4971069938 -1.1292504589
C 4.5603503211 -0.20624193 0.2189735199
C 3.8588823486 0.3106345114 1.5206947345
O 2.6558772686 0.1956503505 1.8517824378
O -3.1056232236 2.1018297769 -1.2432943986
O 4.8406140622 0.9523657704 2.3348904108
O 3.0903044753 2.6678469709 -0.3380475396
C 4.2100916241 1.4838139434 3.5674839224
C 3.5769068156 -0.7554990848 -1.9552692911
C 4.8278057036 -1.5983092239 -2.4253110487
C 5.2406803627 -2.3110191659 -1.0844962378
C 4.1688769528 -1.71957801 -0.0879078736
O 2.9484424218 -1.6055062623 -0.9156954991
H 4.9365165614 1.0051745722 -1.6138206958
H 5.6491173786 -0.0851844796 0.356401875
H 2.8442521711 -0.5106564796 -2.7470915873
H 4.5342109991 -2.3276125906 -3.1969986983
H 5.6283639782 -0.9595462883 -2.8313899934
H 5.1324257795 -3.4048653581 -1.1585233938
H 6.2716852873 -2.0768939338 -0.7749787182
H 3.9688307672 -2.331561858 0.8130699555
O -1.6873034423 -1.5576822952 1.6247398233
C -2.639224344 3.4319749458 -0.7925716114
C -5.641407861 -0.3825995062 -0.024166417
C -6.2752177008 -1.5396176825 -0.8937486151
C -5.3841867271 -2.7649099051 -0.4667062113
C -4.4135430376 -2.0850550776 0.5769134899
O -5.262179214 -1.0653529558 1.2343982735
H -4.3027025612 0.0733116001 -1.7687445106
H -2.9658674556 -1.7517724699 -1.0962309057
H -1.8902012727 3.343132661 0.020870897
H -6.3107910985 0.4728328986 0.1902140571
H -7.3305553556 -1.6931482052 -0.6175934093
H -6.2200556468 -1.3279186142 -1.9735333067
H -5.9830974693 -3.5513192114 0.0193798952
H -4.8364225878 -3.2093785394 -1.3131370273
H -3.9583702412 -2.7605031652 1.3275034711
H -3.4787713199 4.0586567149 -0.4287058335
H -2.1733762194 3.9108033684 -1.6736224764
H 5.0267427297 1.9458761327 4.1516806287
H 3.7340351763 0.6773932922 4.161394353
H 3.4427019924 2.2484253078 3.3298683895
H 0.559824941 2.1057283817 0.2193805697
H 1.1352770195 0.4586540893 0.6974621535
H -1.0624397902 1.1220729259 -1.4668233308
H -0.479819004 -0.5367333211 -1.0581922111
$end

$rem
JOBTYPE                   OPT
METHOD                    B3LYP
DFT_D                     d3_op
BASIS                     STO-3G
GEOM_OPT_MAX_CYCLES       100
GEOM_OPT_TOL_GRADIENT     300
GEOM_OPT_TOL_DISPLACEMENT 1200
GEOM_OPT_TOL_ENERGY       100
SYMMETRY                  False
THRESH                    12
SCF_CONVERGENCE           8
MAX_SUB_FILE_NUM          128
MEM_STATIC                400
MEM_TOTAL                 4000
$end
--------------------------------------------------------------

   16   -1510.2514975760      4.56E-09 Convergence criterion met
 Total energy in the final basis set = -1510.25149758
   15   -1510.2541899815      3.79E-09 Convergence criterion met
 Total energy in the final basis set = -1510.25418998
   15   -1510.2578229200      3.07E-09 Convergence criterion met
 Total energy in the final basis set = -1510.25782292
   15   -1510.2605029109      3.69E-09 Convergence criterion met
 Total energy in the final basis set = -1510.26050291
   14   -1510.2631213957      4.85E-09 Convergence criterion met
 Total energy in the final basis set = -1510.26312140
   14   -1510.2651627960      3.80E-09 Convergence criterion met
 Total energy in the final basis set = -1510.26516280
   14   -1510.2667622493      9.11E-09 Convergence criterion met
 Total energy in the final basis set = -1510.26676225
   13   -1510.2682621797      8.18E-09 Convergence criterion met
   13   -1510.2841279445      8.75E-09 Convergence criterion met
 Total energy in the final basis set = -1510.28412794
   13   -1510.2844019081      4.85E-09 Convergence criterion met
 Total energy in the final basis set = -1510.28440191
   12   -1510.2843883342      6.10E-09 Convergence criterion met
 Total energy in the final basis set = -1510.28438833
   11   -1510.2844114565      9.51E-09 Convergence criterion met
 Total energy in the final basis set = -1510.28441146
   11   -1510.2844205034      5.05E-09 Convergence criterion met
 Total energy in the final basis set = -1510.28442050
    9   -1510.2844140273      8.73E-09 Convergence criterion met
 Total energy in the final basis set = -1510.28441403

             Standard Nuclear Orientation (Angstroms)
    I     Atom           X                Y                Z
 ----------------------------------------------------------------
    1      O      -4.5869678473     1.6540422134    -0.6513631958
    2      C      -3.6685572897     0.9144472849    -1.0583165804
    3      C      -3.0408204789    -0.3395318512    -0.3615282724
    4      C      -2.0462875894     0.0194837506     0.8275906593
    5      C      -1.7746302892     1.5607777058     1.0447768943
    6      O      -0.8995943010     2.2508744908     0.1383761534
    7      C      -0.3956961185     1.4492785815    -1.0068985895
    8      C       0.7849635297     2.2731756497    -1.6489526636
    9      O       2.0232351821     1.4566346198    -1.7106867150
   10      C       2.5979558808     1.3293610532    -0.4090705310
   11      C       3.7165099239     0.2227229261    -0.4235815267
   12      C       3.2665868288    -1.0549257111     0.4192733876
   13      C       1.8497157062    -0.8762903306     1.0629103264
   14      O       0.7417163654    -1.0091031576     0.4857015036
   15      O      -2.9982611616     1.1075204738    -2.3233547277
   16      O       2.0181883070    -0.5181028947     2.4282543828
   17      O       2.2130130802     1.9685135819     0.5955847791
   18      C       0.7160651157    -0.1956358906     3.0605615866
   19      C       3.9387398486    -0.4297837972    -1.8494871289
   20      C       5.2591701334    -1.2965973848    -1.8091147288
   21      C       4.7752398622    -2.5577285286    -1.0015503993
   22      C       3.2724105611    -2.1711911912    -0.7098912373
   23      O       2.8570909476    -1.4404462121    -1.9278438934
   24      H       4.6447371915     0.6546775012    -0.0075421088
   25      H       3.9880647475    -1.2739139499     1.2255868336
   26      H       3.8622055680     0.2834711719    -2.6918339993
   27      H       5.5718732332    -1.5670287228    -2.8301309718
   28      H       6.0889181382    -0.7663806543    -1.3146473388
   29      H       4.8238814643    -3.4722167570    -1.6137583117
   30      H       5.3497395107    -2.7203577761    -0.0755547151
   31      H       2.5893422096    -3.0209016548    -0.5168740911
   32      O      -2.2331203638     2.2243926022     2.0021483140
   33      C      -3.5212042918     2.3170747887    -3.0008308790
   34      C      -4.1519082141    -1.1558372797     0.4260726763
   35      C      -3.5435813133    -2.5560224576     0.8365867746
   36      C      -2.6283039170    -2.1484706854     2.0504037702
   37      C      -2.8330252294    -0.5832447702     2.0655969306
   38      O      -4.2605621005    -0.4234207934     1.7057818259
   39      H      -2.5395525316    -0.9509845737    -1.1325133693
   40      H      -1.0717696496    -0.4962867704     0.6975360131
   41      H      -3.3062750230     3.2342479628    -2.4150507888
   42      H      -5.1351371845    -1.1970399901    -0.0814655475
   43      H      -4.3426391696    -3.2492555220     1.1437082646
   44      H      -2.9734039669    -3.0146820837     0.0128914581
   45      H      -2.9839568222    -2.5952868731     2.9925891375
   46      H      -1.5741183103    -2.4313768474     1.8976409025
   47      H      -2.6210702287    -0.0739311390     3.0253250522
   48      H      -4.6157799894     2.2490277348    -3.1622741029
   49      H      -3.0031357332     2.3697541268    -3.9759810987
   50      H       0.9414850574     0.0287136663     4.1188878346
   51      H       0.0119034166    -1.0494242012     3.0032538347
   52      H       0.2500860349     0.6922793289     2.5869942681
   53      H       0.5638142719     2.5417953037    -2.7004183822
   54      H       0.9446642506     3.1982838348    -1.0526990342
   55      H      -1.2238690314     1.2815855190    -1.7371710413
   56      H       0.0082153107     0.4657961829    -0.6760935998
 ----------------------------------------------------------------

    9   -1510.2844146826      3.44E-09 Convergence criterion met
 Total energy in the final basis set = -1510.28441468
 Final energy is   -1510.28441468256
 **  OPTIMIZATION CONVERGED  **

                    Orbital Energies (a.u.)
 --------------------------------------------------------------

 Alpha MOs
 -- Occupied --
-18.956 -18.942 -18.937 -18.916 -18.893 -18.893 -18.884 -18.882
-18.878 -18.859 -10.119 -10.104 -10.101 -10.085 -10.072 -10.069
-10.068 -10.067 -10.064 -10.056 -10.050 -10.047 -10.047 -10.045
-10.035 -10.026 -10.025 -10.018 -10.017 -10.015  -1.029  -1.016
 -1.015  -0.991  -0.976  -0.964  -0.953  -0.941  -0.941  -0.922
 -0.770  -0.757  -0.730  -0.719  -0.717  -0.699  -0.695  -0.673
 -0.665  -0.612  -0.595  -0.584  -0.554  -0.545  -0.543  -0.535
 -0.518  -0.506  -0.486  -0.477  -0.468  -0.461  -0.456  -0.447
 -0.438  -0.437  -0.428  -0.424  -0.418  -0.415  -0.412  -0.404
 -0.392  -0.386  -0.377  -0.369  -0.365  -0.361  -0.353  -0.351
 -0.348  -0.344  -0.337  -0.333  -0.331  -0.326  -0.316  -0.312
 -0.310  -0.305  -0.303  -0.300  -0.294  -0.289  -0.283  -0.278
 -0.274  -0.261  -0.260  -0.253  -0.240  -0.232  -0.227  -0.194
 -0.186  -0.181  -0.172  -0.158  -0.156  -0.151  -0.149  -0.138
 -0.134

          Ground-State Mulliken Net Atomic Charges

     Atom                 Charge (a.u.)
  ----------------------------------------
      1 O                    -0.197821
      2 C                     0.207344
      3 C                    -0.081479
      4 C                    -0.100908
      5 C                     0.196949
      6 O                    -0.175373
      7 C                    -0.076411
      8 C                    -0.050304
      9 O                    -0.169630
     10 C                     0.204281
     11 C                    -0.077772
     12 C                    -0.078795
     13 C                     0.218593
     14 O                    -0.222499
     15 O                    -0.172104
     16 O                    -0.158088
     17 O                    -0.211824
     18 C                    -0.129670
     19 C                     0.024890
     20 C                    -0.144463
     21 C                    -0.143551
     22 C                     0.025104
     23 O                    -0.186900
     24 H                     0.086934
     25 H                     0.088815
     26 H                     0.092092
     27 H                     0.078940
     28 H                     0.074076
     29 H                     0.078909
     30 H                     0.074136
     31 H                     0.084054
     32 O                    -0.205920
     33 C                    -0.129925
     34 C                     0.026562
     35 C                    -0.143989
     36 C                    -0.144695
     37 C                     0.023241
     38 O                    -0.185322
     39 H                     0.085933
     40 H                     0.105108
     41 H                     0.092740
     42 H                     0.082790
     43 H                     0.076973
     44 H                     0.073476
     45 H                     0.075825
     46 H                     0.071087
     47 H                     0.087251
     48 H                     0.092695
     49 H                     0.090649
     50 H                     0.097507
     51 H                     0.089132
     52 H                     0.099116
     53 H                     0.088110
     54 H                     0.100578
     55 H                     0.099414
     56 H                     0.094138
  ----------------------------------------
  Sum of atomic charges =    -0.000000

                    Cartesian Multipole Moments
 -----------------------------------------------------------------
    Charge (ESU x 10^10)
                -0.0000
    Dipole Moment (Debye)
         X       3.7607      Y      -3.2011      Z      -2.2619
       Tot       5.4319
    Quadrupole Moments (Debye-Ang)
        XX    -158.9564     XY       4.3168     YY    -161.2786
        XZ       9.9224     YZ     -13.6643     ZZ    -157.0532

 Total job time:  150.87s(wall), 7188.44s(cpu)
        *  Thank you very much for using Q-Chem.  Have a nice day.  *
