 Q-Chem 5.0, Q-Chem, Inc., Pleasanton, CA (2017)
 Q-Chem 5.0.1 for Intel X86 EM64T Linux

User input:
--------------------------------------------------------------
$molecule
0  1
O -3.94934 -3.66094 2.70899
C -3.26408 -4.56952 2.26188
C -3.36658 -6.02376 2.66595
C -2.97353 -6.38153 4.10864
C -2.69204 -5.22192 5.03825
O -2.64642 -4.05713 4.32647
C -2.81599 -2.89234 5.14118
C -3.23423 -3.2939 6.55184
O -2.07192 -3.59686 7.33933
C -1.47505 -2.53268 7.93128
C -0.49307 -1.82941 7.02476
C -1.11932 -1.13555 5.8063
C -2.62099 -0.93797 5.85782
O -3.25526 -0.14454 5.17758
O -2.38347 -4.28888 1.26519
O -3.02629 -0.72352 7.15901
O -1.62372 -2.28561 9.11894
C -4.17598 -0.07897 7.59457
C 0.25341 -0.67874 7.72267
C 1.54391 -0.36218 6.96723
C 0.98376 0.33542 5.7503
C -0.51608 0.28295 6.0674
O -0.55311 0.43512 7.46453
H 0.23614 -2.61097 6.71432
H -0.70076 -1.33828 4.78965
H 0.48149 -0.88611 8.79083
H 2.13202 0.374 7.56036
H 2.16986 -1.25615 6.75688
H 1.31698 1.39751 5.7745
H 1.25467 -0.11519 4.77145
H -1.0319 1.08277 5.48996
O -1.87412 -5.47754 5.91172
C -2.16811 -3.02622 0.7538
C -4.82495 -6.50572 2.62904
C -4.87512 -8.03065 2.52938
C -4.46388 -8.41675 3.93418
C -4.29416 -7.03254 4.5666
O -5.28444 -6.25799 3.93388
H -2.74974 -6.60644 1.94435
H -2.13491 -7.11358 4.1686
H -1.80439 -2.34683 1.55453
H -5.41215 -6.04477 1.80431
H -5.9356 -8.33289 2.37582
H -4.24692 -8.45376 1.71606
H -5.3189 -8.93936 4.41863
H -3.54911 -9.04362 4.00862
H -4.36968 -7.10824 5.67444
H -3.10774 -2.62416 0.31807
H -1.39982 -3.08287 -0.04426
H -4.21417 -0.11585 8.70231
H -5.07885 -0.58195 7.18718
H -4.16661 0.98471 7.27558
H -3.95793 -2.66995 7.09463
H -3.97168 -4.12539 6.60408
H -3.69918 -2.45748 4.59746
H -1.74918 -2.9769 4.92892
$end

$opt
CONSTRAINT
tors           1           2           3           4     -66.316
tors           3           4           5           6      -9.474
tors           4           5           6           7    +161.053
tors           5           6           7           8      -9.474
tors           6           7           8           9     +85.263
tors           7           8           9          10     +85.263
tors           8           9          10          11     -85.263
tors           9          10          11          12     +66.316
tors          11          12          13          14    +161.053
ENDCONSTRAINT
$end

$rem
JOBTYPE                   OPT
METHOD                    B3LYP
DFT_D                     d3_op
BASIS                     STO-3G
GEOM_OPT_MAX_CYCLES       100
GEOM_OPT_TOL_GRADIENT     300
GEOM_OPT_TOL_DISPLACEMENT 1200
GEOM_OPT_TOL_ENERGY       100
SYMMETRY                  False
THRESH                    12
SCF_CONVERGENCE           8
MAX_SUB_FILE_NUM          128
MEM_STATIC                400
MEM_TOTAL                 4000
$end
--------------------------------------------------------------

   16   -1509.8657398421      9.39E-09 Convergence criterion met
 Total energy in the final basis set = -1509.86573984
   15   -1509.9797904851      4.46E-09 Convergence criterion met
 Total energy in the final basis set = -1509.97979049
   14   -1510.0560455588      6.55E-09 Convergence criterion met
 Total energy in the final basis set = -1510.05604556
   14   -1510.1112594955      7.44E-09 Convergence criterion met
 Total energy in the final basis set = -1510.11125950
   14   -1510.1488149349      6.91E-09 Convergence criterion met
 Total energy in the final basis set = -1510.14881493
   14   -1510.1737151004      5.84E-09 Convergence criterion met
 Total energy in the final basis set = -1510.17371510
   14   -1510.1905321453      4.59E-09 Convergence criterion met
 Total energy in the final basis set = -1510.19053215
   14   -1510.2024554398      3.83E-09 Convergence criterion met
   11   -1510.2354792504      3.76E-09 Convergence criterion met
 Total energy in the final basis set = -1510.23547925
   11   -1510.2354906659      1.92E-09 Convergence criterion met
 Total energy in the final basis set = -1510.23549067
   10   -1510.2354973593      9.92E-09 Convergence criterion met
 Total energy in the final basis set = -1510.23549736
    9   -1510.2355013930      8.93E-09 Convergence criterion met
 Total energy in the final basis set = -1510.23550139
    9   -1510.2355040444      5.83E-09 Convergence criterion met
 Total energy in the final basis set = -1510.23550404
    9   -1510.2355057723      8.72E-09 Convergence criterion met
 Total energy in the final basis set = -1510.23550577

             Standard Nuclear Orientation (Angstroms)
    I     Atom           X                Y                Z
 ----------------------------------------------------------------
    1      O      -3.0416485288     0.8317066316     1.9275076015
    2      C      -3.2450940064     1.3447478702     0.8063535765
    3      C      -4.0583948437     0.7515869352    -0.4059575808
    4      C      -3.4379838201    -0.5401556273    -1.0815367750
    5      C      -1.9311490597    -0.8807308340    -0.7809545639
    6      O      -1.3388736597     0.2149652300    -0.0905455417
    7      C      -0.0839929770    -0.0279719887     0.6649738397
    8      C       0.4471988428    -1.5019656447     0.8821468007
    9      O       1.2677892027    -2.0844512013    -0.1813547916
   10      C       2.6999951423    -1.8311351775    -0.2134152522
   11      C       3.2561616534    -0.5168156574    -0.9117628633
   12      C       2.9801267641     0.9337308535    -0.3591019802
   13      C       2.9033692522     1.0396767342     1.2144248815
   14      O       3.0274888453     2.0844702674     1.8895039841
   15      O      -2.8272476812     2.6708465713     0.4398147724
   16      O       2.8709804297    -0.2685576370     1.7941327469
   17      O       3.4653368689    -2.7810351028     0.0650016920
   18      C       2.9830970764    -0.1830925369     3.2684019149
   19      C       4.8388231802    -0.4984289016    -1.0787949006
   20      C       5.1356102837     0.1205085122    -2.4973298439
   21      C       4.6514488291     1.6010551273    -2.2618865058
   22      C       4.3863059436     1.6013190996    -0.7034726644
   23      O       5.3083497969     0.5706411354    -0.1656359447
   24      H       2.8039514092    -0.5558171788    -1.9231523408
   25      H       2.1304168437     1.4414421285    -0.8475817473
   26      H       5.3245539869    -1.4656632515    -0.8439239960
   27      H       6.2154465628     0.0818468057    -2.7138093530
   28      H       4.5902153638    -0.3881856621    -3.3082218378
   29      H       5.4298430139     2.3349079251    -2.5231665965
   30      H       3.7376567281     1.8406748586    -2.8294464956
   31      H       4.5453992933     2.5717864884    -0.1934647786
   32      O      -1.3546952510    -1.9357124375    -1.1204707076
   33      C      -2.0609477655     3.2809826435     1.5488567416
   34      C      -5.4067957638     0.1317668982     0.1682367648
   35      C      -6.3702174935    -0.2589382173    -1.0234615215
   36      C      -5.7202857335    -1.6035068711    -1.5206056933
   37      C      -4.4457661500    -1.6731319999    -0.5941243337
   38      O      -4.9503817913    -1.1732689019     0.7037391176
   39      H      -4.2293922322     1.5542209697    -1.1437568599
   40      H      -3.5135557464    -0.4420741299    -2.1812505215
   41      H      -1.1224664911     2.7255558813     1.7510410011
   42      H      -5.8761129192     0.7324356043     0.9711244937
   43      H      -7.3959742014    -0.4159994930    -0.6544235667
   44      H      -6.3929748645     0.5167149669    -1.8060313218
   45      H      -6.3798759386    -2.4647102740    -1.3277229545
   46      H      -5.4630743713    -1.5868769340    -2.5916106990
   47      H      -3.9880726039    -2.6754553015    -0.4828661011
   48      H      -2.6528831403     3.3195343605     2.4861811247
   49      H      -1.8145333164     4.3087154868     1.2243245998
   50      H       3.0413042032    -1.2265945155     3.6290316278
   51      H       2.0992828891     0.3169633586     3.7155221247
   52      H       3.8946183304     0.3703747321     3.5704768058
   53      H       1.0171038162    -1.4726280015     1.8355300536
   54      H      -0.4110234073    -2.1924753541     1.0109698529
   55      H      -0.2831440176     0.4017921272     1.6711079347
   56      H       0.7000980173     0.5811325941     0.1816237785
 ----------------------------------------------------------------

    9   -1510.2355057251      7.40E-09 Convergence criterion met
 Total energy in the final basis set = -1510.23550573
 Final energy is   -1510.23550572511
 **  OPTIMIZATION CONVERGED  **

                    Orbital Energies (a.u.)
 --------------------------------------------------------------

 Alpha MOs
 -- Occupied --
-18.951 -18.939 -18.924 -18.900 -18.890 -18.888 -18.887 -18.887
-18.880 -18.859 -10.111 -10.107 -10.105 -10.093 -10.076 -10.075
-10.075 -10.065 -10.060 -10.060 -10.059 -10.059 -10.049 -10.037
-10.037 -10.034 -10.025 -10.022 -10.020 -10.019  -1.026  -1.015
 -1.000  -0.997  -0.975  -0.970  -0.949  -0.943  -0.929  -0.925
 -0.768  -0.762  -0.729  -0.726  -0.712  -0.705  -0.700  -0.672
 -0.660  -0.619  -0.604  -0.592  -0.551  -0.543  -0.540  -0.537
 -0.516  -0.511  -0.493  -0.475  -0.468  -0.457  -0.450  -0.448
 -0.439  -0.433  -0.430  -0.419  -0.418  -0.413  -0.407  -0.406
 -0.395  -0.388  -0.382  -0.371  -0.365  -0.361  -0.356  -0.350
 -0.348  -0.337  -0.335  -0.333  -0.330  -0.327  -0.323  -0.317
 -0.314  -0.312  -0.306  -0.303  -0.299  -0.292  -0.287  -0.280
 -0.273  -0.260  -0.248  -0.242  -0.239  -0.233  -0.219  -0.191
 -0.178  -0.168  -0.166  -0.164  -0.152  -0.149  -0.146  -0.143
 -0.139

          Ground-State Mulliken Net Atomic Charges

     Atom                 Charge (a.u.)
  ----------------------------------------
      1 O                    -0.224646
      2 C                     0.218290
      3 C                    -0.079561
      4 C                    -0.079552
      5 C                     0.213605
      6 O                    -0.174545
      7 C                    -0.054852
      8 C                    -0.038948
      9 O                    -0.193630
     10 C                     0.225744
     11 C                    -0.085068
     12 C                    -0.080311
     13 C                     0.208920
     14 O                    -0.211188
     15 O                    -0.173640
     16 O                    -0.170454
     17 O                    -0.187158
     18 C                    -0.128205
     19 C                     0.022581
     20 C                    -0.141243
     21 C                    -0.146073
     22 C                     0.024607
     23 O                    -0.192852
     24 H                     0.082672
     25 H                     0.085779
     26 H                     0.094486
     27 H                     0.079094
     28 H                     0.075012
     29 H                     0.079773
     30 H                     0.073829
     31 H                     0.088112
     32 O                    -0.204760
     33 C                    -0.128457
     34 C                     0.025583
     35 C                    -0.145300
     36 C                    -0.142371
     37 C                     0.025019
     38 O                    -0.186565
     39 H                     0.085079
     40 H                     0.083748
     41 H                     0.082433
     42 H                     0.082656
     43 H                     0.077976
     44 H                     0.073319
     45 H                     0.078495
     46 H                     0.073873
     47 H                     0.087689
     48 H                     0.087366
     49 H                     0.087951
     50 H                     0.096259
     51 H                     0.088463
     52 H                     0.097629
     53 H                     0.089396
     54 H                     0.100013
     55 H                     0.089514
     56 H                     0.084412
  ----------------------------------------
  Sum of atomic charges =     0.000000

                    Cartesian Multipole Moments
 -----------------------------------------------------------------
    Charge (ESU x 10^10)
                -0.0000
    Dipole Moment (Debye)
         X      -0.9557      Y       2.7085      Z      -1.4745
       Tot       3.2285
    Quadrupole Moments (Debye-Ang)
        XX    -159.1063     XY       1.5769     YY    -168.8440
        XZ       3.6066     YZ      -2.3091     ZZ    -152.6946

 Total job time:  100.63s(wall), 4796.89s(cpu)
        *  Thank you very much for using Q-Chem.  Have a nice day.  *
