 Q-Chem 5.0, Q-Chem, Inc., Pleasanton, CA (2017)
 Q-Chem 5.0.1 for Intel X86 EM64T Linux

User input:
--------------------------------------------------------------
$molecule
0  1
O -3.0416485288 0.8317066316 1.9275076015
C -3.2450940064 1.3447478702 0.8063535765
C -4.0583948437 0.7515869352 -0.4059575808
C -3.4379838201 -0.5401556273 -1.081536775
C -1.9311490597 -0.880730834 -0.7809545639
O -1.3388736597 0.21496523 -0.0905455417
C -0.083992977 -0.0279719887 0.6649738397
C 0.4471988428 -1.5019656447 0.8821468007
O 1.2677892027 -2.0844512013 -0.1813547916
C 2.6999951423 -1.8311351775 -0.2134152522
C 3.2561616534 -0.5168156574 -0.9117628633
C 2.9801267641 0.9337308535 -0.3591019802
C 2.9033692522 1.0396767342 1.2144248815
O 3.0274888453 2.0844702674 1.8895039841
O -2.8272476812 2.6708465713 0.4398147724
O 2.8709804297 -0.268557637 1.7941327469
O 3.4653368689 -2.7810351028 0.065001692
C 2.9830970764 -0.1830925369 3.2684019149
C 4.8388231802 -0.4984289016 -1.0787949006
C 5.1356102837 0.1205085122 -2.4973298439
C 4.6514488291 1.6010551273 -2.2618865058
C 4.3863059436 1.6013190996 -0.7034726644
O 5.3083497969 0.5706411354 -0.1656359447
H 2.8039514092 -0.5558171788 -1.9231523408
H 2.1304168437 1.4414421285 -0.8475817473
H 5.3245539869 -1.4656632515 -0.843923996
H 6.2154465628 0.0818468057 -2.713809353
H 4.5902153638 -0.3881856621 -3.3082218378
H 5.4298430139 2.3349079251 -2.5231665965
H 3.7376567281 1.8406748586 -2.8294464956
H 4.5453992933 2.5717864884 -0.1934647786
O -1.354695251 -1.9357124375 -1.1204707076
C -2.0609477655 3.2809826435 1.5488567416
C -5.4067957638 0.1317668982 0.1682367648
C -6.3702174935 -0.2589382173 -1.0234615215
C -5.7202857335 -1.6035068711 -1.5206056933
C -4.44576615 -1.6731319999 -0.5941243337
O -4.9503817913 -1.1732689019 0.7037391176
H -4.2293922322 1.5542209697 -1.1437568599
H -3.5135557464 -0.4420741299 -2.1812505215
H -1.1224664911 2.7255558813 1.7510410011
H -5.8761129192 0.7324356043 0.9711244937
H -7.3959742014 -0.415999493 -0.6544235667
H -6.3929748645 0.5167149669 -1.8060313218
H -6.3798759386 -2.464710274 -1.3277229545
H -5.4630743713 -1.586876934 -2.591610699
H -3.9880726039 -2.6754553015 -0.4828661011
H -2.6528831403 3.3195343605 2.4861811247
H -1.8145333164 4.3087154868 1.2243245998
H 3.0413042032 -1.2265945155 3.6290316278
H 2.0992828891 0.3169633586 3.7155221247
H 3.8946183304 0.3703747321 3.5704768058
H 1.0171038162 -1.4726280015 1.8355300536
H -0.4110234073 -2.1924753541 1.0109698529
H -0.2831440176 0.4017921272 1.6711079347
H 0.7000980173 0.5811325941 0.1816237785
$end

$rem
JOBTYPE                   OPT
METHOD                    B3LYP
DFT_D                     d3_op
BASIS                     STO-3G
GEOM_OPT_MAX_CYCLES       100
GEOM_OPT_TOL_GRADIENT     300
GEOM_OPT_TOL_DISPLACEMENT 1200
GEOM_OPT_TOL_ENERGY       100
SYMMETRY                  False
THRESH                    12
SCF_CONVERGENCE           8
MAX_SUB_FILE_NUM          128
MEM_STATIC                400
MEM_TOTAL                 4000
$end
--------------------------------------------------------------

   16   -1510.2354879296      5.73E-09 Convergence criterion met
 Total energy in the final basis set = -1510.23548793
   14   -1510.2385572346      6.54E-09 Convergence criterion met
 Total energy in the final basis set = -1510.23855723
   14   -1510.2426177816      5.59E-09 Convergence criterion met
 Total energy in the final basis set = -1510.24261778
   14   -1510.2462606429      7.95E-09 Convergence criterion met
 Total energy in the final basis set = -1510.24626064
   14   -1510.2498309288      6.55E-09 Convergence criterion met
 Total energy in the final basis set = -1510.24983093
   14   -1510.2524594765      5.24E-09 Convergence criterion met
 Total energy in the final basis set = -1510.25245948
   14   -1510.2548613278      4.09E-09 Convergence criterion met
 Total energy in the final basis set = -1510.25486133
   13   -1510.2574358487      9.98E-09 Convergence criterion met
   11   -1510.2764823540      9.07E-09 Convergence criterion met
 Total energy in the final basis set = -1510.27648235
   11   -1510.2764875693      4.87E-09 Convergence criterion met
 Total energy in the final basis set = -1510.27648757
   12   -1510.2764875399      2.64E-09 Convergence criterion met
 Total energy in the final basis set = -1510.27648754
   11   -1510.2764950978      8.05E-09 Convergence criterion met
 Total energy in the final basis set = -1510.27649510
   11   -1510.2764994203      4.15E-09 Convergence criterion met
 Total energy in the final basis set = -1510.27649942
   10   -1510.2765025589      9.30E-09 Convergence criterion met
 Total energy in the final basis set = -1510.27650256

             Standard Nuclear Orientation (Angstroms)
    I     Atom           X                Y                Z
 ----------------------------------------------------------------
    1      O      -2.3960984746     1.4271489739     0.7523987212
    2      C      -3.1976477241     1.3573201609    -0.2081832421
    3      C      -4.2703515887     0.2497494712    -0.4898415591
    4      C      -3.6582011940    -1.1511367696    -0.9234317720
    5      C      -2.0892910380    -1.1998921694    -0.9663840310
    6      O      -1.6159289040    -0.0214848661    -1.6357686608
    7      C      -0.1399092399     0.0736067757    -1.5402174778
    8      C       0.3113801079     0.5735049371    -0.1033404870
    9      O       0.7170323260    -0.5286989803     0.7888001474
   10      C       2.0923587267    -0.9377737146     0.6994290148
   11      C       3.0155120747    -0.3910037725    -0.4679236875
   12      C       3.9725643505     0.8001908443    -0.0290888255
   13      C       3.8654069718     1.1528850593     1.4989648339
   14      O       4.7830215718     1.1776938283     2.3448873827
   15      O      -3.3172756665     2.3596331268    -1.2235525503
   16      O       2.4945523167     1.4506989815     1.7804388705
   17      O       2.4927983779    -1.7618655003     1.5509123964
   18      C       2.2881061794     1.6492889579     3.2320417731
   19      C       4.0933097206    -1.4894692161    -0.8735829177
   20      C       4.6790285590    -1.1010551485    -2.2887999846
   21      C       5.5905473812     0.1251669221    -1.9117031630
   22      C       5.3937660399     0.1823275762    -0.3457673917
   23      O       5.2254902367    -1.2368297168     0.0443881547
   24      H       2.4188884987    -0.1047013417    -1.3469474395
   25      H       3.7665620312     1.7125428308    -0.6196230463
   26      H       3.7405110755    -2.5340421704    -0.7732685658
   27      H       5.2736377688    -1.9335560967    -2.6974232720
   28      H       3.8906673113    -0.8420543112    -3.0135407831
   29      H       6.6465034726    -0.0623052230    -2.1626262896
   30      H       5.2718757178     1.0585904480    -2.4028196979
   31      H       6.2185976210     0.6452915319     0.2299050207
   32      O      -1.3489577927    -2.1058163381    -0.5319484272
   33      C      -2.2994454504     3.4158215604    -1.0190438271
   34      C      -5.0433898955    -0.1712415248     0.8341236993
   35      C      -6.3506677274    -0.9540357743     0.4157014689
   36      C      -5.7480109821    -2.3427324114    -0.0169522628
   37      C      -4.2085178377    -2.0947762083     0.2250511300
   38      O      -4.1795950997    -1.2202878515     1.4204153871
   39      H      -4.9570250531     0.6359267594    -1.2633987355
   40      H      -4.0403495377    -1.4494584623    -1.9177005410
   41      H      -1.2801935035     3.0387104432    -1.2399786407
   42      H      -5.1958073039     0.6526071674     1.5578709091
   43      H      -7.0283265670    -1.0590909179     1.2778140086
   44      H      -6.8929379357    -0.4520002643    -0.4015910319
   45      H      -6.1116003864    -3.1586876580     0.6276321757
   46      H      -5.9690564635    -2.5960923408    -1.0661795098
   47      H      -3.5903345690    -2.9989421560     0.3905463097
   48      H      -2.3141991109     3.8025218134     0.0201186508
   49      H      -2.5510029966     4.2279679171    -1.7254133802
   50      H       1.2181828655     1.8988255492     3.3551535409
   51      H       2.9154551325     2.4753697964     3.6244920752
   52      H       2.5193205067     0.7241203346     3.7984174474
   53      H       1.1022574486     1.3457789585    -0.1861197090
   54      H      -0.5853345129     1.0289186500     0.3844904915
   55      H       0.1529780575     0.8107999317    -2.3148684545
   56      H       0.3256363092    -0.9094282741    -1.7670543747
 ----------------------------------------------------------------

    9   -1510.2765027713      8.25E-09 Convergence criterion met
 Total energy in the final basis set = -1510.27650277
 Final energy is   -1510.27650277126
 **  OPTIMIZATION CONVERGED  **

                    Orbital Energies (a.u.)
 --------------------------------------------------------------

 Alpha MOs
 -- Occupied --
-18.941 -18.939 -18.934 -18.921 -18.889 -18.886 -18.885 -18.879
-18.878 -18.860 -10.107 -10.105 -10.100 -10.089 -10.076 -10.071
-10.062 -10.061 -10.059 -10.059 -10.057 -10.056 -10.042 -10.041
-10.039 -10.034 -10.022 -10.021 -10.020 -10.019  -1.021  -1.013
 -1.012  -0.992  -0.971  -0.967  -0.944  -0.940  -0.937  -0.924
 -0.766  -0.762  -0.727  -0.722  -0.710  -0.702  -0.700  -0.670
 -0.660  -0.614  -0.600  -0.589  -0.549  -0.545  -0.540  -0.536
 -0.514  -0.506  -0.485  -0.477  -0.465  -0.459  -0.455  -0.452
 -0.433  -0.430  -0.427  -0.422  -0.417  -0.412  -0.409  -0.407
 -0.394  -0.386  -0.374  -0.373  -0.367  -0.356  -0.354  -0.351
 -0.348  -0.345  -0.334  -0.332  -0.328  -0.328  -0.313  -0.312
 -0.308  -0.306  -0.302  -0.297  -0.291  -0.288  -0.287  -0.276
 -0.274  -0.259  -0.254  -0.251  -0.235  -0.232  -0.229  -0.189
 -0.182  -0.178  -0.165  -0.156  -0.155  -0.151  -0.145  -0.141
 -0.135

          Ground-State Mulliken Net Atomic Charges

     Atom                 Charge (a.u.)
  ----------------------------------------
      1 O                    -0.221097
      2 C                     0.219345
      3 C                    -0.079250
      4 C                    -0.078087
      5 C                     0.213202
      6 O                    -0.176745
      7 C                    -0.055775
      8 C                    -0.064260
      9 O                    -0.163932
     10 C                     0.208156
     11 C                    -0.085915
     12 C                    -0.079863
     13 C                     0.212061
     14 O                    -0.204931
     15 O                    -0.165716
     16 O                    -0.175521
     17 O                    -0.204338
     18 C                    -0.127368
     19 C                     0.026329
     20 C                    -0.144241
     21 C                    -0.144839
     22 C                     0.024615
     23 O                    -0.184511
     24 H                     0.073442
     25 H                     0.079375
     26 H                     0.088205
     27 H                     0.078617
     28 H                     0.069844
     29 H                     0.078603
     30 H                     0.070793
     31 H                     0.090240
     32 O                    -0.198143
     33 C                    -0.128769
     34 C                     0.025760
     35 C                    -0.143843
     36 C                    -0.144089
     37 C                     0.024656
     38 O                    -0.184980
     39 H                     0.086541
     40 H                     0.085570
     41 H                     0.084090
     42 H                     0.084057
     43 H                     0.078760
     44 H                     0.073215
     45 H                     0.079370
     46 H                     0.072996
     47 H                     0.093072
     48 H                     0.091944
     49 H                     0.091109
     50 H                     0.094946
     51 H                     0.088655
     52 H                     0.096528
     53 H                     0.083768
     54 H                     0.112908
     55 H                     0.083278
     56 H                     0.092163
  ----------------------------------------
  Sum of atomic charges =     0.000000

                    Cartesian Multipole Moments
 -----------------------------------------------------------------
    Charge (ESU x 10^10)
                 0.0000
    Dipole Moment (Debye)
         X      -2.9739      Y       3.6692      Z      -4.8334
       Tot       6.7579
    Quadrupole Moments (Debye-Ang)
        XX    -155.7718     XY       8.4126     YY    -156.7906
        XZ      -9.1624     YZ       6.5023     ZZ    -160.5621

 Total job time:  100.35s(wall), 4782.92s(cpu)
        *  Thank you very much for using Q-Chem.  Have a nice day.  *
