 Q-Chem 5.0, Q-Chem, Inc., Pleasanton, CA (2017)
 Q-Chem 5.0.1 for Intel X86 EM64T Linux

User input:
--------------------------------------------------------------
$molecule
0  1
O -3.94934 -3.66094 2.70899
C -3.26408 -4.56952 2.26188
C -3.36658 -6.02376 2.66595
C -3.41669 -6.33291 4.1712
C -3.53792 -5.14515 5.09996
O -2.33275 -4.89365 5.69135
C -1.36374 -5.9202 5.45372
C -0.65272 -5.67489 4.12692
O 0.76498 -5.58803 4.34014
C 1.53284 -5.7724 3.23762
C 3.01154 -5.66918 3.52649
C 3.3625 -5.15739 4.93119
C 2.2313 -5.16687 5.93966
O 1.05598 -5.38602 5.6844
O -2.28088 -4.26804 1.37309
O 2.56847 -4.84846 7.21744
O 1.09772 -6.09867 2.14015
C 1.67232 -4.78921 8.26418
C 3.74043 -7.02174 3.50814
C 5.22593 -6.79628 3.23384
C 5.66109 -6.15938 4.53885
C 4.3593 -6.25992 5.34328
O 3.74549 -7.42925 4.85389
H 3.4331 -4.99423 2.74762
H 3.80674 -4.13783 4.93143
H 3.3133 -7.74253 2.77717
H 5.69782 -7.80196 3.1544
H 5.45878 -6.20957 2.31925
H 6.45386 -6.7958 4.99115
H 6.01264 -5.10768 4.46168
H 4.58204 -6.25028 6.43289
O -4.51334 -4.42291 5.25137
C -2.00616 -2.99534 0.91932
C -4.7385 -6.52988 2.18221
C -4.76424 -8.05968 2.1355
C -4.92946 -8.36645 3.60137
C -4.86274 -6.94929 4.19135
O -5.58539 -6.20349 3.24708
H -2.57432 -6.58134 2.12207
H -2.94452 -7.28585 4.45849
H -1.72364 -2.33906 1.77015
H -5.02109 -6.11701 1.18768
H -5.66855 -8.41813 1.5948
H -3.85071 -8.47993 1.66189
H -5.96617 -8.7397 3.76577
H -4.21299 -9.10529 4.02036
H -5.30665 -6.97925 5.21353
H -2.89268 -2.57522 0.39788
H -1.15831 -3.03912 0.20541
H 2.2131 -4.5079 9.19089
H 1.19467 -5.781 8.41492
H 0.89262 -4.02497 8.05792
H -0.88091 -6.54003 3.47481
H -0.96771 -4.71499 3.66679
H -1.53198 -6.97013 5.77855
H -0.83293 -5.7779 6.40377
$end

$opt
CONSTRAINT
tors           1           2           3           4     -47.368
tors           3           4           5           6    -104.211
tors           4           5           6           7      -9.474
tors           5           6           7           8     +85.263
tors           6           7           8           9    +123.158
tors           7           8           9          10    +161.053
tors           8           9          10          11    -180.000
tors           9          10          11          12      -9.474
tors          11          12          13          14      -9.474
ENDCONSTRAINT
$end

$rem
JOBTYPE                   OPT
METHOD                    B3LYP
DFT_D                     d3_op
BASIS                     STO-3G
GEOM_OPT_MAX_CYCLES       100
GEOM_OPT_TOL_GRADIENT     300
GEOM_OPT_TOL_DISPLACEMENT 1200
GEOM_OPT_TOL_ENERGY       100
SYMMETRY                  False
THRESH                    12
SCF_CONVERGENCE           8
MAX_SUB_FILE_NUM          128
MEM_STATIC                400
MEM_TOTAL                 4000
$end
--------------------------------------------------------------

   22   -1509.7427054697      7.72E-09 Convergence criterion met
 Total energy in the final basis set = -1509.74270547
   16   -1509.8951841626      8.05E-09 Convergence criterion met
 Total energy in the final basis set = -1509.89518416
   15   -1510.0187016238      9.10E-09 Convergence criterion met
 Total energy in the final basis set = -1510.01870162
   15   -1510.1033824369      3.72E-09 Convergence criterion met
 Total energy in the final basis set = -1510.10338244
   14   -1510.1586165652      9.37E-09 Convergence criterion met
 Total energy in the final basis set = -1510.15861657
   13   -1510.1952707561      8.37E-09 Convergence criterion met
 Total energy in the final basis set = -1510.19527076
   13   -1510.2185548869      8.31E-09 Convergence criterion met
 Total energy in the final basis set = -1510.21855489
   12   -1510.2331396196      9.59E-09 Convergence criterion met
   12   -1510.2552033949      4.15E-09 Convergence criterion met
 Total energy in the final basis set = -1510.25520339
   12   -1510.2552396085      2.45E-09 Convergence criterion met
 Total energy in the final basis set = -1510.25523961
   11   -1510.2552467562      6.54E-09 Convergence criterion met
 Total energy in the final basis set = -1510.25524676
   10   -1510.2552563123      8.24E-09 Convergence criterion met
 Total energy in the final basis set = -1510.25525631
   10   -1510.2552655665      7.48E-09 Convergence criterion met
 Total energy in the final basis set = -1510.25526557
   10   -1510.2552712189      6.45E-09 Convergence criterion met
 Total energy in the final basis set = -1510.25527122

             Standard Nuclear Orientation (Angstroms)
    I     Atom           X                Y                Z
 ----------------------------------------------------------------
    1      O       3.4806217185    -0.2350749200    -2.0419639655
    2      C       3.2772768903     0.7170799209    -1.2588669191
    3      C       3.5877337852     0.8086159106     0.2725102768
    4      C       3.1120218729    -0.4495694244     1.1174534559
    5      C       2.7310987258    -1.7048901622     0.2279612467
    6      O       1.3435767741    -2.0457614005     0.0133305820
    7      C       0.3524108627    -1.3137782549     0.8245477511
    8      C      -0.0489578200     0.0663216275     0.1694503304
    9      O      -1.5181847731     0.0503667484    -0.0101979284
   10      C      -2.0218585116     1.3740861583    -0.1778109005
   11      C      -3.5866001198     1.3573083138    -0.3691551994
   12      C      -4.2901627705    -0.0410555169    -0.5764527385
   13      C      -3.5288657814    -1.1503024490    -1.3852394599
   14      O      -2.4775276613    -1.0679759386    -2.0531170138
   15      O       2.6627506924     1.9529489354    -1.6509537159
   16      O      -4.2857753852    -2.3610302303    -1.2392417762
   17      O      -1.3112167918     2.4030384678    -0.1348566021
   18      C      -3.6262241790    -3.4618264102    -1.9779518324
   19      C      -4.1569939132     1.6952839650     1.0826835395
   20      C      -5.7348959635     1.8045439027     1.0677601672
   21      C      -6.1570884811     0.2877192066     1.1124609072
   22      C      -4.7518792301    -0.3974089684     0.9104611474
   23      O      -3.8802001705     0.4176987120     1.7869264930
   24      H      -3.8677312341     2.0992818749    -1.1369884375
   25      H      -5.2079704365     0.1433583718    -1.1684320999
   26      H      -3.6362915186     2.5356024379     1.5823904975
   27      H      -6.0943941936     2.3566541246     1.9502068341
   28      H      -6.0976911418     2.3170541249     0.1621540139
   29      H      -6.5757102030     0.0176098014     2.0954542398
   30      H      -6.8814994896     0.0160430151     0.3282762476
   31      H      -4.6906028212    -1.4714677583     1.1716340515
   32      O       3.5741890366    -2.4681815243    -0.2879418182
   33      C       2.3167316426     1.9104638779    -3.0909472915
   34      C       5.1440392916     0.8397990302     0.6109763036
   35      C       5.2994890150     1.4890957588     2.0419230825
   36      C       4.7541903656     0.3268701372     2.9532769116
   37      C       4.4636752539    -0.7979660571     1.8804604172
   38      O       5.4939096721    -0.5771005970     0.8413953153
   39      H       3.0975057106     1.7267428573     0.6415299412
   40      H       2.3121825777    -0.1723225233     1.8192099254
   41      H       1.6562126094     1.0508198354    -3.3255037678
   42      H       5.7823045543     1.2748966847    -0.1822244625
   43      H       6.3594002568     1.7035783308     2.2525819892
   44      H       4.7206656371     2.4210382190     2.1436198935
   45      H       5.5124857684    -0.0140245256     3.6759380873
   46      H       3.8445734881     0.6134771045     3.5051154565
   47      H       4.5160168830    -1.8370610177     2.2587207544
   48      H       3.2230384376     1.8395713981    -3.7266177582
   49      H       1.7862821616     2.8562362186    -3.3056721092
   50      H      -4.2367875989    -4.3642584736    -1.7900797956
   51      H      -2.5905388954    -3.6322466143    -1.6193037433
   52      H      -3.5900848333    -3.2603246326    -3.0681947701
   53      H       0.2568600296     0.9364262695     0.7887328965
   54      H       0.4520232362     0.1597926155    -0.8201961453
   55      H       0.6596109733    -1.1884978254     1.8821728456
   56      H      -0.5528250427    -1.9576139525     0.8095838396
 ----------------------------------------------------------------

    9   -1510.2552720797      7.68E-09 Convergence criterion met
 Total energy in the final basis set = -1510.25527208
 Final energy is   -1510.25527207968
 **  OPTIMIZATION CONVERGED  **

                    Orbital Energies (a.u.)
 --------------------------------------------------------------

 Alpha MOs
 -- Occupied --
-18.937 -18.933 -18.931 -18.927 -18.890 -18.890 -18.876 -18.876
-18.872 -18.871 -10.101 -10.100 -10.096 -10.094 -10.078 -10.073
-10.064 -10.063 -10.063 -10.062 -10.061 -10.060 -10.042 -10.039
-10.039 -10.038 -10.025 -10.023 -10.022 -10.021  -1.016  -1.010
 -1.008  -0.999  -0.974  -0.971  -0.940  -0.935  -0.933  -0.929
 -0.766  -0.764  -0.728  -0.722  -0.711  -0.706  -0.703  -0.662
 -0.661  -0.612  -0.600  -0.591  -0.549  -0.546  -0.541  -0.540
 -0.517  -0.512  -0.492  -0.477  -0.466  -0.461  -0.454  -0.442
 -0.438  -0.433  -0.424  -0.413  -0.410  -0.410  -0.408  -0.404
 -0.391  -0.387  -0.380  -0.372  -0.367  -0.361  -0.352  -0.346
 -0.344  -0.341  -0.336  -0.334  -0.330  -0.318  -0.317  -0.314
 -0.309  -0.306  -0.302  -0.301  -0.299  -0.295  -0.283  -0.277
 -0.274  -0.257  -0.255  -0.248  -0.238  -0.237  -0.233  -0.183
 -0.176  -0.172  -0.167  -0.154  -0.153  -0.152  -0.145  -0.145
 -0.137

          Ground-State Mulliken Net Atomic Charges

     Atom                 Charge (a.u.)
  ----------------------------------------
      1 O                    -0.203198
      2 C                     0.201295
      3 C                    -0.081315
      4 C                    -0.086238
      5 C                     0.207028
      6 O                    -0.169662
      7 C                    -0.048492
      8 C                    -0.050362
      9 O                    -0.164976
     10 C                     0.213343
     11 C                    -0.076597
     12 C                    -0.080087
     13 C                     0.212523
     14 O                    -0.207474
     15 O                    -0.170421
     16 O                    -0.175070
     17 O                    -0.219728
     18 C                    -0.129040
     19 C                     0.023508
     20 C                    -0.145924
     21 C                    -0.140937
     22 C                     0.025834
     23 O                    -0.193084
     24 H                     0.086948
     25 H                     0.083182
     26 H                     0.084019
     27 H                     0.078768
     28 H                     0.074209
     29 H                     0.078048
     30 H                     0.074918
     31 H                     0.089003
     32 O                    -0.186469
     33 C                    -0.129673
     34 C                     0.027148
     35 C                    -0.142886
     36 C                    -0.145370
     37 C                     0.027623
     38 O                    -0.180760
     39 H                     0.085680
     40 H                     0.076616
     41 H                     0.091305
     42 H                     0.085093
     43 H                     0.078857
     44 H                     0.074109
     45 H                     0.078841
     46 H                     0.071507
     47 H                     0.085911
     48 H                     0.088668
     49 H                     0.091665
     50 H                     0.089649
     51 H                     0.091288
     52 H                     0.088148
     53 H                     0.089545
     54 H                     0.091316
     55 H                     0.082268
     56 H                     0.099897
  ----------------------------------------
  Sum of atomic charges =    -0.000000

                    Cartesian Multipole Moments
 -----------------------------------------------------------------
    Charge (ESU x 10^10)
                -0.0000
    Dipole Moment (Debye)
         X      -3.7886      Y       2.3694      Z       1.8672
       Tot       4.8430
    Quadrupole Moments (Debye-Ang)
        XX    -155.1718     XY      13.6772     YY    -162.7546
        XZ      11.4498     YZ      -4.0237     ZZ    -153.8715

 Total job time:  124.01s(wall), 5909.13s(cpu)
        *  Thank you very much for using Q-Chem.  Have a nice day.  *
