 Q-Chem 5.0, Q-Chem, Inc., Pleasanton, CA (2017)
 Q-Chem 5.0.1 for Intel X86 EM64T Linux

User input:
--------------------------------------------------------------
$molecule
0  1
O 3.4806217185 -0.23507492 -2.0419639655
C 3.2772768903 0.7170799209 -1.2588669191
C 3.5877337852 0.8086159106 0.2725102768
C 3.1120218729 -0.4495694244 1.1174534559
C 2.7310987258 -1.7048901622 0.2279612467
O 1.3435767741 -2.0457614005 0.013330582
C 0.3524108627 -1.3137782549 0.8245477511
C -0.04895782 0.0663216275 0.1694503304
O -1.5181847731 0.0503667484 -0.0101979284
C -2.0218585116 1.3740861583 -0.1778109005
C -3.5866001198 1.3573083138 -0.3691551994
C -4.2901627705 -0.0410555169 -0.5764527385
C -3.5288657814 -1.150302449 -1.3852394599
O -2.4775276613 -1.0679759386 -2.0531170138
O 2.6627506924 1.9529489354 -1.6509537159
O -4.2857753852 -2.3610302303 -1.2392417762
O -1.3112167918 2.4030384678 -0.1348566021
C -3.626224179 -3.4618264102 -1.9779518324
C -4.1569939132 1.695283965 1.0826835395
C -5.7348959635 1.8045439027 1.0677601672
C -6.1570884811 0.2877192066 1.1124609072
C -4.7518792301 -0.3974089684 0.9104611474
O -3.8802001705 0.417698712 1.786926493
H -3.8677312341 2.0992818749 -1.1369884375
H -5.2079704365 0.1433583718 -1.1684320999
H -3.6362915186 2.5356024379 1.5823904975
H -6.0943941936 2.3566541246 1.9502068341
H -6.0976911418 2.3170541249 0.1621540139
H -6.575710203 0.0176098014 2.0954542398
H -6.8814994896 0.0160430151 0.3282762476
H -4.6906028212 -1.4714677583 1.1716340515
O 3.5741890366 -2.4681815243 -0.2879418182
C 2.3167316426 1.9104638779 -3.0909472915
C 5.1440392916 0.8397990302 0.6109763036
C 5.299489015 1.4890957588 2.0419230825
C 4.7541903656 0.3268701372 2.9532769116
C 4.4636752539 -0.7979660571 1.8804604172
O 5.4939096721 -0.577100597 0.8413953153
H 3.0975057106 1.7267428573 0.6415299412
H 2.3121825777 -0.1723225233 1.8192099254
H 1.6562126094 1.0508198354 -3.3255037678
H 5.7823045543 1.2748966847 -0.1822244625
H 6.3594002568 1.7035783308 2.2525819892
H 4.7206656371 2.421038219 2.1436198935
H 5.5124857684 -0.0140245256 3.6759380873
H 3.8445734881 0.6134771045 3.5051154565
H 4.516016883 -1.8370610177 2.2587207544
H 3.2230384376 1.8395713981 -3.7266177582
H 1.7862821616 2.8562362186 -3.3056721092
H -4.2367875989 -4.3642584736 -1.7900797956
H -2.5905388954 -3.6322466143 -1.6193037433
H -3.5900848333 -3.2603246326 -3.0681947701
H 0.2568600296 0.9364262695 0.7887328965
H 0.4520232362 0.1597926155 -0.8201961453
H 0.6596109733 -1.1884978254 1.8821728456
H -0.5528250427 -1.9576139525 0.8095838396
$end

$rem
JOBTYPE                   OPT
METHOD                    B3LYP
DFT_D                     d3_op
BASIS                     STO-3G
GEOM_OPT_MAX_CYCLES       100
GEOM_OPT_TOL_GRADIENT     300
GEOM_OPT_TOL_DISPLACEMENT 1200
GEOM_OPT_TOL_ENERGY       100
SYMMETRY                  False
THRESH                    12
SCF_CONVERGENCE           8
MAX_SUB_FILE_NUM          128
MEM_STATIC                400
MEM_TOTAL                 4000
$end
--------------------------------------------------------------

   16   -1510.2552730272      6.01E-09 Convergence criterion met
 Total energy in the final basis set = -1510.25527303
   14   -1510.2586708840      8.36E-09 Convergence criterion met
 Total energy in the final basis set = -1510.25867088
   14   -1510.2608675071      5.44E-09 Convergence criterion met
 Total energy in the final basis set = -1510.26086751
   14   -1510.2634700559      2.87E-09 Convergence criterion met
 Total energy in the final basis set = -1510.26347006
   14   -1510.2656721944      6.53E-09 Convergence criterion met
 Total energy in the final basis set = -1510.26567219
   14   -1510.2658754110      3.21E-09 Convergence criterion met
 Total energy in the final basis set = -1510.26587541
   13   -1510.2685977121      6.53E-09 Convergence criterion met
 Total energy in the final basis set = -1510.26859771
   13   -1510.2699882456      4.44E-09 Convergence criterion met
   12   -1510.2904798773      5.15E-09 Convergence criterion met
 Total energy in the final basis set = -1510.29047988
   11   -1510.2904974906      7.72E-09 Convergence criterion met
 Total energy in the final basis set = -1510.29049749
   12   -1510.2905138698      3.08E-09 Convergence criterion met
 Total energy in the final basis set = -1510.29051387
   11   -1510.2905117424      7.48E-09 Convergence criterion met
 Total energy in the final basis set = -1510.29051174
   10   -1510.2905188816      6.12E-09 Convergence criterion met
 Total energy in the final basis set = -1510.29051888
   11   -1510.2905231159      3.33E-09 Convergence criterion met
 Total energy in the final basis set = -1510.29052312

             Standard Nuclear Orientation (Angstroms)
    I     Atom           X                Y                Z
 ----------------------------------------------------------------
    1      O       3.3920063692    -0.8501862358    -2.6609016881
    2      C       2.8032330677    -0.3166265959    -1.6990234313
    3      C       3.4341089459     0.5558148634    -0.5559218337
    4      C       3.0596445383     0.0679488722     0.9087715628
    5      C       2.0720350840    -1.1645002297     0.9359209894
    6      O       0.7507551217    -1.0332392434     1.5163207939
    7      C       0.2544475659     0.3350208876     1.7804172443
    8      C      -0.1305245692     1.1062751073     0.4648657027
    9      O      -1.5951959062     0.9268926793     0.3047948928
   10      C      -2.1004131575     1.7276459909    -0.7657269565
   11      C      -3.6452299052     1.4811972859    -0.8522939035
   12      C      -4.0592699821    -0.0507892780    -0.7539897453
   13      C      -2.8173248918    -1.0167046735    -0.7628842383
   14      O      -2.0725420318    -1.1871358651    -1.7590351627
   15      O       1.3945737809    -0.4123584959    -1.4677934315
   16      O      -2.7202894222    -1.7261619383     0.4611140598
   17      O      -1.4059781461     2.5013543153    -1.4596455667
   18      C      -1.5252153387    -2.6106567647     0.4756870301
   19      C      -4.3841665984     2.0596825923     0.4341634977
   20      C      -5.9367043033     2.0998939038     0.1442000557
   21      C      -6.3123761715     0.5780900924     0.2852176589
   22      C      -4.8990302041    -0.0566292199     0.5905566302
   23      O      -4.2354547937     0.9723032608     1.4258578518
   24      H      -4.0141758755     1.9481774640    -1.7820704387
   25      H      -4.6898914546    -0.3264411880    -1.6193361882
   26      H      -3.9547654193     3.0030469036     0.8241904072
   27      H      -6.4537189252     2.7170718816     0.8960052101
   28      H      -6.1594129568     2.5021223922    -0.8569565313
   29      H      -6.9989171295     0.4095623711     1.1300962587
   30      H      -6.7680148516     0.1644832887    -0.6286489551
   31      H      -4.9130691805    -1.0308063361     1.1149471304
   32      O       2.3915139523    -2.3129047079     0.5602246556
   33      C       0.7409181052    -1.3139230064    -2.4451643024
   34      C       5.0059625744     0.3752091326    -0.5473092904
   35      C       5.6455542666     1.4928451802     0.3658507496
   36      C       5.2999216974     0.9474468656     1.8017885846
   37      C       4.4984200252    -0.3657216618     1.4422396375
   38      O       5.1873477429    -0.8697641337     0.2356539321
   39      H       3.1321288166     1.6089038680    -0.7067336349
   40      H       2.6710325861     0.9087708413     1.5015458027
   41      H       1.1768668062    -2.3308315037    -2.3830690132
   42      H       5.4431778805     0.2618742210    -1.5583720151
   43      H       6.7337710443     1.5479184992     0.2050723309
   44      H       5.2086324921     2.4854092563     0.1720452570
   45      H       6.2107985763     0.6947410907     2.3674430713
   46      H       4.6999823431     1.6553295209     2.3957932901
   47      H       4.4798891711    -1.1429078161     2.2308356988
   48      H       0.8692299702    -0.9333224021    -3.4779262994
   49      H      -0.3404407768    -1.3311194427    -2.1681926612
   50      H      -1.7496281170    -3.4131220402     1.2018775996
   51      H      -0.6205676471    -2.0425831908     0.8104163290
   52      H      -1.3455585031    -3.0497542777    -0.5247112668
   53      H       0.1190093240     2.1852845154     0.5519024647
   54      H       0.4230408349     0.6598535563    -0.4038825598
   55      H       0.9693292486     0.9226991837     2.3917768633
   56      H      -0.6674824250     0.1833444186     2.3809097756
 ----------------------------------------------------------------

    9   -1510.2905239637      4.03E-09 Convergence criterion met
 Total energy in the final basis set = -1510.29052396
 Final energy is   -1510.29052396374
 **  OPTIMIZATION CONVERGED  **

                    Orbital Energies (a.u.)
 --------------------------------------------------------------

 Alpha MOs
 -- Occupied --
-18.942 -18.941 -18.934 -18.934 -18.892 -18.889 -18.885 -18.879
-18.876 -18.868 -10.107 -10.106 -10.103 -10.099 -10.081 -10.065
-10.062 -10.062 -10.060 -10.058 -10.045 -10.044 -10.041 -10.038
-10.038 -10.037 -10.025 -10.024 -10.022 -10.020  -1.019  -1.015
 -1.008  -1.005  -0.974  -0.971  -0.944  -0.942  -0.935  -0.933
 -0.769  -0.764  -0.728  -0.727  -0.712  -0.709  -0.702  -0.655
 -0.649  -0.613  -0.604  -0.588  -0.551  -0.547  -0.542  -0.538
 -0.516  -0.515  -0.490  -0.476  -0.472  -0.467  -0.460  -0.439
 -0.436  -0.433  -0.425  -0.421  -0.416  -0.407  -0.405  -0.400
 -0.395  -0.384  -0.380  -0.374  -0.362  -0.361  -0.356  -0.354
 -0.346  -0.336  -0.334  -0.332  -0.325  -0.321  -0.319  -0.311
 -0.310  -0.308  -0.304  -0.301  -0.299  -0.294  -0.291  -0.281
 -0.275  -0.261  -0.249  -0.245  -0.241  -0.237  -0.234  -0.185
 -0.181  -0.176  -0.167  -0.160  -0.157  -0.152  -0.149  -0.147
 -0.143

          Ground-State Mulliken Net Atomic Charges

     Atom                 Charge (a.u.)
  ----------------------------------------
      1 O                    -0.200247
      2 C                     0.218469
      3 C                    -0.079439
      4 C                    -0.085000
      5 C                     0.211837
      6 O                    -0.171338
      7 C                    -0.048769
      8 C                    -0.070659
      9 O                    -0.171833
     10 C                     0.208408
     11 C                    -0.079054
     12 C                    -0.077707
     13 C                     0.222435
     14 O                    -0.231691
     15 O                    -0.178465
     16 O                    -0.165608
     17 O                    -0.213101
     18 C                    -0.147924
     19 C                     0.025434
     20 C                    -0.144062
     21 C                    -0.143973
     22 C                     0.024641
     23 O                    -0.187387
     24 H                     0.085399
     25 H                     0.083986
     26 H                     0.081016
     27 H                     0.077801
     28 H                     0.074179
     29 H                     0.077752
     30 H                     0.073403
     31 H                     0.092161
     32 O                    -0.198223
     33 C                    -0.146326
     34 C                     0.025015
     35 C                    -0.144658
     36 C                    -0.143901
     37 C                     0.026807
     38 O                    -0.183913
     39 H                     0.085037
     40 H                     0.076936
     41 H                     0.086893
     42 H                     0.092929
     43 H                     0.079994
     44 H                     0.073225
     45 H                     0.079820
     46 H                     0.071381
     47 H                     0.085957
     48 H                     0.083894
     49 H                     0.122960
     50 H                     0.083365
     51 H                     0.112601
     52 H                     0.086142
     53 H                     0.080385
     54 H                     0.116785
     55 H                     0.080595
     56 H                     0.105636
  ----------------------------------------
  Sum of atomic charges =    -0.000000

                    Cartesian Multipole Moments
 -----------------------------------------------------------------
    Charge (ESU x 10^10)
                 0.0000
    Dipole Moment (Debye)
         X      -1.6777      Y       3.1495      Z       1.9425
       Tot       4.0629
    Quadrupole Moments (Debye-Ang)
        XX    -149.3993     XY      11.5491     YY    -163.1080
        XZ      11.0404     YZ       2.3662     ZZ    -163.2437

 Total job time:  159.08s(wall), 7578.35s(cpu)
        *  Thank you very much for using Q-Chem.  Have a nice day.  *
