 Q-Chem 5.0, Q-Chem, Inc., Pleasanton, CA (2017)
 Q-Chem 5.0.1 for Intel X86 EM64T Linux

User input:
--------------------------------------------------------------
$molecule
0  1
O -3.9148937887 0.549426898 0.3277862673
C -3.2705411949 -0.3049938782 -0.3180592261
C -1.9118214384 -0.971846029 0.0737051922
C -0.9941607638 -0.0562090942 0.9857928426
C -1.5890369071 1.3699753079 1.3353204016
O -1.8136307375 2.4138742108 0.3664114343
C -1.0253530634 2.5679480388 -0.8747855075
C -1.1110674598 1.4727759931 -2.0171294212
O 0.1291023134 0.7903554678 -2.4888500751
C 1.3853865036 1.3056292459 -2.0283923305
C 2.3927343391 0.126737363 -1.7471276897
C 3.3564273702 0.262614316 -0.4954523039
C 2.9650681484 1.1825488823 0.7201762226
O 3.6822388638 1.3306302093 1.7346873676
O -3.6904128009 -0.8464864474 -1.5795041682
O 1.6387773475 1.7102816301 0.6250854135
O 1.6655485273 2.5230133227 -1.9461105203
C 1.3497781985 2.5135039238 1.8415349401
C 1.7495234179 -1.3050085363 -1.5092400648
C 2.7662585459 -2.3774592034 -2.0548007718
C 3.929948725 -2.2316423585 -1.0033886523
C 3.2905783808 -1.2338202343 0.041914421
O 1.8382984389 -1.5021832014 -0.0446963639
H 3.0348189348 0.0742640125 -2.6477343208
H 4.3789292119 0.5421521822 -0.8073064744
H 0.7026787496 -1.3902878259 -1.8588875704
H 2.3172308872 -3.3831851168 -2.0198210295
H 3.0892616756 -2.1666093271 -3.0865432366
H 4.1686438523 -3.1932424108 -0.5223794877
H 4.8512245813 -1.8214843459 -1.4473879846
H 3.646307512 -1.3505713728 1.0842434859
O -1.951447778 1.6635004942 2.4977703863
C -4.9993239459 -0.2701981792 -1.9665711941
C -2.2143125599 -2.1834501603 1.0734321683
C -0.9226542099 -3.0774723985 1.1938683097
C -0.0031790414 -2.1596979084 2.0791466362
C -0.9480163884 -0.921790111 2.3183260342
O -2.3058859918 -1.513664076 2.3862435909
H -1.3925978296 -1.3233067574 -0.8340079209
H 0.0161704082 0.0651464978 0.5453576872
H -4.9541467747 0.8361648352 -2.030807693
H -3.149793922 -2.7318185484 0.8468986422
H -1.1625854378 -4.0299347348 1.6930234353
H -0.4741038176 -3.2937078512 0.2110008742
H 0.2686112243 -2.6404649378 3.0312672572
H 0.899656615 -1.8727851997 1.5130481931
H -0.7506575142 -0.3208255841 3.2268296379
H -5.7957638266 -0.5475937884 -1.2462187289
H -5.2371410155 -0.6910939375 -2.960743426
H 0.4002461075 3.0431085347 1.6478242668
H 2.1566784233 3.2457933523 2.0398029258
H 1.2329580601 1.8620219163 2.73113454
H -1.799417164 0.6567845951 -1.7320356839
H -1.5575346778 1.960466043 -2.9120328946
H 0.0491943356 2.7232908907 -0.6330860236
H -1.4138740465 3.5184408859 -1.2909511904
$end

$rem
JOBTYPE                   OPT
METHOD                    B3LYP
DFT_D                     d3_op
BASIS                     STO-3G
GEOM_OPT_MAX_CYCLES       100
GEOM_OPT_TOL_GRADIENT     300
GEOM_OPT_TOL_DISPLACEMENT 1200
GEOM_OPT_TOL_ENERGY       100
SYMMETRY                  False
THRESH                    12
SCF_CONVERGENCE           8
MAX_SUB_FILE_NUM          128
MEM_STATIC                400
MEM_TOTAL                 4000
$end
--------------------------------------------------------------

   16   -1510.2518135133      7.44E-09 Convergence criterion met
 Total energy in the final basis set = -1510.25181351
   14   -1510.2485089320      4.01E-09 Convergence criterion met
 Total energy in the final basis set = -1510.24850893
   14   -1510.2570021042      4.19E-09 Convergence criterion met
 Total energy in the final basis set = -1510.25700210
   15   -1510.1936280684      1.00E-08 Convergence criterion met
 Total energy in the final basis set = -1510.19362807
   14   -1510.2613113118      6.89E-09 Convergence criterion met
 Total energy in the final basis set = -1510.26131131
   13   -1510.2630087886      8.21E-09 Convergence criterion met
 Total energy in the final basis set = -1510.26300879
   14   -1510.2672239741      2.43E-09 Convergence criterion met
 Total energy in the final basis set = -1510.26722397
   14   -1510.2712980542      1.99E-09 Convergence criterion met
   11   -1510.2940655072      7.81E-09 Convergence criterion met
 Total energy in the final basis set = -1510.29406551
   11   -1510.2940695793      5.40E-09 Convergence criterion met
 Total energy in the final basis set = -1510.29406958
   10   -1510.2940762767      6.81E-09 Convergence criterion met
 Total energy in the final basis set = -1510.29407628
   10   -1510.2940879469      6.85E-09 Convergence criterion met
 Total energy in the final basis set = -1510.29408795
   10   -1510.2940894778      6.71E-09 Convergence criterion met
 Total energy in the final basis set = -1510.29408948
    9   -1510.2940913656      7.61E-09 Convergence criterion met
 Total energy in the final basis set = -1510.29409137

             Standard Nuclear Orientation (Angstroms)
    I     Atom           X                Y                Z
 ----------------------------------------------------------------
    1      O      -3.0255588245     0.5883782150    -0.8825302371
    2      C      -2.1248831274    -0.2803743495    -0.9142970598
    3      C      -1.3013867695    -0.8307782299     0.2865869438
    4      C      -1.6265665999    -0.0710400392     1.6318905666
    5      C      -2.6845052541     1.1099325029     1.5245427806
    6      O      -2.2376958913     2.4430256735     1.1783666763
    7      C      -0.9038534205     2.5708363333     0.5659866591
    8      C      -0.9780580143     2.6465209964    -1.0184500025
    9      O      -0.2443322425     1.5205830557    -1.6543614698
   10      C       1.1600013399     1.6931093273    -1.4510920753
   11      C       1.9772525738     0.4666393165    -1.9931462494
   12      C       3.1498791814     0.0766434984    -0.9926053855
   13      C       3.1906348305     0.9225810498     0.3283439427
   14      O       4.1321311246     1.6391166679     0.7286105386
   15      O      -1.7365811797    -0.9595807854    -2.1220064010
   16      O       1.9897462692     0.6844027458     1.0859041456
   17      O       1.6586107770     2.7036955289    -0.9046346359
   18      C       2.0545271423     1.4487219539     2.3539001158
   19      C       1.1791957531    -0.9001698010    -2.0882550852
   20      C       2.0210701604    -1.8994438086    -2.9706927474
   21      C       3.1802178861    -2.2948946073    -1.9802159840
   22      C       2.7984858115    -1.4452813722    -0.7060105112
   23      O       1.3190613554    -1.4640783727    -0.7228921509
   24      H       2.3913869402     0.7516400518    -2.9784992279
   25      H       4.1371342057     0.1808547787    -1.4754473024
   26      H       0.0919375990    -0.8199605576    -2.3272563129
   27      H       1.4112895331    -2.7747807158    -3.2453001936
   28      H       2.3944686922    -1.4260075845    -3.8925918150
   29      H       3.1610587728    -3.3707665306    -1.7440509900
   30      H       4.1790108016    -2.0348598479    -2.3654691338
   31      H       3.1819888072    -1.8350066361     0.2568752494
   32      O      -3.8674198381     1.0102648090     1.9141692965
   33      C      -2.4938100992    -0.4198384261    -3.2753492295
   34      C      -1.7661012420    -2.3080128675     0.6510281625
   35      C      -0.6838492825    -2.9203945549     1.6238314775
   36      C      -1.0329868075    -2.1765615630     2.9665271876
   37      C      -2.2305441548    -1.2550061032     2.5019304258
   38      O      -2.9471289197    -2.0929324673     1.5146816269
   39      H      -0.2149659290    -0.8316833307     0.0397988334
   40      H      -0.7018626006     0.3090721252     2.0976371790
   41      H      -2.2082795097     0.6321837831    -3.4808065464
   42      H      -2.0256322892    -2.9332951231    -0.2254211516
   43      H      -0.8145187553    -4.0101684366     1.7173131664
   44      H       0.3372193156    -2.7092588832     1.2670699726
   45      H      -1.3679465101    -2.8814760833     3.7442053345
   46      H      -0.1869056017    -1.5914008968     3.3605872253
   47      H      -2.9236733369    -0.9234079669     3.2989390174
   48      H      -3.5871354412    -0.4661642219    -3.0998239220
   49      H      -2.2248724386    -1.0528265577    -4.1407846872
   50      H       1.1937327757     1.1156053901     2.9624122860
   51      H       1.9770399767     2.5400455266     2.1703456505
   52      H       2.9968605336     1.2508000827     2.9030239708
   53      H      -2.0322151001     2.5228360352    -1.3393498250
   54      H      -0.5815546490     3.6183244328    -1.3783680220
   55      H      -0.2090541154     1.7533091221     0.8431681454
   56      H      -0.4843965816     3.5222542950     0.9528205323
 ----------------------------------------------------------------

    9   -1510.2940908229      3.07E-09 Convergence criterion met
 Total energy in the final basis set = -1510.29409082
 Final energy is   -1510.29409082290
 **  OPTIMIZATION CONVERGED  **

                    Orbital Energies (a.u.)
 --------------------------------------------------------------

 Alpha MOs
 -- Occupied --
-18.949 -18.947 -18.938 -18.915 -18.904 -18.887 -18.885 -18.881
-18.880 -18.855 -10.112 -10.107 -10.105 -10.087 -10.073 -10.072
-10.072 -10.070 -10.069 -10.056 -10.053 -10.051 -10.048 -10.046
-10.029 -10.028 -10.026 -10.022 -10.014 -10.012  -1.028  -1.020
 -1.014  -0.989  -0.984  -0.964  -0.948  -0.946  -0.941  -0.921
 -0.773  -0.756  -0.732  -0.719  -0.715  -0.701  -0.699  -0.668
 -0.667  -0.619  -0.595  -0.592  -0.554  -0.547  -0.542  -0.533
 -0.521  -0.508  -0.489  -0.482  -0.476  -0.464  -0.455  -0.449
 -0.436  -0.432  -0.425  -0.421  -0.418  -0.416  -0.414  -0.401
 -0.394  -0.385  -0.379  -0.376  -0.374  -0.359  -0.357  -0.354
 -0.347  -0.343  -0.338  -0.332  -0.329  -0.321  -0.319  -0.315
 -0.311  -0.307  -0.303  -0.300  -0.296  -0.291  -0.285  -0.279
 -0.275  -0.266  -0.258  -0.257  -0.242  -0.228  -0.225  -0.195
 -0.187  -0.183  -0.168  -0.162  -0.158  -0.157  -0.152  -0.138
 -0.133

          Ground-State Mulliken Net Atomic Charges

     Atom                 Charge (a.u.)
  ----------------------------------------
      1 O                    -0.207435
      2 C                     0.219710
      3 C                    -0.097641
      4 C                    -0.087560
      5 C                     0.213503
      6 O                    -0.175643
      7 C                    -0.053605
      8 C                    -0.056339
      9 O                    -0.174903
     10 C                     0.209737
     11 C                    -0.080469
     12 C                    -0.080290
     13 C                     0.211511
     14 O                    -0.207573
     15 O                    -0.168660
     16 O                    -0.178222
     17 O                    -0.215366
     18 C                    -0.130890
     19 C                     0.008315
     20 C                    -0.144672
     21 C                    -0.143401
     22 C                     0.027372
     23 O                    -0.193929
     24 H                     0.086850
     25 H                     0.087458
     26 H                     0.112794
     27 H                     0.079016
     28 H                     0.073419
     29 H                     0.079145
     30 H                     0.075590
     31 H                     0.084017
     32 O                    -0.205713
     33 C                    -0.128073
     34 C                     0.025969
     35 C                    -0.144992
     36 C                    -0.144187
     37 C                     0.026321
     38 O                    -0.190266
     39 H                     0.117078
     40 H                     0.074948
     41 H                     0.090835
     42 H                     0.081962
     43 H                     0.074551
     44 H                     0.080897
     45 H                     0.076277
     46 H                     0.069741
     47 H                     0.089026
     48 H                     0.096238
     49 H                     0.091260
     50 H                     0.085339
     51 H                     0.092093
     52 H                     0.092452
     53 H                     0.106299
     54 H                     0.090811
     55 H                     0.089708
     56 H                     0.089588
  ----------------------------------------
  Sum of atomic charges =    -0.000000

                    Cartesian Multipole Moments
 -----------------------------------------------------------------
    Charge (ESU x 10^10)
                 0.0000
    Dipole Moment (Debye)
         X       3.8282      Y      -1.9143      Z      -2.7501
       Tot       5.0875
    Quadrupole Moments (Debye-Ang)
        XX    -183.0937     XY      -4.5774     YY    -163.0110
        XZ       7.1694     YZ      -0.4127     ZZ    -145.7205

 Total job time:  170.12s(wall), 8118.67s(cpu)
        *  Thank you very much for using Q-Chem.  Have a nice day.  *
