 Q-Chem 5.0, Q-Chem, Inc., Pleasanton, CA (2017)
 Q-Chem 5.0.1 for Intel X86 EM64T Linux

User input:
--------------------------------------------------------------
$molecule
0  1
O -3.94934 -3.66094 2.70899
C -3.26408 -4.56952 2.26188
C -3.36658 -6.02376 2.66595
C -3.85957 -6.32399 4.09097
C -4.36389 -5.14454 4.89263
O -3.33365 -4.28698 5.15459
C -2.06117 -4.93933 5.22169
C -1.68045 -5.49105 3.85174
O -1.43995 -6.90412 3.94281
C -1.39534 -7.40812 5.20103
C -2.03103 -8.77359 5.31076
C -2.82259 -9.01708 6.60399
C -3.16186 -7.7817 7.41358
O -3.78302 -7.7728 8.46651
O -2.44693 -4.29785 1.2053
O -2.84152 -6.50263 7.12271
O -0.50984 -7.0909 5.98786
C -3.1674 -5.42732 7.98262
C -3.02068 -9.41677 4.33052
C -2.90032 -10.94309 4.35709
C -3.51923 -11.25584 5.71037
C -3.98848 -9.85842 6.14045
O -4.2874 -9.24118 4.94381
H -1.13666 -9.4386 5.28937
H -2.20353 -9.60104 7.32187
H -2.88332 -9.04366 3.29685
H -3.57868 -11.33132 3.56367
H -1.88137 -11.35403 4.19142
H -4.38838 -11.93207 5.55206
H -2.82463 -11.70305 6.45408
H -4.80233 -9.90991 6.89547
O -5.52425 -4.81968 5.11457
C -2.27053 -3.04323 0.66105
C -4.62902 -6.3369 1.77986
C -4.79611 -7.81693 1.47969
C -5.43004 -8.22907 2.75215
C -5.2824 -6.93333 3.59722
O -5.69009 -6.01861 2.62256
H -2.64699 -6.67567 2.09714
H -3.62187 -7.08768 4.76038
H -1.86129 -2.34965 1.42644
H -4.64568 -5.83145 0.78142
H -5.5086 -8.01838 0.64775
H -3.82334 -8.29886 1.24624
H -6.53149 -8.27611 2.56914
H -5.23225 -9.28669 2.97629
H -6.00855 -7.04249 4.43738
H -3.23734 -2.65273 0.27764
H -1.55249 -3.1101 -0.18171
H -2.83796 -4.43703 7.62397
H -2.68739 -5.57428 8.9746
H -4.26998 -5.36052 8.10991
H -1.13952 -4.92696 3.05373
H -0.59332 -5.25441 3.97868
H -1.48269 -5.05098 6.14821
H -1.48208 -3.98137 5.22629
$end

$opt
CONSTRAINT
tors           1           2           3           4     -28.421
tors           3           4           5           6     -66.316
tors           4           5           6           7     -28.421
tors           5           6           7           8     +66.316
tors           6           7           8           9    -123.158
tors           7           8           9          10      -9.474
tors           8           9          10          11    +142.105
tors           9          10          11          12    -142.105
tors          11          12          13          14    -180.000
ENDCONSTRAINT
$end

$rem
JOBTYPE                   OPT
METHOD                    B3LYP
DFT_D                     d3_op
BASIS                     STO-3G
GEOM_OPT_MAX_CYCLES       100
GEOM_OPT_TOL_GRADIENT     300
GEOM_OPT_TOL_DISPLACEMENT 1200
GEOM_OPT_TOL_ENERGY       100
SYMMETRY                  False
THRESH                    12
SCF_CONVERGENCE           8
MAX_SUB_FILE_NUM          128
MEM_STATIC                400
MEM_TOTAL                 4000
$end
--------------------------------------------------------------

   16   -1509.7303818014      3.52E-09 Convergence criterion met
 Total energy in the final basis set = -1509.73038180
   14   -1509.8554183849      6.00E-09 Convergence criterion met
 Total energy in the final basis set = -1509.85541838
   13   -1509.9406487992      8.83E-09 Convergence criterion met
 Total energy in the final basis set = -1509.94064880
   14   -1510.0068638597      2.37E-09 Convergence criterion met
 Total energy in the final basis set = -1510.00686386
   14   -1510.0558813411      2.32E-09 Convergence criterion met
 Total energy in the final basis set = -1510.05588134
   14   -1510.0917807568      2.24E-09 Convergence criterion met
 Total energy in the final basis set = -1510.09178076
   13   -1510.1189746301      6.14E-09 Convergence criterion met
 Total energy in the final basis set = -1510.11897463
   13   -1510.1404527852      8.31E-09 Convergence criterion met
   10   -1510.2517315781      8.03E-09 Convergence criterion met
 Total energy in the final basis set = -1510.25173158
   11   -1510.2517500679      4.27E-09 Convergence criterion met
 Total energy in the final basis set = -1510.25175007
   10   -1510.2517621518      8.41E-09 Convergence criterion met
 Total energy in the final basis set = -1510.25176215
    9   -1510.2517694802      7.84E-09 Convergence criterion met
 Total energy in the final basis set = -1510.25176948
    9   -1510.2517737926      7.04E-09 Convergence criterion met
 Total energy in the final basis set = -1510.25177379
    9   -1510.2517761817      8.81E-09 Convergence criterion met
 Total energy in the final basis set = -1510.25177618

             Standard Nuclear Orientation (Angstroms)
    I     Atom           X                Y                Z
 ----------------------------------------------------------------
    1      O      -3.9148937887     0.5494268980     0.3277862673
    2      C      -3.2705411949    -0.3049938782    -0.3180592261
    3      C      -1.9118214384    -0.9718460290     0.0737051922
    4      C      -0.9941607638    -0.0562090942     0.9857928426
    5      C      -1.5890369071     1.3699753079     1.3353204016
    6      O      -1.8136307375     2.4138742108     0.3664114343
    7      C      -1.0253530634     2.5679480388    -0.8747855075
    8      C      -1.1110674598     1.4727759931    -2.0171294212
    9      O       0.1291023134     0.7903554678    -2.4888500751
   10      C       1.3853865036     1.3056292459    -2.0283923305
   11      C       2.3927343391     0.1267373630    -1.7471276897
   12      C       3.3564273702     0.2626143160    -0.4954523039
   13      C       2.9650681484     1.1825488823     0.7201762226
   14      O       3.6822388638     1.3306302093     1.7346873676
   15      O      -3.6904128009    -0.8464864474    -1.5795041682
   16      O       1.6387773475     1.7102816301     0.6250854135
   17      O       1.6655485273     2.5230133227    -1.9461105203
   18      C       1.3497781985     2.5135039238     1.8415349401
   19      C       1.7495234179    -1.3050085363    -1.5092400648
   20      C       2.7662585459    -2.3774592034    -2.0548007718
   21      C       3.9299487250    -2.2316423585    -1.0033886523
   22      C       3.2905783808    -1.2338202343     0.0419144210
   23      O       1.8382984389    -1.5021832014    -0.0446963639
   24      H       3.0348189348     0.0742640125    -2.6477343208
   25      H       4.3789292119     0.5421521822    -0.8073064744
   26      H       0.7026787496    -1.3902878259    -1.8588875704
   27      H       2.3172308872    -3.3831851168    -2.0198210295
   28      H       3.0892616756    -2.1666093271    -3.0865432366
   29      H       4.1686438523    -3.1932424108    -0.5223794877
   30      H       4.8512245813    -1.8214843459    -1.4473879846
   31      H       3.6463075120    -1.3505713728     1.0842434859
   32      O      -1.9514477780     1.6635004942     2.4977703863
   33      C      -4.9993239459    -0.2701981792    -1.9665711941
   34      C      -2.2143125599    -2.1834501603     1.0734321683
   35      C      -0.9226542099    -3.0774723985     1.1938683097
   36      C      -0.0031790414    -2.1596979084     2.0791466362
   37      C      -0.9480163884    -0.9217901110     2.3183260342
   38      O      -2.3058859918    -1.5136640760     2.3862435909
   39      H      -1.3925978296    -1.3233067574    -0.8340079209
   40      H       0.0161704082     0.0651464978     0.5453576872
   41      H      -4.9541467747     0.8361648352    -2.0308076930
   42      H      -3.1497939220    -2.7318185484     0.8468986422
   43      H      -1.1625854378    -4.0299347348     1.6930234353
   44      H      -0.4741038176    -3.2937078512     0.2110008742
   45      H       0.2686112243    -2.6404649378     3.0312672572
   46      H       0.8996566150    -1.8727851997     1.5130481931
   47      H      -0.7506575142    -0.3208255841     3.2268296379
   48      H      -5.7957638266    -0.5475937884    -1.2462187289
   49      H      -5.2371410155    -0.6910939375    -2.9607434260
   50      H       0.4002461075     3.0431085347     1.6478242668
   51      H       2.1566784233     3.2457933523     2.0398029258
   52      H       1.2329580601     1.8620219163     2.7311345400
   53      H      -1.7994171640     0.6567845951    -1.7320356839
   54      H      -1.5575346778     1.9604660430    -2.9120328946
   55      H       0.0491943356     2.7232908907    -0.6330860236
   56      H      -1.4138740465     3.5184408859    -1.2909511904
 ----------------------------------------------------------------

    9   -1510.2517774217      5.03E-09 Convergence criterion met
 Total energy in the final basis set = -1510.25177742
 Final energy is   -1510.25177742174
 **  OPTIMIZATION CONVERGED  **

                    Orbital Energies (a.u.)
 --------------------------------------------------------------

 Alpha MOs
 -- Occupied --
-18.949 -18.938 -18.930 -18.915 -18.911 -18.892 -18.883 -18.882
-18.879 -18.863 -10.117 -10.111 -10.101 -10.091 -10.077 -10.075
-10.075 -10.069 -10.068 -10.068 -10.055 -10.054 -10.050 -10.047
-10.036 -10.035 -10.033 -10.027 -10.010  -9.996  -1.025  -1.016
 -1.014  -0.993  -0.992  -0.962  -0.947  -0.944  -0.940  -0.922
 -0.778  -0.756  -0.736  -0.725  -0.714  -0.706  -0.698  -0.669
 -0.664  -0.625  -0.602  -0.592  -0.559  -0.553  -0.540  -0.528
 -0.525  -0.508  -0.490  -0.480  -0.468  -0.463  -0.458  -0.449
 -0.445  -0.434  -0.426  -0.422  -0.417  -0.414  -0.411  -0.403
 -0.400  -0.382  -0.378  -0.374  -0.368  -0.367  -0.356  -0.352
 -0.350  -0.347  -0.341  -0.335  -0.329  -0.326  -0.323  -0.320
 -0.314  -0.312  -0.307  -0.300  -0.295  -0.289  -0.284  -0.283
 -0.276  -0.265  -0.257  -0.249  -0.245  -0.223  -0.216  -0.190
 -0.183  -0.180  -0.172  -0.165  -0.161  -0.156  -0.152  -0.137
 -0.136

          Ground-State Mulliken Net Atomic Charges

     Atom                 Charge (a.u.)
  ----------------------------------------
      1 O                    -0.199927
      2 C                     0.201831
      3 C                    -0.082330
      4 C                    -0.089382
      5 C                     0.210560
      6 O                    -0.179003
      7 C                    -0.061467
      8 C                    -0.059088
      9 O                    -0.186808
     10 C                     0.219812
     11 C                    -0.081732
     12 C                    -0.076729
     13 C                     0.211187
     14 O                    -0.211948
     15 O                    -0.172910
     16 O                    -0.172887
     17 O                    -0.201103
     18 C                    -0.131791
     19 C                     0.024334
     20 C                    -0.141752
     21 C                    -0.144881
     22 C                     0.026420
     23 O                    -0.194705
     24 H                     0.086516
     25 H                     0.090576
     26 H                     0.093193
     27 H                     0.080229
     28 H                     0.077099
     29 H                     0.081948
     30 H                     0.077367
     31 H                     0.090546
     32 O                    -0.199357
     33 C                    -0.129825
     34 C                     0.025978
     35 C                    -0.143378
     36 C                    -0.159796
     37 C                     0.025157
     38 O                    -0.188569
     39 H                     0.083181
     40 H                     0.090234
     41 H                     0.090354
     42 H                     0.079427
     43 H                     0.074295
     44 H                     0.070422
     45 H                     0.070162
     46 H                     0.097243
     47 H                     0.087883
     48 H                     0.090898
     49 H                     0.090694
     50 H                     0.100220
     51 H                     0.095843
     52 H                     0.092939
     53 H                     0.094299
     54 H                     0.083648
     55 H                     0.101395
     56 H                     0.093477
  ----------------------------------------
  Sum of atomic charges =    -0.000000

                    Cartesian Multipole Moments
 -----------------------------------------------------------------
    Charge (ESU x 10^10)
                -0.0000
    Dipole Moment (Debye)
         X       2.4894      Y      -2.5082      Z      -4.4359
       Tot       5.6714
    Quadrupole Moments (Debye-Ang)
        XX    -157.9213     XY      -1.3552     YY    -161.3478
        XZ       8.7510     YZ      -0.9111     ZZ    -165.3324

 Total job time:  121.15s(wall), 5777.37s(cpu)
        *  Thank you very much for using Q-Chem.  Have a nice day.  *
