 Q-Chem 5.0, Q-Chem, Inc., Pleasanton, CA (2017)
 Q-Chem 5.0.1 for Intel X86 EM64T Linux

User input:
--------------------------------------------------------------
$molecule
0  1
O -2.353186449 -1.7134481948 -0.6872942817
C -3.4858760752 -1.4616529916 -0.2200803983
C -4.0176405089 -0.0937463827 0.3205827815
C -2.9004000658 1.0191710248 0.4697748909
C -1.4830950509 0.5865059565 -0.0997047966
O -0.6315323812 -0.1633939475 0.8100444449
C -0.5219367651 0.4075219562 2.1654483519
C 0.9445155298 0.2522977316 2.7381558548
O 2.1135235307 0.9494539238 2.1670267662
C 2.2775065096 0.906048056 0.7356479807
C 3.8123995684 0.7700292603 0.4485075911
C 4.1778806439 -0.7202660271 0.0147307227
C 2.8815020197 -1.523949052 -0.3739400419
O 2.3178182917 -1.5395032972 -1.4884820816
O -4.541545271 -2.421200001 -0.1184103201
O 2.3428728078 -2.1287429639 0.8086333149
O 1.368294921 1.0399628115 -0.105746811
C 0.9778545888 -2.6481018333 0.5259954423
C 4.3439386375 1.58972285 -0.8030350769
C 5.9054542856 1.7435283303 -0.6275529258
C 6.380579528 0.2695132695 -0.9123587701
C 5.01561662 -0.4299212692 -1.2970454838
O 4.2288545424 0.6498211218 -1.9395531517
H 4.3529740268 1.0456433649 1.3709637069
H 4.7412917126 -1.2517403115 0.8015340448
H 3.7890618855 2.5238918492 -1.0159309028
H 6.3072173877 2.4469666659 -1.3743764572
H 6.1833853967 2.0968343794 0.3783556985
H 7.0875248318 0.2269971262 -1.7558710582
H 6.8518234867 -0.2000145292 -0.0336884001
H 5.1032660741 -1.2966228406 -1.9802514538
O -1.1029975135 0.8000442141 -1.2658175881
C -4.0941960033 -3.7251755351 -0.6619256367
C -5.0233468279 0.6119099559 -0.6925146158
C -5.8335915 1.7045602564 0.1098869163
C -4.7371505873 2.818923028 0.2911808449
C -3.5078420891 2.1629198444 -0.4521201433
O -4.1337789527 1.4076973027 -1.5632570636
H -4.5198318243 -0.2866084323 1.2861591071
H -2.8187594871 1.3453240334 1.5189297381
H -3.2302023579 -4.1285454378 -0.0952192671
H -5.6367654577 -0.0911799716 -1.2889539121
H -6.6831257938 2.0673205934 -0.4902636513
H -6.2161774318 1.3194602989 1.0686116865
H -5.0296139646 3.7571639791 -0.206235431
H -4.5173880716 3.0339758031 1.3491370383
H -2.7549344488 2.8707567547 -0.8497230181
H -3.8066579114 -3.6443161815 -1.730056047
H -4.9564498206 -4.4094835671 -0.5600367469
H 0.7317027432 -3.3316058263 1.3591784423
H 0.9457101358 -3.1982236101 -0.4343224731
H 0.2503291558 -1.7994822361 0.4942437619
H 0.9093789922 0.5959915059 3.7937599202
H 1.1769844501 -0.8377291407 2.7434814398
H -1.1879528534 -0.1381835751 2.8740983944
H -0.8044597413 1.4808416438 2.1851736362
$end

$rem
JOBTYPE                   OPT
METHOD                    B3LYP
DFT_D                     d3_op
BASIS                     STO-3G
GEOM_OPT_MAX_CYCLES       100
GEOM_OPT_TOL_GRADIENT     300
GEOM_OPT_TOL_DISPLACEMENT 1200
GEOM_OPT_TOL_ENERGY       100
SYMMETRY                  False
THRESH                    12
SCF_CONVERGENCE           8
MAX_SUB_FILE_NUM          128
MEM_STATIC                400
MEM_TOTAL                 4000
$end
--------------------------------------------------------------

   16   -1510.2528675629      4.73E-09 Convergence criterion met
 Total energy in the final basis set = -1510.25286756
   15   -1510.2524597074      3.66E-09 Convergence criterion met
 Total energy in the final basis set = -1510.25245971
   15   -1510.2565250234      3.00E-09 Convergence criterion met
 Total energy in the final basis set = -1510.25652502
   15   -1510.2583596023      2.38E-09 Convergence criterion met
 Total energy in the final basis set = -1510.25835960
   15   -1510.2625314108      2.49E-09 Convergence criterion met
 Total energy in the final basis set = -1510.26253141
   15   -1510.2653872555      2.83E-09 Convergence criterion met
 Total energy in the final basis set = -1510.26538726
   15   -1510.2678590786      2.59E-09 Convergence criterion met
 Total energy in the final basis set = -1510.26785908
   15   -1510.2704430569      3.17E-09 Convergence criterion met
   13   -1510.2771034212      4.91E-09 Convergence criterion met
 Total energy in the final basis set = -1510.27710342
   13   -1510.2772664848      3.67E-09 Convergence criterion met
 Total energy in the final basis set = -1510.27726648
   11   -1510.2772749043      4.87E-09 Convergence criterion met
 Total energy in the final basis set = -1510.27727490
   11   -1510.2772749741      2.53E-09 Convergence criterion met
 Total energy in the final basis set = -1510.27727497
   11   -1510.2772771081      3.43E-09 Convergence criterion met
 Total energy in the final basis set = -1510.27727711
   10   -1510.2772786785      4.12E-09 Convergence criterion met
 Total energy in the final basis set = -1510.27727868

             Standard Nuclear Orientation (Angstroms)
    I     Atom           X                Y                Z
 ----------------------------------------------------------------
    1      O       3.6231315699    -2.1100099293    -0.9141357656
    2      C       3.9543557659    -0.9178686850    -1.1161727242
    3      C       3.2316862227     0.3501612501    -0.5529016188
    4      C       2.0560261945    -0.0389124974     0.4249727111
    5      C       1.7638823234    -1.5868868524     0.5929274052
    6      O       0.8001590612    -2.1869714668    -0.3164212473
    7      C       0.7538611726    -1.6260331007    -1.6812325707
    8      C      -0.6687018139    -1.9275912230    -2.2890244303
    9      O      -1.7317564894    -0.8960215772    -2.2117712198
   10      C      -1.7767104613    -0.1276404812    -1.0035397154
   11      C      -3.1934036891     0.5501615879    -0.9335152047
   12      C      -4.0236383917     0.0609530885     0.3306500331
   13      C      -3.2354270120    -0.9695457919     1.2171059950
   14      O      -3.0679484412    -0.9332551230     2.4544963674
   15      O       5.0739014087    -0.5219155632    -1.9047832254
   16      O      -2.7154750746    -1.9791897975     0.3472960324
   17      O      -0.8365847586     0.0595371035    -0.2014947786
   18      C      -1.7581207696    -2.8655470047     1.0586870321
   19      C      -3.0914440418     2.1056121471    -0.6270439717
   20      C      -4.4997753619     2.7630583736    -0.9103202877
   21      C      -5.3207355899     2.2762591008     0.3419719558
   22      C      -4.2342202194     1.4246303250     1.1056414226
   23      O      -2.9717647758     2.1577368567     0.8473835245
   24      H      -3.7273578591     0.3415898584    -1.8767565385
   25      H      -4.9826159166    -0.3936956402     0.0209130263
   26      H      -2.2294951984     2.6124616293    -1.1028280394
   27      H      -4.4126357833     3.8609880233    -0.9338843178
   28      H      -4.9342232875     2.4231928935    -1.8641492661
   29      H      -5.6505799002     3.1248625186     0.9619133093
   30      H      -6.2021372854     1.6757228012     0.0660296702
   31      H      -4.3914351522     1.2977953396     2.1945696624
   32      O       2.0708154668    -2.2614114310     1.5972576094
   33      C       5.7774852996    -1.7192156833    -2.4245970101
   34      C       4.1888970245     1.1597206768     0.4254496881
   35      C       3.5181055629     2.5538600767     0.7449284108
   36      C       2.3861491095     2.1239657229     1.7503797560
   37      C       2.5965021978     0.5603222899     1.7912715879
   38      O       4.0682606864     0.4067884604     1.6921147467
   39      H       2.8927764808     0.9769419964    -1.3980936636
   40      H       1.0935757130     0.4269934496     0.1396195058
   41      H       5.1408808179    -2.2867360701    -3.1340758445
   42      H       5.2428263386     1.2034996627     0.0880585636
   43      H       4.2472471119     3.2301845587     1.2185789453
   44      H       3.1227143896     3.0407067779    -0.1610315634
   45      H       2.5461930908     2.5614295120     2.7485217777
   46      H       1.3771239195     2.3949477152     1.4009812960
   47      H       2.2152351677     0.0426571882     2.6923436576
   48      H       6.0835410008    -2.3987404792    -1.6037388661
   49      H       6.6724728615    -1.3410884866    -2.9518436123
   50      H      -2.0832234029    -3.9136923290     0.9153850010
   51      H      -1.7508842297    -2.6156651216     2.1373312203
   52      H      -0.7483977971    -2.7064434049     0.6076543250
   53      H      -0.5555117266    -2.1132812089    -3.3773787710
   54      H      -1.0479509262    -2.8633262850    -1.8206097988
   55      H       1.5081475203    -2.1573796834    -2.3052221409
   56      H       0.9748483832    -0.5428721681    -1.7299358079
 ----------------------------------------------------------------

    9   -1510.2772788015      3.46E-09 Convergence criterion met
 Total energy in the final basis set = -1510.27727880
 Final energy is   -1510.27727880151
 **  OPTIMIZATION CONVERGED  **

                    Orbital Energies (a.u.)
 --------------------------------------------------------------

 Alpha MOs
 -- Occupied --
-18.950 -18.933 -18.927 -18.918 -18.891 -18.887 -18.882 -18.876
-18.874 -18.861 -10.110 -10.107 -10.097 -10.090 -10.078 -10.076
-10.074 -10.061 -10.059 -10.058 -10.050 -10.041 -10.037 -10.036
-10.034 -10.021 -10.021 -10.020 -10.017 -10.013  -1.025  -1.014
 -1.003  -0.991  -0.970  -0.966  -0.949  -0.941  -0.932  -0.925
 -0.763  -0.760  -0.726  -0.719  -0.714  -0.702  -0.699  -0.669
 -0.647  -0.617  -0.596  -0.584  -0.548  -0.544  -0.537  -0.534
 -0.511  -0.508  -0.486  -0.473  -0.464  -0.458  -0.452  -0.447
 -0.432  -0.430  -0.428  -0.419  -0.416  -0.409  -0.405  -0.402
 -0.389  -0.385  -0.379  -0.374  -0.364  -0.357  -0.353  -0.352
 -0.343  -0.340  -0.332  -0.330  -0.325  -0.320  -0.314  -0.311
 -0.309  -0.304  -0.301  -0.297  -0.291  -0.287  -0.285  -0.275
 -0.270  -0.263  -0.246  -0.242  -0.235  -0.233  -0.229  -0.190
 -0.177  -0.171  -0.164  -0.160  -0.156  -0.150  -0.144  -0.140
 -0.135

          Ground-State Mulliken Net Atomic Charges

     Atom                 Charge (a.u.)
  ----------------------------------------
      1 O                    -0.204656
      2 C                     0.212659
      3 C                    -0.082064
      4 C                    -0.096425
      5 C                     0.222573
      6 O                    -0.179051
      7 C                    -0.045553
      8 C                    -0.048875
      9 O                    -0.174141
     10 C                     0.221062
     11 C                    -0.079191
     12 C                    -0.078193
     13 C                     0.214471
     14 O                    -0.208112
     15 O                    -0.166910
     16 O                    -0.177931
     17 O                    -0.225395
     18 C                    -0.152522
     19 C                     0.024647
     20 C                    -0.143882
     21 C                    -0.144079
     22 C                     0.024102
     23 O                    -0.188082
     24 H                     0.085752
     25 H                     0.085131
     26 H                     0.080054
     27 H                     0.077548
     28 H                     0.073368
     29 H                     0.078383
     30 H                     0.073459
     31 H                     0.091382
     32 O                    -0.203862
     33 C                    -0.128055
     34 C                     0.025095
     35 C                    -0.144074
     36 C                    -0.144071
     37 C                     0.026396
     38 O                    -0.190257
     39 H                     0.082075
     40 H                     0.104050
     41 H                     0.088639
     42 H                     0.085042
     43 H                     0.077646
     44 H                     0.071708
     45 H                     0.078116
     46 H                     0.078392
     47 H                     0.092340
     48 H                     0.095986
     49 H                     0.093581
     50 H                     0.078505
     51 H                     0.096696
     52 H                     0.111508
     53 H                     0.088250
     54 H                     0.095048
     55 H                     0.083920
     56 H                     0.087799
  ----------------------------------------
  Sum of atomic charges =     0.000000

                    Cartesian Multipole Moments
 -----------------------------------------------------------------
    Charge (ESU x 10^10)
                 0.0000
    Dipole Moment (Debye)
         X      -0.7550      Y       1.9472      Z      -5.2457
       Tot       5.6461
    Quadrupole Moments (Debye-Ang)
        XX    -144.4354     XY       0.9565     YY    -160.8572
        XZ      -8.1844     YZ       5.9337     ZZ    -161.0911

 Total job time:  99.00s(wall), 4720.34s(cpu)
        *  Thank you very much for using Q-Chem.  Have a nice day.  *
