 Q-Chem 5.0, Q-Chem, Inc., Pleasanton, CA (2017)
 Q-Chem 5.0.1 for Intel X86 EM64T Linux

User input:
--------------------------------------------------------------
$molecule
0  1
O -3.94934 -3.66094 2.70899
C -3.26408 -4.56952 2.26188
C -3.36658 -6.02376 2.66595
C -4.25419 -6.35572 3.87665
C -5.08044 -5.22016 4.4387
O -4.33413 -4.49819 5.32594
C -3.63265 -5.31614 6.26835
C -3.62835 -4.65104 7.64085
O -4.96507 -4.59906 8.16369
C -5.91087 -4.14826 7.30264
C -6.95184 -3.28309 7.97235
C -6.808 -1.77688 7.70983
C -5.89718 -1.39024 6.56195
O -6.22714 -1.32395 5.38666
O -2.3952 -4.29522 1.2535
O -4.58558 -1.23601 6.88031
O -6.41784 -4.96716 6.55792
C -3.59232 -0.9522 5.96645
C -8.42892 -3.50702 7.55734
C -9.3646 -3.01037 8.66023
C -9.19506 -1.51349 8.52259
C -8.26405 -1.45357 7.3082
O -8.64071 -2.56794 6.53531
H -6.8727 -3.4797 9.06691
H -6.50102 -1.181 8.59809
H -8.67942 -4.56285 7.31704
H -10.40335 -3.2772 8.35971
H -9.16 -3.42114 9.67229
H -10.18429 -1.07017 8.27081
H -8.7622 -0.99888 9.40759
H -8.35195 -0.463 6.80889
O -6.03151 -4.72009 3.85155
C -2.19434 -3.03879 0.72153
C -4.02387 -6.85092 1.55221
C -3.68825 -8.33297 1.72879
C -4.59782 -8.68515 2.88405
C -5.24041 -7.32249 3.16285
O -5.38841 -6.77963 1.87271
H -2.31917 -6.34654 2.86094
H -3.73091 -7.01737 4.59034
H -1.82772 -2.34464 1.50781
H -3.7391 -6.50992 0.53262
H -4.02208 -8.89871 0.83022
H -2.60539 -8.51177 1.90455
H -5.39347 -9.36678 2.50678
H -4.10045 -9.15245 3.76092
H -6.18297 -7.47142 3.73648
H -3.14117 -2.65039 0.28901
H -1.43348 -3.1018 -0.08319
H -2.62058 -0.88036 6.49642
H -3.79978 0.01694 5.46447
H -3.52629 -1.76154 5.20824
H -2.9924 -5.22227 8.3499
H -3.21394 -3.62365 7.54782
H -2.57475 -5.41764 5.9404
H -4.10254 -6.30816 6.46914
$end

$opt
CONSTRAINT
tors           1           2           3           4      -9.474
tors           3           4           5           6     -85.263
tors           4           5           6           7     -47.368
tors           5           6           7           8    -142.105
tors           6           7           8           9     +66.316
tors           7           8           9          10     -47.368
tors           8           9          10          11    -142.105
tors           9          10          11          12    +104.211
tors          11          12          13          14     +85.263
ENDCONSTRAINT
$end

$rem
JOBTYPE                   OPT
METHOD                    B3LYP
DFT_D                     d3_op
BASIS                     STO-3G
GEOM_OPT_MAX_CYCLES       100
GEOM_OPT_TOL_GRADIENT     300
GEOM_OPT_TOL_DISPLACEMENT 1200
GEOM_OPT_TOL_ENERGY       100
SYMMETRY                  False
THRESH                    12
SCF_CONVERGENCE           8
MAX_SUB_FILE_NUM          128
MEM_STATIC                400
MEM_TOTAL                 4000
$end
--------------------------------------------------------------

   16   -1510.0682841722      2.40E-09 Convergence criterion met
 Total energy in the final basis set = -1510.06828417
   14   -1510.1490679873      8.76E-09 Convergence criterion met
 Total energy in the final basis set = -1510.14906799
   14   -1510.1930876336      5.26E-09 Convergence criterion met
 Total energy in the final basis set = -1510.19308763
   14   -1510.2212851860      7.37E-09 Convergence criterion met
 Total energy in the final basis set = -1510.22128519
   13   -1510.2350637947      7.80E-09 Convergence criterion met
 Total energy in the final basis set = -1510.23506379
   13   -1510.2430672522      7.16E-09 Convergence criterion met
 Total energy in the final basis set = -1510.24306725
   13   -1510.2471262191      7.41E-09 Convergence criterion met
 Total energy in the final basis set = -1510.24712622
   13   -1510.2506633606      5.01E-09 Convergence criterion met
   12   -1510.2528590831      3.43E-09 Convergence criterion met
 Total energy in the final basis set = -1510.25285908
   11   -1510.2529089037      4.81E-09 Convergence criterion met
 Total energy in the final basis set = -1510.25290890
   11   -1510.2529544268      9.46E-09 Convergence criterion met
 Total energy in the final basis set = -1510.25295443
   11   -1510.2529734922      4.46E-09 Convergence criterion met
 Total energy in the final basis set = -1510.25297349
   11   -1510.2529793006      5.29E-09 Convergence criterion met
 Total energy in the final basis set = -1510.25297930
   10   -1510.2529840994      8.26E-09 Convergence criterion met
 Total energy in the final basis set = -1510.25298410

             Standard Nuclear Orientation (Angstroms)
    I     Atom           X                Y                Z
 ----------------------------------------------------------------
    1      O      -2.3531864490    -1.7134481948    -0.6872942817
    2      C      -3.4858760752    -1.4616529916    -0.2200803983
    3      C      -4.0176405089    -0.0937463827     0.3205827815
    4      C      -2.9004000658     1.0191710248     0.4697748909
    5      C      -1.4830950509     0.5865059565    -0.0997047966
    6      O      -0.6315323812    -0.1633939475     0.8100444449
    7      C      -0.5219367651     0.4075219562     2.1654483519
    8      C       0.9445155298     0.2522977316     2.7381558548
    9      O       2.1135235307     0.9494539238     2.1670267662
   10      C       2.2775065096     0.9060480560     0.7356479807
   11      C       3.8123995684     0.7700292603     0.4485075911
   12      C       4.1778806439    -0.7202660271     0.0147307227
   13      C       2.8815020197    -1.5239490520    -0.3739400419
   14      O       2.3178182917    -1.5395032972    -1.4884820816
   15      O      -4.5415452710    -2.4212000010    -0.1184103201
   16      O       2.3428728078    -2.1287429639     0.8086333149
   17      O       1.3682949210     1.0399628115    -0.1057468110
   18      C       0.9778545888    -2.6481018333     0.5259954423
   19      C       4.3439386375     1.5897228500    -0.8030350769
   20      C       5.9054542856     1.7435283303    -0.6275529258
   21      C       6.3805795280     0.2695132695    -0.9123587701
   22      C       5.0156166200    -0.4299212692    -1.2970454838
   23      O       4.2288545424     0.6498211218    -1.9395531517
   24      H       4.3529740268     1.0456433649     1.3709637069
   25      H       4.7412917126    -1.2517403115     0.8015340448
   26      H       3.7890618855     2.5238918492    -1.0159309028
   27      H       6.3072173877     2.4469666659    -1.3743764572
   28      H       6.1833853967     2.0968343794     0.3783556985
   29      H       7.0875248318     0.2269971262    -1.7558710582
   30      H       6.8518234867    -0.2000145292    -0.0336884001
   31      H       5.1032660741    -1.2966228406    -1.9802514538
   32      O      -1.1029975135     0.8000442141    -1.2658175881
   33      C      -4.0941960033    -3.7251755351    -0.6619256367
   34      C      -5.0233468279     0.6119099559    -0.6925146158
   35      C      -5.8335915000     1.7045602564     0.1098869163
   36      C      -4.7371505873     2.8189230280     0.2911808449
   37      C      -3.5078420891     2.1629198444    -0.4521201433
   38      O      -4.1337789527     1.4076973027    -1.5632570636
   39      H      -4.5198318243    -0.2866084323     1.2861591071
   40      H      -2.8187594871     1.3453240334     1.5189297381
   41      H      -3.2302023579    -4.1285454378    -0.0952192671
   42      H      -5.6367654577    -0.0911799716    -1.2889539121
   43      H      -6.6831257938     2.0673205934    -0.4902636513
   44      H      -6.2161774318     1.3194602989     1.0686116865
   45      H      -5.0296139646     3.7571639791    -0.2062354310
   46      H      -4.5173880716     3.0339758031     1.3491370383
   47      H      -2.7549344488     2.8707567547    -0.8497230181
   48      H      -3.8066579114    -3.6443161815    -1.7300560470
   49      H      -4.9564498206    -4.4094835671    -0.5600367469
   50      H       0.7317027432    -3.3316058263     1.3591784423
   51      H       0.9457101358    -3.1982236101    -0.4343224731
   52      H       0.2503291558    -1.7994822361     0.4942437619
   53      H       0.9093789922     0.5959915059     3.7937599202
   54      H       1.1769844501    -0.8377291407     2.7434814398
   55      H      -1.1879528534    -0.1381835751     2.8740983944
   56      H      -0.8044597413     1.4808416438     2.1851736362
 ----------------------------------------------------------------

   10   -1510.2529833158      5.73E-09 Convergence criterion met
 Total energy in the final basis set = -1510.25298332
 Final energy is   -1510.25298331579
 **  OPTIMIZATION CONVERGED  **

                    Orbital Energies (a.u.)
 --------------------------------------------------------------

 Alpha MOs
 -- Occupied --
-18.940 -18.916 -18.915 -18.911 -18.890 -18.886 -18.883 -18.879
-18.878 -18.859 -10.104 -10.098 -10.094 -10.080 -10.080 -10.074
-10.068 -10.063 -10.059 -10.051 -10.049 -10.042 -10.036 -10.029
-10.028 -10.026 -10.023 -10.022 -10.013 -10.012  -1.018  -1.003
 -0.992  -0.989  -0.971  -0.959  -0.942  -0.934  -0.930  -0.916
 -0.765  -0.754  -0.724  -0.719  -0.709  -0.707  -0.693  -0.666
 -0.641  -0.610  -0.601  -0.577  -0.549  -0.541  -0.538  -0.528
 -0.515  -0.499  -0.482  -0.468  -0.459  -0.455  -0.446  -0.442
 -0.435  -0.425  -0.422  -0.417  -0.415  -0.408  -0.400  -0.396
 -0.386  -0.384  -0.376  -0.366  -0.355  -0.350  -0.347  -0.342
 -0.341  -0.336  -0.332  -0.329  -0.321  -0.319  -0.316  -0.313
 -0.304  -0.302  -0.300  -0.297  -0.292  -0.284  -0.277  -0.269
 -0.264  -0.259  -0.242  -0.235  -0.234  -0.228  -0.223  -0.184
 -0.171  -0.164  -0.158  -0.158  -0.146  -0.142  -0.138  -0.134
 -0.129

          Ground-State Mulliken Net Atomic Charges

     Atom                 Charge (a.u.)
  ----------------------------------------
      1 O                    -0.199503
      2 C                     0.209765
      3 C                    -0.079847
      4 C                    -0.086964
      5 C                     0.230550
      6 O                    -0.181300
      7 C                    -0.045498
      8 C                    -0.047279
      9 O                    -0.184904
     10 C                     0.210215
     11 C                    -0.079768
     12 C                    -0.077982
     13 C                     0.203231
     14 O                    -0.199648
     15 O                    -0.170992
     16 O                    -0.181813
     17 O                    -0.184835
     18 C                    -0.149016
     19 C                     0.025193
     20 C                    -0.142825
     21 C                    -0.145252
     22 C                     0.026032
     23 O                    -0.182033
     24 H                     0.083644
     25 H                     0.082858
     26 H                     0.085047
     27 H                     0.076875
     28 H                     0.071590
     29 H                     0.076864
     30 H                     0.071683
     31 H                     0.084953
     32 O                    -0.168767
     33 C                    -0.128599
     34 C                     0.026395
     35 C                    -0.143387
     36 C                    -0.144932
     37 C                     0.026063
     38 O                    -0.184455
     39 H                     0.083822
     40 H                     0.074913
     41 H                     0.089811
     42 H                     0.086286
     43 H                     0.079065
     44 H                     0.072924
     45 H                     0.079144
     46 H                     0.071310
     47 H                     0.089365
     48 H                     0.093185
     49 H                     0.091254
     50 H                     0.073162
     51 H                     0.088308
     52 H                     0.113069
     53 H                     0.086172
     54 H                     0.088496
     55 H                     0.076940
     56 H                     0.081417
  ----------------------------------------
  Sum of atomic charges =    -0.000000

                    Cartesian Multipole Moments
 -----------------------------------------------------------------
    Charge (ESU x 10^10)
                 0.0000
    Dipole Moment (Debye)
         X      -1.9784      Y      -0.1948      Z       5.5307
       Tot       5.8771
    Quadrupole Moments (Debye-Ang)
        XX    -135.8137     XY       2.9377     YY    -149.0010
        XZ      -2.3710     YZ       3.9823     ZZ    -164.0912

 Total job time:  52.23s(wall), 2485.76s(cpu)
        *  Thank you very much for using Q-Chem.  Have a nice day.  *
