 Q-Chem 5.0, Q-Chem, Inc., Pleasanton, CA (2017)
 Q-Chem 5.0.1 for Intel X86 EM64T Linux

User input:
--------------------------------------------------------------
$molecule
0  1
O 2.7448177931 -1.7602074368 0.6020889087
C 3.8760140784 -1.2530493512 0.7788580725
C 4.6592310636 -0.3505446086 -0.243108585
C 3.6507713446 0.4417929558 -1.1815828669
C 2.2639649661 -0.3432598043 -1.343612602
O 1.053964839 0.0767131576 -0.6445802718
C 0.5632152089 1.3821858975 -1.1099624171
C -0.9597155494 1.6236431505 -0.7298179722
O -1.956299511 0.5600525573 -0.9904940566
C -1.7791267103 -0.6273585078 -0.2037074186
C -3.1391974472 -1.4125369946 -0.2313299686
C -4.1611711832 -0.9068264888 0.8822514561
C -3.6935991526 0.4415502272 1.54864313
O -2.683295524 0.6063258963 2.2679180266
O 4.6709456554 -1.4732295025 1.9427706946
O -4.595237062 1.4991564663 1.2070306166
O -0.8020518863 -0.9098606051 0.5164821767
C -4.1311234862 2.7693794637 1.8092982291
C -4.0169747125 -1.2509732852 -1.5450539219
C -4.9910524741 -2.4902498998 -1.6168714414
C -5.9916388983 -2.1458930958 -0.4513434925
C -5.4655774604 -0.7239831259 0.003172365
O -4.9314218478 -0.1257243567 -1.2433377905
H -2.8978879305 -2.4757754827 -0.0524581672
H -4.2806068561 -1.6647255208 1.6777271409
H -3.4371774707 -1.0441506681 -2.4650065022
H -5.5038151619 -2.5194412939 -2.5916342816
H -4.4668363136 -3.446874865 -1.4631551989
H -7.0291996436 -2.074838275 -0.8140211653
H -5.9542336878 -2.8804007504 0.3692740715
H -6.228665045 -0.0616920393 0.4537671691
O 2.2033588264 -1.3241378795 -2.1171867009
C 3.9391781454 -2.3444030846 2.8931431923
C 5.3397055051 0.8432351476 0.540289336
C 6.2126177679 1.7076692672 -0.4514786356
C 5.1010454313 2.5340081718 -1.197719333
C 3.7905381771 1.9070886261 -0.5725183123
O 4.1691703 1.7031711768 0.8438201331
H 5.3753068689 -0.9701989041 -0.8133926773
H 4.0629862483 0.4471143196 -2.2075131719
H 3.7692869107 -3.3548198193 2.467985496
H 5.8430515911 0.530116149 1.4749438507
H 6.9012921354 2.3622709353 0.1057248464
H 6.8026027692 1.0766034474 -1.1355224155
H 5.1638251545 3.6058540004 -0.9502989781
H 5.1420923921 2.419938089 -2.2926969838
H 2.9029118248 2.5577154855 -0.6424502714
H 2.9575280601 -1.908745873 3.1690347787
H 4.5806290213 -2.4223199344 3.7900281945
H -4.873506982 3.5340696201 1.5156513511
H -3.1303796868 3.0584949669 1.4283564021
H -4.079988242 2.7043963525 2.9155002246
H -1.0010966196 1.887277114 0.3513504834
H -1.31419729 2.493736303 -1.3191593024
H 0.6688511798 1.4753078756 -2.2144711772
H 1.1085381761 2.233891164 -0.6467077005
$end

$rem
JOBTYPE                   OPT
METHOD                    B3LYP
DFT_D                     d3_op
BASIS                     STO-3G
GEOM_OPT_MAX_CYCLES       100
GEOM_OPT_TOL_GRADIENT     300
GEOM_OPT_TOL_DISPLACEMENT 1200
GEOM_OPT_TOL_ENERGY       100
SYMMETRY                  False
THRESH                    12
SCF_CONVERGENCE           8
MAX_SUB_FILE_NUM          128
MEM_STATIC                400
MEM_TOTAL                 4000
$end
--------------------------------------------------------------

   16   -1510.2388337277      5.47E-09 Convergence criterion met
 Total energy in the final basis set = -1510.23883373
   15   -1510.2438430580      2.51E-09 Convergence criterion met
 Total energy in the final basis set = -1510.24384306
   15   -1510.2486745873      3.27E-09 Convergence criterion met
 Total energy in the final basis set = -1510.24867459
   15   -1510.2520366097      2.69E-09 Convergence criterion met
 Total energy in the final basis set = -1510.25203661
   15   -1510.2550494363      2.12E-09 Convergence criterion met
 Total energy in the final basis set = -1510.25504944
   15   -1510.2585217420      2.26E-09 Convergence criterion met
 Total energy in the final basis set = -1510.25852174
   15   -1510.2508750276      2.99E-09 Convergence criterion met
 Total energy in the final basis set = -1510.25087503
   14   -1510.2593664862      5.44E-09 Convergence criterion met
   13   -1510.2972801185      6.38E-09 Convergence criterion met
 Total energy in the final basis set = -1510.29728012
   11   -1510.2972978192      6.75E-09 Convergence criterion met
 Total energy in the final basis set = -1510.29729782
   11   -1510.2973000896      5.56E-09 Convergence criterion met
 Total energy in the final basis set = -1510.29730009
   11   -1510.2973077088      9.61E-09 Convergence criterion met
 Total energy in the final basis set = -1510.29730771
   11   -1510.2973046274      5.89E-09 Convergence criterion met
 Total energy in the final basis set = -1510.29730463
   10   -1510.2973071740      7.23E-09 Convergence criterion met
 Total energy in the final basis set = -1510.29730717

             Standard Nuclear Orientation (Angstroms)
    I     Atom           X                Y                Z
 ----------------------------------------------------------------
    1      O       0.8529900086    -0.5904299012    -0.4241547514
    2      C       2.0240963813    -1.0199346509    -0.2895850922
    3      C       3.2847454143    -0.4665545948    -1.0325480841
    4      C       3.0227745948     0.9382224884    -1.7129653841
    5      C       1.5792923054     1.5305476810    -1.4982654622
    6      O       1.5001514905     2.1009417777    -0.1803157383
    7      C       0.2001127104     2.7836225901     0.0086919412
    8      C      -0.5382758384     2.2232677727     1.2743522605
    9      O      -1.4917127506     1.1573994250     0.8818029854
   10      C      -1.1693254634    -0.0784431284     1.5099051440
   11      C      -2.1785841427    -1.1714933044     1.0392374863
   12      C      -3.7059357275    -0.7339001063     1.0405975224
   13      C      -3.9233372742     0.7431461789     1.5419175821
   14      O      -3.7621818998     1.1565729228     2.7114520752
   15      O       2.4045156800    -2.0951542790     0.5535693819
   16      O      -4.3916765293     1.5596210175     0.4643191743
   17      O      -0.1930073628    -0.2435744876     2.2837576785
   18      C      -4.5610982754     2.9543351435     0.9280795869
   19      C      -1.9620099764    -1.5071291306    -0.5047365280
   20      C      -2.6369443413    -2.9030897026    -0.7961723254
   21      C      -4.1617433126    -2.5116762860    -0.7593504374
   22      C      -4.0761477487    -0.9570206956    -0.4849472209
   23      O      -2.8442272715    -0.5437729775    -1.1950495842
   24      H      -2.0164780700    -2.0622470731     1.6705842634
   25      H      -4.2895991699    -1.3980226232     1.7044339161
   26      H      -0.9050830066    -1.3766231848    -0.8211068694
   27      H      -2.3397513135    -3.2744791039    -1.7900830652
   28      H      -2.3730648128    -3.6616971911    -0.0419757647
   29      H      -4.6516973056    -2.7049190351    -1.7268140159
   30      H      -4.7175631431    -3.0431359063     0.0297234054
   31      H      -4.9432848387    -0.3652477043    -0.8336283951
   32      O       0.6823181281     1.6306878214    -2.3645562755
   33      C       1.2303242457    -2.6119010615     1.3061758856
   34      C       4.4760933116    -0.1183104431    -0.0415382780
   35      C       5.7967501442     0.0305976724    -0.8949688767
   36      C       5.5477334625     1.4191651552    -1.5935215653
   37      C       4.1385525358     1.8150008538    -0.9972646235
   38      O       4.1760875756     1.2685446035     0.3789247024
   39      H       3.5987526576    -1.2199383164    -1.7790605059
   40      H       3.1855569527     0.8798661725    -2.8036650132
   41      H       0.5340570546    -3.1457555102     0.6275280932
   42      H       4.5402883975    -0.7923294664     0.8344398584
   43      H       6.6790642165     0.0614145043    -0.2361746380
   44      H       5.9213636658    -0.7936760295    -1.6152502120
   45      H       6.3099407291     2.1599097104    -1.3037806007
   46      H       5.5264971632     1.3450806223    -2.6925153679
   47      H       3.9240766313     2.9006083245    -0.9760251626
   48      H       0.6843762899    -1.7817719377     1.8220478880
   49      H       1.6403506527    -3.3267045791     2.0421992376
   50      H      -4.9572080446     3.5173659956     0.0630853302
   51      H      -3.5941926038     3.3951913829     1.2449484933
   52      H      -5.2733648355     3.0222442926     1.7758809484
   53      H       0.1913872050     1.7984973956     1.9988290252
   54      H      -1.1250462193     3.0312608714     1.7598973431
   55      H      -0.4176677306     2.6348722393    -0.9057302965
   56      H       0.3988157493     3.8676079205     0.1516695386
 ----------------------------------------------------------------

    9   -1510.2973068651      5.51E-09 Convergence criterion met
 Total energy in the final basis set = -1510.29730687
 Final energy is   -1510.29730686513
 **  OPTIMIZATION CONVERGED  **

                    Orbital Energies (a.u.)
 --------------------------------------------------------------

 Alpha MOs
 -- Occupied --
-18.942 -18.940 -18.929 -18.918 -18.886 -18.884 -18.879 -18.879
-18.862 -18.861 -10.108 -10.105 -10.093 -10.090 -10.066 -10.060
-10.060 -10.059 -10.058 -10.051 -10.048 -10.045 -10.039 -10.033
-10.033 -10.032 -10.020 -10.018 -10.015 -10.014  -1.020  -1.015
 -1.002  -0.998  -0.968  -0.961  -0.942  -0.940  -0.928  -0.924
 -0.762  -0.758  -0.724  -0.720  -0.710  -0.702  -0.691  -0.658
 -0.656  -0.609  -0.594  -0.576  -0.544  -0.538  -0.536  -0.531
 -0.513  -0.508  -0.486  -0.477  -0.465  -0.461  -0.440  -0.432
 -0.431  -0.428  -0.425  -0.415  -0.410  -0.405  -0.402  -0.401
 -0.398  -0.380  -0.372  -0.365  -0.361  -0.356  -0.353  -0.343
 -0.340  -0.336  -0.331  -0.328  -0.324  -0.319  -0.316  -0.311
 -0.304  -0.301  -0.299  -0.298  -0.294  -0.288  -0.280  -0.275
 -0.267  -0.256  -0.247  -0.243  -0.235  -0.232  -0.224  -0.189
 -0.175  -0.169  -0.160  -0.159  -0.156  -0.145  -0.144  -0.142
 -0.135

          Ground-State Mulliken Net Atomic Charges

     Atom                 Charge (a.u.)
  ----------------------------------------
      1 O                    -0.216143
      2 C                     0.221228
      3 C                    -0.078211
      4 C                    -0.080478
      5 C                     0.215103
      6 O                    -0.174889
      7 C                    -0.055573
      8 C                    -0.052676
      9 O                    -0.163158
     10 C                     0.227461
     11 C                    -0.079641
     12 C                    -0.078204
     13 C                     0.213270
     14 O                    -0.224697
     15 O                    -0.167131
     16 O                    -0.165082
     17 O                    -0.218952
     18 C                    -0.126036
     19 C                     0.017158
     20 C                    -0.145109
     21 C                    -0.144803
     22 C                     0.025172
     23 O                    -0.184496
     24 H                     0.081579
     25 H                     0.082233
     26 H                     0.102561
     27 H                     0.076611
     28 H                     0.069659
     29 H                     0.076712
     30 H                     0.071044
     31 H                     0.089489
     32 O                    -0.216881
     33 C                    -0.145695
     34 C                     0.024743
     35 C                    -0.143738
     36 C                    -0.144542
     37 C                     0.026925
     38 O                    -0.186426
     39 H                     0.085961
     40 H                     0.083663
     41 H                     0.077048
     42 H                     0.089938
     43 H                     0.078073
     44 H                     0.073091
     45 H                     0.077611
     46 H                     0.073374
     47 H                     0.084569
     48 H                     0.115360
     49 H                     0.085833
     50 H                     0.090210
     51 H                     0.085666
     52 H                     0.087739
     53 H                     0.108889
     54 H                     0.084470
     55 H                     0.109486
     56 H                     0.080631
  ----------------------------------------
  Sum of atomic charges =    -0.000000

                    Cartesian Multipole Moments
 -----------------------------------------------------------------
    Charge (ESU x 10^10)
                -0.0000
    Dipole Moment (Debye)
         X       0.5913      Y      -1.0919      Z      -0.5904
       Tot       1.3749
    Quadrupole Moments (Debye-Ang)
        XX    -145.6499     XY       0.3374     YY    -145.3268
        XZ      -7.9931     YZ      -0.1026     ZZ    -169.3205

 Total job time:  134.88s(wall), 6435.00s(cpu)
        *  Thank you very much for using Q-Chem.  Have a nice day.  *
