 Q-Chem 5.0, Q-Chem, Inc., Pleasanton, CA (2017)
 Q-Chem 5.0.1 for Intel X86 EM64T Linux

User input:
--------------------------------------------------------------
$molecule
0  1
O -3.94934 -3.66094 2.70899
C -3.26408 -4.56952 2.26188
C -3.36658 -6.02376 2.66595
C -4.73745 -6.52338 3.15068
C -5.89497 -5.55994 3.00924
O -6.68105 -5.93055 1.9556
C -7.34709 -7.18072 2.16229
C -8.53026 -7.30993 1.20859
O -9.30799 -6.10259 1.22722
C -8.68884 -5.00244 0.73178
C -9.65412 -3.90455 0.35291
C -10.24951 -4.02435 -1.05756
C -10.08476 -5.37139 -1.73212
O -9.02197 -5.86291 -2.08344
O -2.19222 -4.24601 1.49098
O -11.21399 -6.09725 -1.96337
O -7.6648 -5.04409 0.05534
C -11.23608 -7.34712 -2.54649
C -10.94059 -3.82636 1.20389
C -11.48628 -2.40066 1.17214
C -11.96203 -2.31421 -0.26358
C -11.73428 -3.76279 -0.7169
O -11.90685 -4.52221 0.45523
H -9.09476 -2.95026 0.48689
H -9.83711 -3.26715 -1.75972
H -10.79742 -4.1596 2.255
H -12.37474 -2.38482 1.84385
H -10.78006 -1.60199 1.4855
H -13.04464 -2.05769 -0.25794
H -11.40269 -1.60119 -0.90733
H -12.41576 -4.00127 -1.56255
O -6.06656 -4.52505 3.63406
C -1.88881 -2.96622 1.0758
C -3.06062 -7.0535 1.54063
C -2.27894 -8.19742 2.16008
C -3.33636 -8.73666 3.09815
C -4.58717 -7.96806 2.59232
O -4.28728 -7.69079 1.25454
H -2.58424 -6.12326 3.45509
H -4.70239 -6.64823 4.25576
H -1.71176 -2.30959 1.95428
H -2.52259 -6.64099 0.66027
H -2.0982 -8.93031 1.3403
H -1.3105 -7.94569 2.64377
H -3.39997 -9.83687 2.94178
H -3.16875 -8.51557 4.17491
H -5.38751 -8.66829 2.88083
H -2.71954 -2.55709 0.46178
H -0.96768 -2.99299 0.45833
H -12.28568 -7.7003 -2.60962
H -10.65289 -8.06561 -1.93143
H -10.81216 -7.29874 -3.57224
H -8.19238 -7.49454 0.16022
H -9.1586 -8.17701 1.50694
H -7.72855 -7.26997 3.2063
H -6.82516 -8.04314 1.75769
$end

$opt
CONSTRAINT
tors           1           2           3           4     +28.421
tors           3           4           5           6    +104.211
tors           4           5           6           7     +66.316
tors           5           6           7           8    +161.053
tors           6           7           8           9     -47.368
tors           7           8           9          10     +66.316
tors           8           9          10          11    +161.053
tors           9          10          11          12     -85.263
tors          11          12          13          14     -66.316
ENDCONSTRAINT
$end

$rem
JOBTYPE                   OPT
METHOD                    B3LYP
DFT_D                     d3_op
BASIS                     STO-3G
GEOM_OPT_MAX_CYCLES       100
GEOM_OPT_TOL_GRADIENT     300
GEOM_OPT_TOL_DISPLACEMENT 1200
GEOM_OPT_TOL_ENERGY       100
SYMMETRY                  False
THRESH                    12
SCF_CONVERGENCE           8
MAX_SUB_FILE_NUM          128
MEM_STATIC                400
MEM_TOTAL                 4000
$end
--------------------------------------------------------------

   15   -1510.0568202708      7.72E-09 Convergence criterion met
 Total energy in the final basis set = -1510.05682027
   14   -1510.1372575620      5.99E-09 Convergence criterion met
 Total energy in the final basis set = -1510.13725756
   14   -1510.1829562492      6.40E-09 Convergence criterion met
 Total energy in the final basis set = -1510.18295625
   14   -1510.2105461216      7.78E-09 Convergence criterion met
 Total energy in the final basis set = -1510.21054612
   14   -1510.2233667924      5.43E-09 Convergence criterion met
 Total energy in the final basis set = -1510.22336679
   14   -1510.2292968699      5.21E-09 Convergence criterion met
 Total energy in the final basis set = -1510.22929687
   14   -1510.2320787706      2.48E-09 Convergence criterion met
 Total energy in the final basis set = -1510.23207877
   13   -1510.2333419383      5.13E-09 Convergence criterion met
   11   -1510.2387732052      3.72E-09 Convergence criterion met
 Total energy in the final basis set = -1510.23877321
   11   -1510.2387820087      3.93E-09 Convergence criterion met
 Total energy in the final basis set = -1510.23878201
   11   -1510.2387877842      3.94E-09 Convergence criterion met
 Total energy in the final basis set = -1510.23878778
   11   -1510.2387918886      3.71E-09 Convergence criterion met
 Total energy in the final basis set = -1510.23879189
   10   -1510.2387948886      8.56E-09 Convergence criterion met
 Total energy in the final basis set = -1510.23879489
   10   -1510.2387963817      9.78E-09 Convergence criterion met
 Total energy in the final basis set = -1510.23879638

             Standard Nuclear Orientation (Angstroms)
    I     Atom           X                Y                Z
 ----------------------------------------------------------------
    1      O       2.7448177931    -1.7602074368     0.6020889087
    2      C       3.8760140784    -1.2530493512     0.7788580725
    3      C       4.6592310636    -0.3505446086    -0.2431085850
    4      C       3.6507713446     0.4417929558    -1.1815828669
    5      C       2.2639649661    -0.3432598043    -1.3436126020
    6      O       1.0539648390     0.0767131576    -0.6445802718
    7      C       0.5632152089     1.3821858975    -1.1099624171
    8      C      -0.9597155494     1.6236431505    -0.7298179722
    9      O      -1.9562995110     0.5600525573    -0.9904940566
   10      C      -1.7791267103    -0.6273585078    -0.2037074186
   11      C      -3.1391974472    -1.4125369946    -0.2313299686
   12      C      -4.1611711832    -0.9068264888     0.8822514561
   13      C      -3.6935991526     0.4415502272     1.5486431300
   14      O      -2.6832955240     0.6063258963     2.2679180266
   15      O       4.6709456554    -1.4732295025     1.9427706946
   16      O      -4.5952370620     1.4991564663     1.2070306166
   17      O      -0.8020518863    -0.9098606051     0.5164821767
   18      C      -4.1311234862     2.7693794637     1.8092982291
   19      C      -4.0169747125    -1.2509732852    -1.5450539219
   20      C      -4.9910524741    -2.4902498998    -1.6168714414
   21      C      -5.9916388983    -2.1458930958    -0.4513434925
   22      C      -5.4655774604    -0.7239831259     0.0031723650
   23      O      -4.9314218478    -0.1257243567    -1.2433377905
   24      H      -2.8978879305    -2.4757754827    -0.0524581672
   25      H      -4.2806068561    -1.6647255208     1.6777271409
   26      H      -3.4371774707    -1.0441506681    -2.4650065022
   27      H      -5.5038151619    -2.5194412939    -2.5916342816
   28      H      -4.4668363136    -3.4468748650    -1.4631551989
   29      H      -7.0291996436    -2.0748382750    -0.8140211653
   30      H      -5.9542336878    -2.8804007504     0.3692740715
   31      H      -6.2286650450    -0.0616920393     0.4537671691
   32      O       2.2033588264    -1.3241378795    -2.1171867009
   33      C       3.9391781454    -2.3444030846     2.8931431923
   34      C       5.3397055051     0.8432351476     0.5402893360
   35      C       6.2126177679     1.7076692672    -0.4514786356
   36      C       5.1010454313     2.5340081718    -1.1977193330
   37      C       3.7905381771     1.9070886261    -0.5725183123
   38      O       4.1691703000     1.7031711768     0.8438201331
   39      H       5.3753068689    -0.9701989041    -0.8133926773
   40      H       4.0629862483     0.4471143196    -2.2075131719
   41      H       3.7692869107    -3.3548198193     2.4679854960
   42      H       5.8430515911     0.5301161490     1.4749438507
   43      H       6.9012921354     2.3622709353     0.1057248464
   44      H       6.8026027692     1.0766034474    -1.1355224155
   45      H       5.1638251545     3.6058540004    -0.9502989781
   46      H       5.1420923921     2.4199380890    -2.2926969838
   47      H       2.9029118248     2.5577154855    -0.6424502714
   48      H       2.9575280601    -1.9087458730     3.1690347787
   49      H       4.5806290213    -2.4223199344     3.7900281945
   50      H      -4.8735069820     3.5340696201     1.5156513511
   51      H      -3.1303796868     3.0584949669     1.4283564021
   52      H      -4.0799882420     2.7043963525     2.9155002246
   53      H      -1.0010966196     1.8872771140     0.3513504834
   54      H      -1.3141972900     2.4937363030    -1.3191593024
   55      H       0.6688511798     1.4753078756    -2.2144711772
   56      H       1.1085381761     2.2338911640    -0.6467077005
 ----------------------------------------------------------------

   10   -1510.2387970980      8.52E-09 Convergence criterion met
 Total energy in the final basis set = -1510.23879710
 Final energy is   -1510.23879709802
 **  OPTIMIZATION CONVERGED  **

                    Orbital Energies (a.u.)
 --------------------------------------------------------------

 Alpha MOs
 -- Occupied --
-18.939 -18.933 -18.919 -18.896 -18.887 -18.883 -18.878 -18.872
-18.870 -18.868 -10.100 -10.094 -10.093 -10.087 -10.068 -10.067
-10.063 -10.062 -10.060 -10.058 -10.051 -10.050 -10.038 -10.032
-10.030 -10.026 -10.021 -10.020 -10.014 -10.012  -1.015  -1.008
 -0.996  -0.985  -0.971  -0.961  -0.938  -0.931  -0.926  -0.920
 -0.761  -0.755  -0.723  -0.717  -0.707  -0.703  -0.691  -0.661
 -0.658  -0.603  -0.594  -0.577  -0.546  -0.539  -0.538  -0.529
 -0.513  -0.505  -0.481  -0.473  -0.467  -0.460  -0.445  -0.435
 -0.431  -0.425  -0.418  -0.411  -0.410  -0.404  -0.402  -0.397
 -0.386  -0.382  -0.375  -0.370  -0.360  -0.349  -0.343  -0.342
 -0.336  -0.333  -0.332  -0.325  -0.323  -0.319  -0.317  -0.311
 -0.304  -0.301  -0.300  -0.299  -0.285  -0.281  -0.279  -0.272
 -0.267  -0.255  -0.252  -0.237  -0.234  -0.225  -0.221  -0.179
 -0.174  -0.168  -0.154  -0.150  -0.146  -0.146  -0.138  -0.135
 -0.124

          Ground-State Mulliken Net Atomic Charges

     Atom                 Charge (a.u.)
  ----------------------------------------
      1 O                    -0.194441
      2 C                     0.214869
      3 C                    -0.076531
      4 C                    -0.087173
      5 C                     0.220996
      6 O                    -0.176086
      7 C                    -0.044405
      8 C                    -0.046431
      9 O                    -0.174831
     10 C                     0.211658
     11 C                    -0.078939
     12 C                    -0.077196
     13 C                     0.206296
     14 O                    -0.215028
     15 O                    -0.168694
     16 O                    -0.165264
     17 O                    -0.183241
     18 C                    -0.126941
     19 C                     0.025289
     20 C                    -0.143200
     21 C                    -0.145338
     22 C                     0.024293
     23 O                    -0.188128
     24 H                     0.083154
     25 H                     0.085156
     26 H                     0.086504
     27 H                     0.076194
     28 H                     0.073365
     29 H                     0.076222
     30 H                     0.071952
     31 H                     0.088184
     32 O                    -0.193400
     33 C                    -0.127725
     34 C                     0.022683
     35 C                    -0.145379
     36 C                    -0.142484
     37 C                     0.020862
     38 O                    -0.192038
     39 H                     0.087795
     40 H                     0.080570
     41 H                     0.090605
     42 H                     0.091641
     43 H                     0.078055
     44 H                     0.074023
     45 H                     0.076856
     46 H                     0.072993
     47 H                     0.079167
     48 H                     0.097301
     49 H                     0.090966
     50 H                     0.090746
     51 H                     0.086742
     52 H                     0.088642
     53 H                     0.084964
     54 H                     0.088033
     55 H                     0.072997
     56 H                     0.073120
  ----------------------------------------
  Sum of atomic charges =     0.000000

                    Cartesian Multipole Moments
 -----------------------------------------------------------------
    Charge (ESU x 10^10)
                 0.0000
    Dipole Moment (Debye)
         X       1.0356      Y       1.5688      Z       0.0326
       Tot       1.8801
    Quadrupole Moments (Debye-Ang)
        XX    -138.8140     XY       4.9436     YY    -149.3251
        XZ      -6.1470     YZ      -6.0843     ZZ    -158.5260

 Total job time:  102.99s(wall), 4897.14s(cpu)
        *  Thank you very much for using Q-Chem.  Have a nice day.  *
