 Q-Chem 5.0, Q-Chem, Inc., Pleasanton, CA (2017)
 Q-Chem 5.0.1 for Intel X86 EM64T Linux

User input:
--------------------------------------------------------------
$molecule
0  1
O -4.4875818298 -1.7623425958 1.0549587141
C -4.704446561 -0.8334549433 0.2462258713
C -4.4097051417 0.6941945268 0.4821220268
C -2.9563912334 0.9507838275 1.0678853471
C -2.3383531458 -0.3201539265 1.822620212
O -1.6131050885 -1.4584706023 1.3239131386
C -0.4771649765 -1.449723339 0.3844906735
C -0.5438886484 -0.5881459455 -0.946431851
O 0.7139644583 0.0779592146 -1.3589793847
C 1.8946704508 -0.6411667305 -0.9132184643
C 2.7697290365 0.3415938661 -0.0482200642
C 3.8469792599 -0.291016381 0.9181835783
C 4.5052810568 -1.6550202803 0.4909611108
O 5.1006623318 -2.4452072625 1.2577997563
O -5.2993120288 -1.025836151 -1.0400252424
O 4.5794074136 -1.7261728994 -0.9334694468
O 2.0501068085 -1.8663840763 -1.0965254851
C 5.3007976895 -2.950378988 -1.3458329412
C 3.6282057479 1.4511794083 -0.8146290776
C 3.6371729264 2.7276270827 0.1112706274
C 4.5169276314 2.2031359721 1.3081796487
C 5.0001185138 0.8016892817 0.7530832075
O 5.0274151554 0.9816988034 -0.7177536324
H 2.0238307452 0.8690445244 0.5743224691
H 3.4809573549 -0.3776947121 1.9561892981
H 3.34109648 1.6223376534 -1.8701275673
H 4.1252259689 3.569685425 -0.4059333197
H 2.6265806778 3.0377983692 0.4213816919
H 5.3784787466 2.861268911 1.5024510842
H 3.9399495104 2.0966075788 2.2411650692
H 5.9906471178 0.469922792 1.1211387375
O -2.6468645501 -0.4206012873 3.0364827667
C -5.585953016 -2.4633793041 -1.2546615924
C -4.3094125351 1.5076859344 -0.8809747256
C -4.3920196381 3.0468400657 -0.5495971879
C -2.9650798034 3.3017003171 0.0601114106
C -2.313367108 1.8656005016 -0.0525635512
O -2.8936198312 1.3255227944 -1.3059618469
H -5.1867841779 1.1016276906 1.15314819
H -3.0926516249 1.6057244348 1.9489330252
H -6.3287663807 -2.8444607721 -0.524244861
H -4.9937908134 1.1436648853 -1.6706262201
H -4.5500474538 3.6324419915 -1.4692082849
H -5.2045619897 3.2725172723 0.1592952428
H -2.390346198 4.0216411952 -0.5440808461
H -3.0018184682 3.6632265786 1.1000941077
H -1.2086082593 1.8874910057 -0.0865551551
H -4.6662541474 -3.0777846402 -1.174228225
H -5.9980581254 -2.5415357582 -2.277553767
H 5.4041299054 -2.8855500947 -2.4444720547
H 4.7297909512 -3.8640790147 -1.0821603609
H 6.3042435504 -3.0117439779 -0.8772613111
H -0.8440767561 -1.2955554114 -1.7545542063
H -1.339458207 0.1747374095 -0.9356425311
H -0.3454024564 -2.5188194273 0.1222849199
H 0.4250980696 -1.1363213999 0.9605571545
$end

$rem
JOBTYPE                   OPT
METHOD                    B3LYP
DFT_D                     d3_op
BASIS                     STO-3G
GEOM_OPT_MAX_CYCLES       100
GEOM_OPT_TOL_GRADIENT     300
GEOM_OPT_TOL_DISPLACEMENT 1200
GEOM_OPT_TOL_ENERGY       100
SYMMETRY                  False
THRESH                    12
SCF_CONVERGENCE           8
MAX_SUB_FILE_NUM          128
MEM_STATIC                400
MEM_TOTAL                 4000
$end
--------------------------------------------------------------

   16   -1510.2059103419      7.30E-09 Convergence criterion met
 Total energy in the final basis set = -1510.20591034
   14   -1510.2186873351      5.00E-09 Convergence criterion met
 Total energy in the final basis set = -1510.21868734
   14   -1510.2232716012      6.35E-09 Convergence criterion met
 Total energy in the final basis set = -1510.22327160
   14   -1510.2323017108      2.43E-09 Convergence criterion met
 Total energy in the final basis set = -1510.23230171
   13   -1510.2382177159      9.39E-09 Convergence criterion met
 Total energy in the final basis set = -1510.23821772
   13   -1510.2431231945      7.10E-09 Convergence criterion met
 Total energy in the final basis set = -1510.24312319
   13   -1510.2472765756      7.70E-09 Convergence criterion met
 Total energy in the final basis set = -1510.24727658
   13   -1510.2508174709      6.82E-09 Convergence criterion met
   12   -1510.2743282040      8.34E-09 Convergence criterion met
 Total energy in the final basis set = -1510.27432820
   12   -1510.2743688082      6.50E-09 Convergence criterion met
 Total energy in the final basis set = -1510.27436881
   12   -1510.2743885363      3.78E-09 Convergence criterion met
 Total energy in the final basis set = -1510.27438854
   11   -1510.2743935369      8.50E-09 Convergence criterion met
 Total energy in the final basis set = -1510.27439354
   12   -1510.2744029727      4.78E-09 Convergence criterion met
 Total energy in the final basis set = -1510.27440297
   11   -1510.2744122762      5.09E-09 Convergence criterion met
 Total energy in the final basis set = -1510.27441228

             Standard Nuclear Orientation (Angstroms)
    I     Atom           X                Y                Z
 ----------------------------------------------------------------
    1      O      -2.1919434560    -2.0965272082     0.7820249061
    2      C      -2.6763550397    -1.4096838770    -0.1476680553
    3      C      -3.8434133102    -0.3680993498    -0.0162170646
    4      C      -4.0124898441     0.1861689339     1.4637814972
    5      C      -3.3504101734    -0.7262321494     2.6054773097
    6      O      -2.0927014823    -0.5233973143     3.2751145764
    7      C      -1.1418412504     0.5188287148     2.8316756271
    8      C      -0.5736762923     0.2836310044     1.3885346661
    9      O       0.7998206931     0.8494596919     1.3193701352
   10      C       1.6347780265     0.0417720402     0.5011525116
   11      C       3.0505004364     0.7029703697     0.4330168127
   12      C       4.0996849584    -0.1414275134    -0.3997341851
   13      C       3.5639597179    -1.5272349783    -0.9226112035
   14      O       3.7043127961    -2.6320388920    -0.3542022923
   15      O      -2.2141839897    -1.4344395658    -1.4914957825
   16      O       2.9992081880    -1.3605496626    -2.2304895084
   17      O       1.2809288947    -1.0237520856    -0.0611682536
   18      C       2.5105501855    -2.6653992110    -2.7268962193
   19      C       3.0155808723     2.0556261495    -0.4052035825
   20      C       4.3552286070     2.8427289636    -0.1228489740
   21      C       5.3825960992     2.0076066690    -0.9730711603
   22      C       4.4452888606     0.8817593527    -1.5646989492
   23      O       3.1650804234     1.5898641435    -1.8010491187
   24      H       3.3968268720     0.8854438210     1.4664196941
   25      H       4.9866931385    -0.3598682666     0.2212550352
   26      H       2.0840227098     2.6420431405    -0.2818029374
   27      H       4.2765652084     3.8798650706    -0.4858084055
   28      H       4.6042629623     2.8611254038     0.9500797822
   29      H       5.8177478607     2.6111949541    -1.7853212697
   30      H       6.2008189284     1.5905377681    -0.3647292647
   31      H       4.8020711461     0.4082990049    -2.4990735917
   32      O      -4.0379449695    -1.6643249471     3.0727706107
   33      C      -1.0014852846    -2.2862043512    -1.5998202498
   34      C      -3.5361337204     0.9640459108    -0.8142978242
   35      C      -4.8428925811     1.8420441952    -0.8849307422
   36      C      -4.9111917125     2.4115552879     0.5812556732
   37      C      -3.6538979027     1.7201579149     1.2421390518
   38      O      -2.6712255405     1.7222206001     0.1261194224
   39      H      -4.7767982383    -0.8415885361    -0.3722312557
   40      H      -5.0833693199     0.1235059081     1.7275739023
   41      H      -1.1976473350    -3.3141944018    -1.2350871939
   42      H      -3.0094148620     0.7972083933    -1.7736699732
   43      H      -4.7269799527     2.6478411416    -1.6269831591
   44      H      -5.7279904358     1.2421979571    -1.1503428863
   45      H      -4.7916065892     3.5067631339     0.5930000585
   46      H      -5.8484782650     2.1518640038     1.0983966156
   47      H      -3.2525142552     2.2574038737     2.1203643243
   48      H      -0.1538513831    -1.8434872830    -1.0236911488
   49      H      -0.7542350417    -2.3138482773    -2.6763150190
   50      H       1.9868683790    -2.4551757021    -3.6776466544
   51      H       1.8095307423    -3.1366716142    -2.0092498824
   52      H       3.3467229424    -3.3704690856    -2.9150341119
   53      H      -0.5415644531    -0.8047863688     1.1794874236
   54      H      -1.2447437402     0.8045713743     0.6549579674
   55      H      -0.3103910132     0.4362197637     3.5635501219
   56      H      -1.5692537091     1.5382006554     2.9256929769
 ----------------------------------------------------------------

   10   -1510.2744129350      7.69E-09 Convergence criterion met
 Total energy in the final basis set = -1510.27441293
 Final energy is   -1510.27441293499
 **  OPTIMIZATION CONVERGED  **

                    Orbital Energies (a.u.)
 --------------------------------------------------------------

 Alpha MOs
 -- Occupied --
-18.942 -18.941 -18.924 -18.921 -18.917 -18.888 -18.888 -18.884
-18.858 -18.857 -10.110 -10.107 -10.095 -10.089 -10.076 -10.074
-10.070 -10.061 -10.058 -10.054 -10.051 -10.048 -10.045 -10.042
-10.041 -10.033 -10.033 -10.032 -10.021 -10.019  -1.020  -1.018
 -0.997  -0.995  -0.991  -0.970  -0.944  -0.942  -0.924  -0.922
 -0.774  -0.763  -0.732  -0.724  -0.717  -0.711  -0.696  -0.661
 -0.652  -0.612  -0.602  -0.583  -0.558  -0.551  -0.545  -0.537
 -0.520  -0.513  -0.486  -0.480  -0.469  -0.461  -0.457  -0.448
 -0.442  -0.434  -0.427  -0.420  -0.412  -0.408  -0.406  -0.402
 -0.394  -0.382  -0.379  -0.368  -0.364  -0.357  -0.350  -0.349
 -0.347  -0.338  -0.335  -0.332  -0.330  -0.327  -0.324  -0.321
 -0.314  -0.311  -0.307  -0.304  -0.300  -0.285  -0.280  -0.279
 -0.274  -0.259  -0.255  -0.249  -0.242  -0.234  -0.229  -0.191
 -0.182  -0.166  -0.164  -0.162  -0.160  -0.153  -0.145  -0.138
 -0.137

          Ground-State Mulliken Net Atomic Charges

     Atom                 Charge (a.u.)
  ----------------------------------------
      1 O                    -0.206247
      2 C                     0.212024
      3 C                    -0.080144
      4 C                    -0.086881
      5 C                     0.209532
      6 O                    -0.167481
      7 C                    -0.048513
      8 C                    -0.084868
      9 O                    -0.171943
     10 C                     0.221217
     11 C                    -0.077683
     12 C                    -0.081700
     13 C                     0.213735
     14 O                    -0.221225
     15 O                    -0.170624
     16 O                    -0.170127
     17 O                    -0.212590
     18 C                    -0.127432
     19 C                     0.025203
     20 C                    -0.143764
     21 C                    -0.144327
     22 C                     0.026150
     23 O                    -0.188048
     24 H                     0.087406
     25 H                     0.083317
     26 H                     0.086070
     27 H                     0.077885
     28 H                     0.073786
     29 H                     0.077628
     30 H                     0.073713
     31 H                     0.087743
     32 O                    -0.206313
     33 C                    -0.143620
     34 C                     0.023915
     35 C                    -0.143565
     36 C                    -0.141765
     37 C                     0.020897
     38 O                    -0.187766
     39 H                     0.090663
     40 H                     0.089182
     41 H                     0.087821
     42 H                     0.097622
     43 H                     0.081649
     44 H                     0.077985
     45 H                     0.080615
     46 H                     0.078058
     47 H                     0.084515
     48 H                     0.114157
     49 H                     0.086130
     50 H                     0.085795
     51 H                     0.091746
     52 H                     0.084050
     53 H                     0.100377
     54 H                     0.107229
     55 H                     0.092709
     56 H                     0.076099
  ----------------------------------------
  Sum of atomic charges =    -0.000000

                    Cartesian Multipole Moments
 -----------------------------------------------------------------
    Charge (ESU x 10^10)
                 0.0000
    Dipole Moment (Debye)
         X      -0.4025      Y       3.9688      Z      -1.9948
       Tot       4.4601
    Quadrupole Moments (Debye-Ang)
        XX    -143.8375     XY      -5.0805     YY    -164.0597
        XZ       8.9437     YZ      15.6443     ZZ    -166.6361

 Total job time:  141.65s(wall), 6743.94s(cpu)
        *  Thank you very much for using Q-Chem.  Have a nice day.  *
