 Q-Chem 5.0, Q-Chem, Inc., Pleasanton, CA (2017)
 Q-Chem 5.0.1 for Intel X86 EM64T Linux

User input:
--------------------------------------------------------------
$molecule
0  1
O -3.94934 -3.66094 2.70899
C -3.26408 -4.56952 2.26188
C -3.36658 -6.02376 2.66595
C -4.77372 -6.64113 2.71769
C -5.90468 -5.78727 2.1886
O -6.00894 -5.94176 0.83558
C -5.98435 -7.31192 0.42169
C -4.83878 -8.04804 1.10867
O -5.24971 -9.38062 1.45254
C -6.20109 -9.92227 0.65214
C -7.43031 -10.35993 1.4125
C -8.68965 -10.54798 0.55403
C -8.46387 -10.62377 -0.94263
O -9.31817 -10.44359 -1.79835
O -2.33689 -4.29107 1.31059
O -7.50243 -11.52194 -1.31924
O -6.08273 -9.79815 -0.55772
C -7.25929 -11.93824 -2.61365
C -7.31093 -11.7417 2.07582
C -8.29216 -11.83085 3.24393
C -9.61411 -11.88757 2.50076
C -9.11435 -11.94469 1.05177
O -7.88516 -12.62751 1.14673
H -7.6148 -9.58591 2.19306
H -9.45832 -9.76451 0.73529
H -6.27796 -11.97954 2.41139
H -8.1196 -12.8142 3.73765
H -8.20871 -11.02248 4.00186
H -10.13072 -12.83344 2.77729
H -10.28984 -11.02044 2.66481
H -9.87925 -12.40845 0.39028
O -6.38705 -4.78947 2.72637
C -2.10814 -3.03254 0.79539
C -2.43711 -7.13469 3.29219
C -2.37959 -7.12946 4.83623
C -3.83658 -7.50237 5.14584
C -4.37043 -7.8584 3.71548
O -3.17442 -8.32371 3.12854
H -3.33583 -5.49438 3.63502
H -5.2274 -6.30711 3.66753
H -1.79094 -2.33946 1.60366
H -1.4347 -7.15576 2.81512
H -1.71232 -7.9694 5.13673
H -2.01946 -6.19343 5.31563
H -3.82044 -8.40006 5.80234
H -4.4323 -6.70471 5.63971
H -5.18363 -8.6143 3.78759
H -3.02887 -2.64575 0.30827
H -1.30075 -3.0911 0.03696
H -6.41473 -12.65736 -2.61085
H -6.98698 -11.068 -3.24832
H -8.15597 -12.4439 -3.03121
H -4.33081 -8.25954 0.13936
H -3.74598 -7.84795 0.99115
H -6.00017 -7.35185 -0.69427
H -6.97601 -7.67802 0.76802
$end

$opt
CONSTRAINT
tors           1           2           3           4     +47.368
tors           3           4           5           6     +85.263
tors           4           5           6           7     +47.368
tors           5           6           7           8     -47.368
tors           6           7           8           9    +142.105
tors           7           8           9          10     +28.421
tors           8           9          10          11    -123.158
tors           9          10          11          12    +161.053
tors          11          12          13          14    -161.053
ENDCONSTRAINT
$end

$rem
JOBTYPE                   OPT
METHOD                    B3LYP
DFT_D                     d3_op
BASIS                     STO-3G
GEOM_OPT_MAX_CYCLES       100
GEOM_OPT_TOL_GRADIENT     300
GEOM_OPT_TOL_DISPLACEMENT 1200
GEOM_OPT_TOL_ENERGY       100
SYMMETRY                  False
THRESH                    12
SCF_CONVERGENCE           8
MAX_SUB_FILE_NUM          128
MEM_STATIC                400
MEM_TOTAL                 4000
$end
--------------------------------------------------------------

   16   -1509.7183835107      5.17E-09 Convergence criterion met
 Total energy in the final basis set = -1509.71838351
   15   -1509.8149150736      3.21E-09 Convergence criterion met
 Total energy in the final basis set = -1509.81491507
   15   -1509.8840170290      2.31E-09 Convergence criterion met
 Total energy in the final basis set = -1509.88401703
   14   -1509.9320860815      6.48E-09 Convergence criterion met
 Total energy in the final basis set = -1509.93208608
   14   -1509.9695759695      6.92E-09 Convergence criterion met
 Total energy in the final basis set = -1509.96957597
   13   -1509.9999588141      7.73E-09 Convergence criterion met
 Total energy in the final basis set = -1509.99995881
   14   -1510.0259307471      5.21E-09 Convergence criterion met
 Total energy in the final basis set = -1510.02593075
   13   -1510.0489922174      8.05E-09 Convergence criterion met
   11   -1510.2058348576      6.42E-09 Convergence criterion met
 Total energy in the final basis set = -1510.20583486
   11   -1510.2058616637      5.21E-09 Convergence criterion met
 Total energy in the final basis set = -1510.20586166
   10   -1510.2058745443      6.83E-09 Convergence criterion met
 Total energy in the final basis set = -1510.20587454
   10   -1510.2058829472      4.44E-09 Convergence criterion met
 Total energy in the final basis set = -1510.20588295
    9   -1510.2058879002      7.95E-09 Convergence criterion met
 Total energy in the final basis set = -1510.20588790
    9   -1510.2058893315      6.73E-09 Convergence criterion met
 Total energy in the final basis set = -1510.20588933

             Standard Nuclear Orientation (Angstroms)
    I     Atom           X                Y                Z
 ----------------------------------------------------------------
    1      O      -4.4875818298    -1.7623425958     1.0549587141
    2      C      -4.7044465610    -0.8334549433     0.2462258713
    3      C      -4.4097051417     0.6941945268     0.4821220268
    4      C      -2.9563912334     0.9507838275     1.0678853471
    5      C      -2.3383531458    -0.3201539265     1.8226202120
    6      O      -1.6131050885    -1.4584706023     1.3239131386
    7      C      -0.4771649765    -1.4497233390     0.3844906735
    8      C      -0.5438886484    -0.5881459455    -0.9464318510
    9      O       0.7139644583     0.0779592146    -1.3589793847
   10      C       1.8946704508    -0.6411667305    -0.9132184643
   11      C       2.7697290365     0.3415938661    -0.0482200642
   12      C       3.8469792599    -0.2910163810     0.9181835783
   13      C       4.5052810568    -1.6550202803     0.4909611108
   14      O       5.1006623318    -2.4452072625     1.2577997563
   15      O      -5.2993120288    -1.0258361510    -1.0400252424
   16      O       4.5794074136    -1.7261728994    -0.9334694468
   17      O       2.0501068085    -1.8663840763    -1.0965254851
   18      C       5.3007976895    -2.9503789880    -1.3458329412
   19      C       3.6282057479     1.4511794083    -0.8146290776
   20      C       3.6371729264     2.7276270827     0.1112706274
   21      C       4.5169276314     2.2031359721     1.3081796487
   22      C       5.0001185138     0.8016892817     0.7530832075
   23      O       5.0274151554     0.9816988034    -0.7177536324
   24      H       2.0238307452     0.8690445244     0.5743224691
   25      H       3.4809573549    -0.3776947121     1.9561892981
   26      H       3.3410964800     1.6223376534    -1.8701275673
   27      H       4.1252259689     3.5696854250    -0.4059333197
   28      H       2.6265806778     3.0377983692     0.4213816919
   29      H       5.3784787466     2.8612689110     1.5024510842
   30      H       3.9399495104     2.0966075788     2.2411650692
   31      H       5.9906471178     0.4699227920     1.1211387375
   32      O      -2.6468645501    -0.4206012873     3.0364827667
   33      C      -5.5859530160    -2.4633793041    -1.2546615924
   34      C      -4.3094125351     1.5076859344    -0.8809747256
   35      C      -4.3920196381     3.0468400657    -0.5495971879
   36      C      -2.9650798034     3.3017003171     0.0601114106
   37      C      -2.3133671080     1.8656005016    -0.0525635512
   38      O      -2.8936198312     1.3255227944    -1.3059618469
   39      H      -5.1867841779     1.1016276906     1.1531481900
   40      H      -3.0926516249     1.6057244348     1.9489330252
   41      H      -6.3287663807    -2.8444607721    -0.5242448610
   42      H      -4.9937908134     1.1436648853    -1.6706262201
   43      H      -4.5500474538     3.6324419915    -1.4692082849
   44      H      -5.2045619897     3.2725172723     0.1592952428
   45      H      -2.3903461980     4.0216411952    -0.5440808461
   46      H      -3.0018184682     3.6632265786     1.1000941077
   47      H      -1.2086082593     1.8874910057    -0.0865551551
   48      H      -4.6662541474    -3.0777846402    -1.1742282250
   49      H      -5.9980581254    -2.5415357582    -2.2775537670
   50      H       5.4041299054    -2.8855500947    -2.4444720547
   51      H       4.7297909512    -3.8640790147    -1.0821603609
   52      H       6.3042435504    -3.0117439779    -0.8772613111
   53      H      -0.8440767561    -1.2955554114    -1.7545542063
   54      H      -1.3394582070     0.1747374095    -0.9356425311
   55      H      -0.3454024564    -2.5188194273     0.1222849199
   56      H       0.4250980696    -1.1363213999     0.9605571545
 ----------------------------------------------------------------

    9   -1510.2058896853      3.50E-09 Convergence criterion met
 Total energy in the final basis set = -1510.20588969
 Final energy is   -1510.20588968528
 **  OPTIMIZATION CONVERGED  **

                    Orbital Energies (a.u.)
 --------------------------------------------------------------

 Alpha MOs
 -- Occupied --
-18.943 -18.929 -18.920 -18.907 -18.902 -18.896 -18.892 -18.883
-18.871 -18.864 -10.107 -10.105 -10.102 -10.093 -10.077 -10.072
-10.070 -10.068 -10.064 -10.063 -10.060 -10.056 -10.046 -10.041
-10.040 -10.039 -10.030 -10.028 -10.024 -10.023  -1.019  -1.010
 -1.002  -0.998  -0.983  -0.974  -0.942  -0.937  -0.928  -0.926
 -0.771  -0.765  -0.729  -0.725  -0.716  -0.711  -0.699  -0.667
 -0.655  -0.621  -0.602  -0.590  -0.558  -0.549  -0.547  -0.540
 -0.518  -0.510  -0.486  -0.480  -0.477  -0.459  -0.447  -0.446
 -0.438  -0.434  -0.428  -0.420  -0.414  -0.411  -0.410  -0.404
 -0.393  -0.382  -0.372  -0.370  -0.364  -0.358  -0.354  -0.353
 -0.346  -0.343  -0.338  -0.334  -0.330  -0.323  -0.322  -0.320
 -0.313  -0.309  -0.308  -0.304  -0.299  -0.293  -0.291  -0.284
 -0.274  -0.262  -0.249  -0.247  -0.244  -0.236  -0.214  -0.184
 -0.175  -0.172  -0.164  -0.159  -0.154  -0.152  -0.146  -0.143
 -0.141

          Ground-State Mulliken Net Atomic Charges

     Atom                 Charge (a.u.)
  ----------------------------------------
      1 O                    -0.203710
      2 C                     0.207017
      3 C                    -0.079437
      4 C                    -0.087274
      5 C                     0.207420
      6 O                    -0.178135
      7 C                    -0.048326
      8 C                    -0.069867
      9 O                    -0.195485
     10 C                     0.214582
     11 C                    -0.080181
     12 C                    -0.079301
     13 C                     0.210416
     14 O                    -0.218811
     15 O                    -0.169708
     16 O                    -0.159700
     17 O                    -0.187347
     18 C                    -0.125615
     19 C                     0.027974
     20 C                    -0.141232
     21 C                    -0.145513
     22 C                     0.025120
     23 O                    -0.185384
     24 H                     0.079970
     25 H                     0.084863
     26 H                     0.087649
     27 H                     0.078581
     28 H                     0.073011
     29 H                     0.079174
     30 H                     0.074127
     31 H                     0.084600
     32 O                    -0.193802
     33 C                    -0.127718
     34 C                     0.023207
     35 C                    -0.143924
     36 C                    -0.142627
     37 C                     0.016814
     38 O                    -0.192361
     39 H                     0.090402
     40 H                     0.087589
     41 H                     0.090765
     42 H                     0.096546
     43 H                     0.080192
     44 H                     0.075839
     45 H                     0.080030
     46 H                     0.076146
     47 H                     0.087950
     48 H                     0.092930
     49 H                     0.091996
     50 H                     0.090647
     51 H                     0.089103
     52 H                     0.088724
     53 H                     0.077706
     54 H                     0.108430
     55 H                     0.100098
     56 H                     0.075840
  ----------------------------------------
  Sum of atomic charges =    -0.000000

                    Cartesian Multipole Moments
 -----------------------------------------------------------------
    Charge (ESU x 10^10)
                 0.0000
    Dipole Moment (Debye)
         X      -1.9022      Y       3.3566      Z      -1.4207
       Tot       4.1114
    Quadrupole Moments (Debye-Ang)
        XX    -152.4600     XY       0.5250     YY    -154.8974
        XZ       8.5535     YZ      12.4381     ZZ    -171.3040

 Total job time:  104.61s(wall), 4987.25s(cpu)
        *  Thank you very much for using Q-Chem.  Have a nice day.  *
