 Q-Chem 5.0, Q-Chem, Inc., Pleasanton, CA (2017)
 Q-Chem 5.0.1 for Intel X86 EM64T Linux

User input:
--------------------------------------------------------------
$molecule
0  1
O -3.94934 -3.66094 2.70899
C -3.26408 -4.56952 2.26188
C -3.36658 -6.02376 2.66595
C -4.66266 -6.76517 2.29943
C -5.63801 -6.02118 1.41441
O -5.89338 -6.75149 0.28886
C -5.76163 -8.16251 0.49118
C -4.30746 -8.51818 0.78273
O -3.70758 -9.11536 -0.37762
C -2.8447 -10.13189 -0.13013
C -1.91953 -10.41388 -1.28996
C -1.61289 -9.20258 -2.18271
C -1.96777 -7.84795 -1.60328
O -1.99491 -7.57132 -0.41277
O -2.2969 -4.28422 1.35373
O -2.43779 -6.93071 -2.48873
O -2.93478 -10.89334 0.82546
C -2.87283 -5.66919 -2.13779
C -0.49138 -10.7762 -0.82114
C 0.22399 -11.56408 -1.91764
C 0.44706 -10.47436 -2.94416
C -0.07344 -9.26012 -2.16666
O 0.20998 -9.56102 -0.82383
H -2.33298 -11.29199 -1.83447
H -2.01167 -9.27768 -3.21865
H -0.46699 -11.34896 0.13155
H 1.21214 -11.86999 -1.50446
H -0.31028 -12.46472 -2.28941
H 1.54047 -10.38667 -3.13077
H -0.09622 -10.60626 -3.90493
H 0.38585 -8.32507 -2.55941
O -5.99422 -4.85326 1.51926
C -2.05053 -3.02388 0.85202
C -2.54855 -7.03304 3.5541
C -2.93157 -6.99092 5.04863
C -4.39456 -7.46723 4.94101
C -4.46078 -7.91503 3.44038
O -3.11235 -8.28606 3.2497
H -3.77958 -5.54854 3.56605
H -5.48712 -6.4885 2.99949
H -1.77215 -2.33126 1.67483
H -1.45642 -6.97594 3.36313
H -2.32188 -7.77039 5.56023
H -2.79113 -6.01744 5.56638
H -4.51567 -8.33014 5.63219
H -5.16167 -6.69857 5.17677
H -5.20002 -8.74139 3.35726
H -2.9503 -2.64042 0.32488
H -1.2102 -3.07808 0.12992
H -3.20213 -5.1304 -3.04962
H -2.04635 -5.09828 -1.6631
H -3.73 -5.74077 -1.43424
H -3.41452 -8.01228 1.11006
H -4.48741 -9.37742 1.46024
H -6.13009 -8.72737 -0.39193
H -6.44208 -8.45203 1.32905
$end

$opt
CONSTRAINT
tors           1           2           3           4     +66.316
tors           3           4           5           6    +123.158
tors           4           5           6           7     +28.421
tors           5           6           7           8     -66.316
tors           6           7           8           9    -104.211
tors           7           8           9          10    -142.105
tors           8           9          10          11    -161.053
tors           9          10          11          12     +28.421
tors          11          12          13          14     +28.421
ENDCONSTRAINT
$end

$rem
JOBTYPE                   OPT
METHOD                    B3LYP
DFT_D                     d3_op
BASIS                     STO-3G
GEOM_OPT_MAX_CYCLES       100
GEOM_OPT_TOL_GRADIENT     300
GEOM_OPT_TOL_DISPLACEMENT 1200
GEOM_OPT_TOL_ENERGY       100
SYMMETRY                  False
THRESH                    12
SCF_CONVERGENCE           8
MAX_SUB_FILE_NUM          128
MEM_STATIC                400
MEM_TOTAL                 4000
$end
--------------------------------------------------------------

   16   -1509.8692778986      4.63E-09 Convergence criterion met
 Total energy in the final basis set = -1509.86927790
   15   -1509.9552837036      3.43E-09 Convergence criterion met
 Total energy in the final basis set = -1509.95528370
   14   -1510.0152966920      8.73E-09 Convergence criterion met
 Total energy in the final basis set = -1510.01529669
   14   -1510.0543452434      4.43E-09 Convergence criterion met
 Total energy in the final basis set = -1510.05434524
   14   -1510.0826976183      5.74E-09 Convergence criterion met
 Total energy in the final basis set = -1510.08269762
   13   -1510.1046997629      7.49E-09 Convergence criterion met
 Total energy in the final basis set = -1510.10469976
   13   -1510.1230471408      8.19E-09 Convergence criterion met
 Total energy in the final basis set = -1510.12304714
   13   -1510.1391449828      6.38E-09 Convergence criterion met
   11   -1510.2348805338      6.72E-09 Convergence criterion met
 Total energy in the final basis set = -1510.23488053
   11   -1510.2349022907      8.14E-09 Convergence criterion met
 Total energy in the final basis set = -1510.23490229
   10   -1510.2349144577      6.35E-09 Convergence criterion met
 Total energy in the final basis set = -1510.23491446
    9   -1510.2349176036      9.64E-09 Convergence criterion met
 Total energy in the final basis set = -1510.23491760
    9   -1510.2349174588      8.37E-09 Convergence criterion met
 Total energy in the final basis set = -1510.23491746
    9   -1510.2349179021      6.89E-09 Convergence criterion met
 Total energy in the final basis set = -1510.23491790

             Standard Nuclear Orientation (Angstroms)
    I     Atom           X                Y                Z
 ----------------------------------------------------------------
    1      O      -4.7073885459    -2.2742340668     0.2958917979
    2      C      -3.9226360868    -1.6488768328    -0.4485183064
    3      C      -3.8067093912    -0.0902819244    -0.6147474305
    4      C      -3.2928009447     0.7688334048     0.6357190857
    5      C      -2.8852438821    -0.1582623476     1.8753630624
    6      O      -1.6519610025    -0.2726698399     2.6052616920
    7      C      -0.6405153875     0.7809692136     2.8026958828
    8      C       0.1557381671     1.2987176164     1.5412676566
    9      O       1.5177568041     0.7156971849     1.5827471239
   10      C       2.5118088329     1.6513237628     1.1335024830
   11      C       3.7843551208     0.8148682567     0.7545994255
   12      C       3.4352060022    -0.6510893581     0.2824391443
   13      C       2.0198278239    -0.6746177657    -0.4153037458
   14      O       1.4779852094     0.2722835904    -1.0287316982
   15      O      -2.9684830585    -2.2986838907    -1.3005611899
   16      O       1.4011953205    -1.9438717362    -0.1931061986
   17      O       2.3402875866     2.8863694184     1.0611421885
   18      C       0.0292278937    -1.9491091829    -0.7607933701
   19      C       4.6914593800     1.3370201290    -0.4396747170
   20      C       6.1564147684     0.8370029252    -0.1335563982
   21      C       5.9737220504    -0.7165681533    -0.3220947826
   22      C       4.5003196497    -0.7959092654    -0.8913115302
   23      O       4.3134030193     0.4959951399    -1.6000632295
   24      H       4.4011974671     0.7603312839     1.6723394316
   25      H       3.5085107900    -1.4168105317     1.0728946607
   26      H       4.5792787953     2.4129260691    -0.6763531666
   27      H       6.8617501687     1.2489700440    -0.8732583226
   28      H       6.5001858386     1.1100203252     0.8770760280
   29      H       6.6940067147    -1.1274621726    -1.0469198506
   30      H       6.0736200348    -1.2703694403     0.6255769206
   31      H       4.3082246230    -1.6435065832    -1.5776858050
   32      O      -3.7563367448    -0.9627135998     2.2857749377
   33      C      -3.0901241010    -3.7676918772    -1.1590842204
   34      C      -2.7740803299     0.3831984599    -1.7382665929
   35      C      -3.3264432965     1.7249853688    -2.3407063005
   36      C      -3.1620303472     2.6720868610    -1.0990825327
   37      C      -2.3287142857     1.7638864147    -0.1037820122
   38      O      -1.5702976441     0.8433162908    -0.9911032875
   39      H      -4.8229135703     0.2583826708    -0.8751015959
   40      H      -4.1572320647     1.3352190514     1.0335798526
   41      H      -4.0915659872    -4.1265887918    -1.4728945812
   42      H      -2.4983276365    -0.4062493655    -2.4623071178
   43      H      -2.6966185099     2.0534417311    -3.1830198787
   44      H      -4.3693773478     1.6391035663    -2.6850729861
   45      H      -2.5943671481     3.5820737565    -1.3485824064
   46      H      -4.1291494611     2.9687485020    -0.6621669960
   47      H      -1.6721182244     2.3561792060     0.5502407827
   48      H      -2.9137038138    -4.0922168664    -0.1132594869
   49      H      -2.3169397560    -4.2019149368    -1.8191382562
   50      H      -0.5687275468    -2.6371641079    -0.1358523026
   51      H       0.0419528766    -2.3259270193    -1.8039378285
   52      H      -0.4241058763    -0.9328089647    -0.7563416444
   53      H      -0.2953333014     0.9319121616     0.5950587754
   54      H       0.2328843432     2.4065100251     1.5285443777
   55      H       0.0877827410     0.3134112355     3.4984467614
   56      H      -1.1035186624     1.6506296676     3.3225990320
 ----------------------------------------------------------------

    8   -1510.2349182818      7.70E-09 Convergence criterion met
 Total energy in the final basis set = -1510.23491828
 Final energy is   -1510.23491828176
 **  OPTIMIZATION CONVERGED  **

                    Orbital Energies (a.u.)
 --------------------------------------------------------------

 Alpha MOs
 -- Occupied --
-18.936 -18.926 -18.925 -18.919 -18.903 -18.883 -18.879 -18.878
-18.873 -18.854 -10.102 -10.101 -10.101 -10.086 -10.081 -10.069
-10.066 -10.065 -10.064 -10.057 -10.056 -10.047 -10.043 -10.042
-10.034 -10.031 -10.028 -10.026 -10.019 -10.018  -1.014  -1.012
 -1.002  -0.994  -0.981  -0.966  -0.940  -0.937  -0.928  -0.919
 -0.770  -0.761  -0.726  -0.724  -0.715  -0.708  -0.698  -0.663
 -0.649  -0.614  -0.601  -0.587  -0.556  -0.548  -0.542  -0.534
 -0.517  -0.505  -0.486  -0.477  -0.472  -0.456  -0.449  -0.445
 -0.442  -0.433  -0.424  -0.414  -0.411  -0.410  -0.407  -0.397
 -0.395  -0.383  -0.375  -0.370  -0.357  -0.354  -0.352  -0.347
 -0.346  -0.342  -0.335  -0.333  -0.326  -0.324  -0.322  -0.314
 -0.311  -0.309  -0.303  -0.294  -0.289  -0.287  -0.283  -0.280
 -0.268  -0.258  -0.247  -0.246  -0.236  -0.230  -0.222  -0.182
 -0.175  -0.168  -0.164  -0.159  -0.156  -0.152  -0.143  -0.138
 -0.135

          Ground-State Mulliken Net Atomic Charges

     Atom                 Charge (a.u.)
  ----------------------------------------
      1 O                    -0.197589
      2 C                     0.206214
      3 C                    -0.080004
      4 C                    -0.078944
      5 C                     0.200544
      6 O                    -0.176561
      7 C                    -0.046053
      8 C                    -0.067214
      9 O                    -0.179295
     10 C                     0.216663
     11 C                    -0.079049
     12 C                    -0.074768
     13 C                     0.216099
     14 O                    -0.221161
     15 O                    -0.172971
     16 O                    -0.174084
     17 O                    -0.211889
     18 C                    -0.137689
     19 C                     0.025325
     20 C                    -0.141228
     21 C                    -0.145587
     22 C                     0.023031
     23 O                    -0.187838
     24 H                     0.081918
     25 H                     0.087693
     26 H                     0.089923
     27 H                     0.077797
     28 H                     0.072691
     29 H                     0.077548
     30 H                     0.073212
     31 H                     0.081804
     32 O                    -0.191352
     33 C                    -0.129010
     34 C                     0.023255
     35 C                    -0.141889
     36 C                    -0.143898
     37 C                     0.016961
     38 O                    -0.188682
     39 H                     0.086315
     40 H                     0.086513
     41 H                     0.089523
     42 H                     0.096778
     43 H                     0.082021
     44 H                     0.075510
     45 H                     0.081372
     46 H                     0.074649
     47 H                     0.086178
     48 H                     0.092779
     49 H                     0.090324
     50 H                     0.083939
     51 H                     0.077530
     52 H                     0.106542
     53 H                     0.109451
     54 H                     0.093511
     55 H                     0.102481
     56 H                     0.080661
  ----------------------------------------
  Sum of atomic charges =    -0.000000

                    Cartesian Multipole Moments
 -----------------------------------------------------------------
    Charge (ESU x 10^10)
                 0.0000
    Dipole Moment (Debye)
         X       0.4483      Y       0.7783      Z      -0.5964
       Tot       1.0781
    Quadrupole Moments (Debye-Ang)
        XX    -153.3688     XY     -13.7029     YY    -157.3692
        XZ      16.4407     YZ       9.9778     ZZ    -161.9850

 Total job time:  128.54s(wall), 6131.83s(cpu)
        *  Thank you very much for using Q-Chem.  Have a nice day.  *
