 Q-Chem 5.0, Q-Chem, Inc., Pleasanton, CA (2017)
 Q-Chem 5.0.1 for Intel X86 EM64T Linux

User input:
--------------------------------------------------------------
$molecule
0  1
O -4.7073885459 -2.2742340668 0.2958917979
C -3.9226360868 -1.6488768328 -0.4485183064
C -3.8067093912 -0.0902819244 -0.6147474305
C -3.2928009447 0.7688334048 0.6357190857
C -2.8852438821 -0.1582623476 1.8753630624
O -1.6519610025 -0.2726698399 2.605261692
C -0.6405153875 0.7809692136 2.8026958828
C 0.1557381671 1.2987176164 1.5412676566
O 1.5177568041 0.7156971849 1.5827471239
C 2.5118088329 1.6513237628 1.133502483
C 3.7843551208 0.8148682567 0.7545994255
C 3.4352060022 -0.6510893581 0.2824391443
C 2.0198278239 -0.6746177657 -0.4153037458
O 1.4779852094 0.2722835904 -1.0287316982
O -2.9684830585 -2.2986838907 -1.3005611899
O 1.4011953205 -1.9438717362 -0.1931061986
O 2.3402875866 2.8863694184 1.0611421885
C 0.0292278937 -1.9491091829 -0.7607933701
C 4.69145938 1.337020129 -0.439674717
C 6.1564147684 0.8370029252 -0.1335563982
C 5.9737220504 -0.7165681533 -0.3220947826
C 4.5003196497 -0.7959092654 -0.8913115302
O 4.3134030193 0.4959951399 -1.6000632295
H 4.4011974671 0.7603312839 1.6723394316
H 3.50851079 -1.4168105317 1.0728946607
H 4.5792787953 2.4129260691 -0.6763531666
H 6.8617501687 1.248970044 -0.8732583226
H 6.5001858386 1.1100203252 0.877076028
H 6.6940067147 -1.1274621726 -1.0469198506
H 6.0736200348 -1.2703694403 0.6255769206
H 4.308224623 -1.6435065832 -1.577685805
O -3.7563367448 -0.9627135998 2.2857749377
C -3.090124101 -3.7676918772 -1.1590842204
C -2.7740803299 0.3831984599 -1.7382665929
C -3.3264432965 1.7249853688 -2.3407063005
C -3.1620303472 2.672086861 -1.0990825327
C -2.3287142857 1.7638864147 -0.1037820122
O -1.5702976441 0.8433162908 -0.9911032875
H -4.8229135703 0.2583826708 -0.8751015959
H -4.1572320647 1.3352190514 1.0335798526
H -4.0915659872 -4.1265887918 -1.4728945812
H -2.4983276365 -0.4062493655 -2.4623071178
H -2.6966185099 2.0534417311 -3.1830198787
H -4.3693773478 1.6391035663 -2.6850729861
H -2.5943671481 3.5820737565 -1.3485824064
H -4.1291494611 2.968748502 -0.662166996
H -1.6721182244 2.356179206 0.5502407827
H -2.9137038138 -4.0922168664 -0.1132594869
H -2.316939756 -4.2019149368 -1.8191382562
H -0.5687275468 -2.6371641079 -0.1358523026
H 0.0419528766 -2.3259270193 -1.8039378285
H -0.4241058763 -0.9328089647 -0.7563416444
H -0.2953333014 0.9319121616 0.5950587754
H 0.2328843432 2.4065100251 1.5285443777
H 0.087782741 0.3134112355 3.4984467614
H -1.1035186624 1.6506296676 3.322599032
$end

$rem
JOBTYPE                   OPT
METHOD                    B3LYP
DFT_D                     d3_op
BASIS                     STO-3G
GEOM_OPT_MAX_CYCLES       100
GEOM_OPT_TOL_GRADIENT     300
GEOM_OPT_TOL_DISPLACEMENT 1200
GEOM_OPT_TOL_ENERGY       100
SYMMETRY                  False
THRESH                    12
SCF_CONVERGENCE           8
MAX_SUB_FILE_NUM          128
MEM_STATIC                400
MEM_TOTAL                 4000
$end
--------------------------------------------------------------

   16   -1510.2346558919      6.35E-09 Convergence criterion met
 Total energy in the final basis set = -1510.23465589
   15   -1510.2388809805      2.10E-09 Convergence criterion met
 Total energy in the final basis set = -1510.23888098
   14   -1510.2434564457      9.09E-09 Convergence criterion met
 Total energy in the final basis set = -1510.24345645
   15   -1510.2304250653      4.32E-09 Convergence criterion met
 Total energy in the final basis set = -1510.23042507
   15   -1510.2481621966      3.63E-09 Convergence criterion met
 Total energy in the final basis set = -1510.24816220
   14   -1510.2494514431      7.64E-09 Convergence criterion met
 Total energy in the final basis set = -1510.24945144
   13   -1510.2520943403      8.58E-09 Convergence criterion met
 Total energy in the final basis set = -1510.25209434
   13   -1510.2541980407      6.78E-09 Convergence criterion met
   11   -1510.2838190264      1.87E-09 Convergence criterion met
 Total energy in the final basis set = -1510.28381903
    9   -1510.2838223924      9.41E-09 Convergence criterion met
 Total energy in the final basis set = -1510.28382239
    9   -1510.2838238871      2.47E-09 Convergence criterion met
 Total energy in the final basis set = -1510.28382389
    9   -1510.2838279192      4.73E-09 Convergence criterion met
 Total energy in the final basis set = -1510.28382792
    9   -1510.2838296325      6.57E-09 Convergence criterion met
 Total energy in the final basis set = -1510.28382963
    9   -1510.2838310273      6.10E-09 Convergence criterion met
 Total energy in the final basis set = -1510.28383103

             Standard Nuclear Orientation (Angstroms)
    I     Atom           X                Y                Z
 ----------------------------------------------------------------
    1      O      -2.4614573205    -2.2517296349    -1.8348145318
    2      C      -2.2427082799    -1.0368615809    -1.6367752414
    3      C      -3.3349846972     0.0601479805    -1.3952319007
    4      C      -3.4238083104     0.6120701534     0.0950366668
    5      C      -2.2448469894     0.0529686286     1.0105420545
    6      O      -1.4475543845     0.9066449134     1.8720013406
    7      C      -0.7169371198     2.0296676563     1.2377426679
    8      C       0.1846571908     1.6231210801     0.0283893471
    9      O       1.4197111203     0.9926943462     0.5725409242
   10      C       2.3107034136     0.6925142865    -0.4997844850
   11      C       3.5528016239    -0.1085774929     0.0332635187
   12      C       3.2379290398    -1.2204708998     1.1211886074
   13      C       1.7533205909    -1.2726913080     1.6268615768
   14      O       0.7658536683    -1.7890409945     1.0485287903
   15      O      -0.9446180903    -0.4395885515    -1.6539084994
   16      O       1.7163676612    -0.7386994679     2.9435103052
   17      O       2.1136803883     1.0288535819    -1.6886640165
   18      C       0.3297865773    -0.7757218740     3.4765611414
   19      C       4.1302116426    -0.9937992057    -1.1461558575
   20      C       5.5642643879    -1.5179044267    -0.7497520353
   21      C       5.2018760534    -2.6474535542     0.2855612345
   22      C       3.6269645655    -2.5356942619     0.3148889085
   23      O       3.2792026003    -2.2057065605    -1.0861165167
   24      H       4.2977664850     0.6139838486     0.4158755624
   25      H       3.8825414419    -1.0831396169     2.0068409202
   26      H       4.0463049849    -0.5097157570    -2.1388191529
   27      H       6.0837355270    -1.9272764979    -1.6306878099
   28      H       6.1873225411    -0.7221184746    -0.3110922536
   29      H       5.5102083463    -3.6411061330    -0.0768081169
   30      H       5.6495350617    -2.4773091161     1.2776213908
   31      H       3.0899891240    -3.4477353493     0.6400808629
   32      O      -2.1147866960    -1.1807048676     1.1696260345
   33      C       0.1198878192    -1.4746275198    -1.7638637654
   34      C      -3.1345103053     1.4181038959    -2.2063580850
   35      C      -4.5646739859     2.0549114025    -2.3935643954
   36      C      -4.8829132653     2.4818377695    -0.9132206435
   37      C      -3.5120773654     2.1615366540    -0.1871683219
   38      O      -2.4905531851     2.3468402212    -1.2470590647
   39      H      -4.2964758928    -0.4058456697    -1.6731441127
   40      H      -4.3500392159     0.2451053471     0.5764461353
   41      H       0.9367105771    -1.0287370407    -2.3600082009
   42      H      -2.5228920978     1.3271043827    -3.1246021232
   43      H      -4.5102206880     2.9300993534    -3.0607643803
   44      H      -5.2959389254     1.3396245735    -2.8024871498
   45      H      -5.1141359623     3.5560095347    -0.8387971068
   46      H      -5.7187066952     1.9108772241    -0.4777930709
   47      H      -3.3158909665     2.8075847616     0.6874581607
   48      H      -0.2845768709    -2.3759965886    -2.2610719220
   49      H       0.4824206988    -1.7266568876    -0.7338101804
   50      H       0.4002886611    -0.3860543161     4.5082885621
   51      H      -0.0578864513    -1.8138875230     3.4992050525
   52      H      -0.3601376217    -0.1409917055     2.8638919081
   53      H      -0.3499839358     0.9068846645    -0.6533722512
   54      H       0.4456009322     2.5357201255    -0.5490805102
   55      H      -0.0816747386     2.4267337648     2.0573247710
   56      H      -1.3982480796     2.8379795234     0.9088079495
 ----------------------------------------------------------------

    8   -1510.2838319156      8.78E-09 Convergence criterion met
 Total energy in the final basis set = -1510.28383192
 Final energy is   -1510.28383191556
 **  OPTIMIZATION CONVERGED  **

                    Orbital Energies (a.u.)
 --------------------------------------------------------------

 Alpha MOs
 -- Occupied --
-18.933 -18.932 -18.932 -18.922 -18.897 -18.896 -18.884 -18.872
-18.871 -18.863 -10.111 -10.098 -10.097 -10.093 -10.078 -10.070
-10.066 -10.056 -10.055 -10.053 -10.047 -10.040 -10.036 -10.031
-10.028 -10.028 -10.026 -10.025 -10.018 -10.017  -1.015  -1.009
 -1.004  -0.997  -0.979  -0.967  -0.945  -0.932  -0.931  -0.923
 -0.769  -0.759  -0.727  -0.723  -0.712  -0.707  -0.700  -0.644
 -0.643  -0.611  -0.599  -0.582  -0.554  -0.544  -0.541  -0.535
 -0.519  -0.507  -0.482  -0.472  -0.469  -0.453  -0.451  -0.445
 -0.440  -0.427  -0.416  -0.414  -0.408  -0.406  -0.400  -0.396
 -0.393  -0.377  -0.372  -0.363  -0.358  -0.354  -0.349  -0.343
 -0.341  -0.339  -0.332  -0.331  -0.327  -0.327  -0.320  -0.317
 -0.314  -0.307  -0.303  -0.301  -0.291  -0.290  -0.281  -0.276
 -0.268  -0.256  -0.247  -0.243  -0.235  -0.232  -0.230  -0.184
 -0.178  -0.166  -0.164  -0.156  -0.152  -0.152  -0.147  -0.142
 -0.137

          Ground-State Mulliken Net Atomic Charges

     Atom                 Charge (a.u.)
  ----------------------------------------
      1 O                    -0.204797
      2 C                     0.213198
      3 C                    -0.081979
      4 C                    -0.079407
      5 C                     0.214628
      6 O                    -0.180835
      7 C                    -0.046883
      8 C                    -0.067932
      9 O                    -0.174292
     10 C                     0.210300
     11 C                    -0.079062
     12 C                    -0.081424
     13 C                     0.219729
     14 O                    -0.219486
     15 O                    -0.177307
     16 O                    -0.170589
     17 O                    -0.215505
     18 C                    -0.148651
     19 C                     0.023110
     20 C                    -0.144480
     21 C                    -0.143532
     22 C                     0.024437
     23 O                    -0.190767
     24 H                     0.084287
     25 H                     0.085365
     26 H                     0.089672
     27 H                     0.077922
     28 H                     0.072919
     29 H                     0.077818
     30 H                     0.073509
     31 H                     0.085216
     32 O                    -0.175358
     33 C                    -0.152659
     34 C                     0.024831
     35 C                    -0.142162
     36 C                    -0.144414
     37 C                     0.019067
     38 O                    -0.194396
     39 H                     0.086736
     40 H                     0.089227
     41 H                     0.088611
     42 H                     0.089248
     43 H                     0.079233
     44 H                     0.076343
     45 H                     0.078857
     46 H                     0.075216
     47 H                     0.081192
     48 H                     0.091815
     49 H                     0.117635
     50 H                     0.076756
     51 H                     0.082228
     52 H                     0.113749
     53 H                     0.121078
     54 H                     0.087944
     55 H                     0.095204
     56 H                     0.088839
  ----------------------------------------
  Sum of atomic charges =     0.000000

                    Cartesian Multipole Moments
 -----------------------------------------------------------------
    Charge (ESU x 10^10)
                -0.0000
    Dipole Moment (Debye)
         X      -0.3764      Y       3.1157      Z       0.8230
       Tot       3.2444
    Quadrupole Moments (Debye-Ang)
        XX    -136.0882     XY     -12.0741     YY    -162.9882
        XZ       3.9825     YZ      -0.7350     ZZ    -161.7513

 Total job time:  267.10s(wall), 12745.99s(cpu)
        *  Thank you very much for using Q-Chem.  Have a nice day.  *
