 Q-Chem 5.0, Q-Chem, Inc., Pleasanton, CA (2017)
 Q-Chem 5.0.1 for Intel X86 EM64T Linux

User input:
--------------------------------------------------------------
$molecule
0  1
O -3.94934 -3.66094 2.70899
C -3.26408 -4.56952 2.26188
C -3.36658 -6.02376 2.66595
C -4.06137 -6.97914 1.68189
C -4.41791 -6.40938 0.32677
O -3.34788 -5.73557 -0.18939
C -2.67266 -6.45885 -1.2239
C -2.21363 -5.50286 -2.32003
O -1.9469 -6.23415 -3.52708
C -1.16834 -5.59577 -4.43563
C -1.95387 -5.05319 -5.60576
C -1.80521 -3.5429 -5.84069
C -0.64925 -2.87347 -5.12493
O -0.36514 -3.02098 -3.94506
O -2.22141 -4.23436 1.45264
O 0.20469 -2.1314 -5.88305
O 0.05174 -5.58861 -4.35605
C 1.33058 -1.49615 -5.40161
C -1.51488 -5.59955 -6.97929
C -2.69156 -5.52957 -7.94949
C -2.81947 -4.02908 -8.12777
C -1.57306 -3.55321 -7.36679
O -0.65762 -4.61365 -7.50494
H -3.02508 -5.32213 -5.44804
H -2.72085 -3.00211 -5.51585
H -1.10673 -6.63285 -6.93505
H -2.33629 -5.97446 -8.90699
H -3.62181 -6.04845 -7.63289
H -2.75091 -3.79973 -9.21419
H -3.73909 -3.57698 -7.69675
H -1.2482 -2.56709 -7.76326
O -5.5191 -6.4485 -0.2001
C -1.94811 -2.95549 1.01453
C -2.01012 -6.72129 2.85806
C -2.17002 -7.93951 3.76932
C -2.8839 -8.89812 2.83692
C -2.95525 -8.05053 1.56323
O -1.7595 -7.30566 1.60679
H -3.91864 -6.01573 3.63316
H -4.99082 -7.43014 2.0963
H -1.75219 -2.287 1.87983
H -1.22499 -6.03991 3.25273
H -1.15543 -8.34484 3.98368
H -2.69362 -7.72857 4.72658
H -2.21976 -9.77344 2.6592
H -3.88088 -9.247 3.18253
H -3.09592 -8.70397 0.67432
H -2.8028 -2.56505 0.42175
H -1.04706 -2.97839 0.36788
H 1.83419 -0.96677 -6.23622
H 2.0356 -2.23985 -4.97245
H 1.04807 -0.75356 -4.62505
H -3.03517 -4.7887 -2.5485
H -1.33242 -4.92718 -1.95581
H -3.36476 -7.19593 -1.69892
H -1.79051 -7.01149 -0.8432
$end

$opt
CONSTRAINT
tors           1           2           3           4    +104.211
tors           3           4           5           6     +47.368
tors           4           5           6           7    +104.211
tors           5           6           7           8    +142.105
tors           6           7           8           9    -161.053
tors           7           8           9          10    -161.053
tors           8           9          10          11    -104.211
tors           9          10          11          12    +123.158
tors          11          12          13          14     -47.368
ENDCONSTRAINT
$end

$rem
JOBTYPE                   OPT
METHOD                    B3LYP
DFT_D                     d3_op
BASIS                     STO-3G
GEOM_OPT_MAX_CYCLES       100
GEOM_OPT_TOL_GRADIENT     300
GEOM_OPT_TOL_DISPLACEMENT 1200
GEOM_OPT_TOL_ENERGY       100
SYMMETRY                  False
THRESH                    12
SCF_CONVERGENCE           8
MAX_SUB_FILE_NUM          128
MEM_STATIC                400
MEM_TOTAL                 4000
$end
--------------------------------------------------------------

   15   -1510.1091920904      6.42E-09 Convergence criterion met
 Total energy in the final basis set = -1510.10919209
   14   -1510.1801446171      4.11E-09 Convergence criterion met
 Total energy in the final basis set = -1510.18014462
   14   -1510.2173487392      5.73E-09 Convergence criterion met
 Total energy in the final basis set = -1510.21734874
   14   -1510.2324617313      6.03E-09 Convergence criterion met
 Total energy in the final basis set = -1510.23246173
   14   -1510.2360680012      3.89E-09 Convergence criterion met
 Total energy in the final basis set = -1510.23606800
   13   -1510.2370704526      7.47E-09 Convergence criterion met
 Total energy in the final basis set = -1510.23707045
   12   -1510.2378778156      7.91E-09 Convergence criterion met
 Total energy in the final basis set = -1510.23787782
   13   -1510.2383538309      6.88E-09 Convergence criterion met
   11   -1510.2400613905      5.75E-09 Convergence criterion met
 Total energy in the final basis set = -1510.24006139
   11   -1510.2400799486      5.39E-09 Convergence criterion met
 Total energy in the final basis set = -1510.24007995
   10   -1510.2400947636      7.45E-09 Convergence criterion met
 Total energy in the final basis set = -1510.24009476
    9   -1510.2401005587      6.55E-09 Convergence criterion met
 Total energy in the final basis set = -1510.24010056
    9   -1510.2401058201      5.61E-09 Convergence criterion met
 Total energy in the final basis set = -1510.24010582
    9   -1510.2401045809      6.41E-09 Convergence criterion met
 Total energy in the final basis set = -1510.24010458

             Standard Nuclear Orientation (Angstroms)
    I     Atom           X                Y                Z
 ----------------------------------------------------------------
    1      O      -3.5561248264    -2.4162672853     1.6590880293
    2      C      -3.7379088091    -1.7057193721     0.6454197364
    3      C      -4.8983308507    -0.6584682224     0.4468164266
    4      C      -4.4572691802     0.8617697012     0.5964084854
    5      C      -3.0381814337     1.1013816933     1.2245816568
    6      O      -2.0098958210     0.2674430926     0.6361693330
    7      C      -1.1527526831     1.0378724485    -0.2887813189
    8      C       0.3155473278     0.5088568604    -0.1050315615
    9      O       1.2346572945     1.5336726292    -0.6460121810
   10      C       2.5292350408     0.9076356334    -0.9068910551
   11      C       3.5989584925     1.2871386478     0.1857085565
   12      C       4.2455677037     0.0336093549     0.9196051867
   13      C       3.6438243965    -1.3442283778     0.4550259758
   14      O       2.4294433016    -1.6209490395     0.3365692381
   15      O      -3.0130231794    -1.8633159637    -0.5787098755
   16      O       4.6940648548    -2.2842107648     0.2255374422
   17      O       2.7469518593     0.2201714980    -1.9253243868
   18      C       4.1242650301    -3.5835954931    -0.2015766408
   19      C       4.8951518146     1.9376347222    -0.4714349158
   20      C       5.7260199773     2.6483873696     0.6684790604
   21      C       6.3596333771     1.4072074236     1.3990444161
   22      C       5.7753654579     0.2164034138     0.5427735452
   23      O       5.7226415471     0.7656023332    -0.8319477055
   24      H       3.1200203806     1.9718351099     0.9068370248
   25      H       4.0904309798     0.1095053306     2.0124203507
   26      H       4.6917619793     2.5582106477    -1.3657565040
   27      H       6.4998101548     3.2988913275     0.2308533582
   28      H       5.0870657467     3.2538733949     1.3310468585
   29      H       7.4593852802     1.4210182334     1.3368871793
   30      H       6.0670012215     1.3398246103     2.4590785573
   31      H       6.3573460458    -0.7244111467     0.5639787755
   32      O      -2.7981691300     1.9248558727     2.1333960673
   33      C      -1.8988264876    -2.8164814923    -0.3818526529
   34      C      -5.3877345292    -0.6528666420    -1.0642863119
   35      C      -6.7133664832     0.2022399301    -1.1790814522
   36      C      -6.1437367372     1.6683843011    -1.1398449576
   37      C      -4.6087837785     1.3806817434    -0.9044304828
   38      O      -4.3633021924     0.1844033629    -1.7345852226
   39      H      -5.7037566038    -0.9080544592     1.1597416733
   40      H      -5.1750336297     1.3949693656     1.2457525445
   41      H      -2.2556187580    -3.7931261403     0.0044965493
   42      H      -5.4327867762    -1.6539488219    -1.5339053301
   43      H      -7.2296269128    -0.0072522337    -2.1292357074
   44      H      -7.4063483901    -0.0044339984    -0.3479611874
   45      H      -6.2899812530     2.1834807862    -2.1030227625
   46      H      -6.5869514506     2.2814564226    -0.3390289107
   47      H      -3.9234403819     2.2022606863    -1.1893744525
   48      H      -1.1445448138    -2.4101529577     0.3228808650
   49      H      -1.4367178875    -2.9545230645    -1.3766068918
   50      H       4.9868750260    -4.2581942141    -0.3526702030
   51      H       3.5582847554    -3.4845159114    -1.1502059427
   52      H       3.4496644008    -4.0068967410     0.5704282272
   53      H       0.5015261661     0.3479368436     0.9824712485
   54      H       0.4376077968    -0.4711680833    -0.6152668637
   55      H      -1.1657001844     2.1262960584    -0.0599529586
   56      H      -1.4981394999     0.8883259277    -1.3364788160
 ----------------------------------------------------------------

    9   -1510.2401041445      3.61E-09 Convergence criterion met
 Total energy in the final basis set = -1510.24010414
 Final energy is   -1510.24010414454
 **  OPTIMIZATION CONVERGED  **

                    Orbital Energies (a.u.)
 --------------------------------------------------------------

 Alpha MOs
 -- Occupied --
-18.942 -18.924 -18.901 -18.899 -18.898 -18.893 -18.891 -18.889
-18.877 -18.863 -10.108 -10.105 -10.104 -10.091 -10.068 -10.068
-10.064 -10.061 -10.061 -10.060 -10.059 -10.053 -10.042 -10.037
-10.036 -10.036 -10.023 -10.021 -10.021 -10.020  -1.017  -1.008
 -1.001  -0.999  -0.972  -0.971  -0.941  -0.938  -0.929  -0.925
 -0.764  -0.763  -0.724  -0.723  -0.710  -0.706  -0.692  -0.664
 -0.652  -0.604  -0.597  -0.578  -0.547  -0.546  -0.539  -0.538
 -0.517  -0.512  -0.484  -0.475  -0.469  -0.455  -0.449  -0.437
 -0.434  -0.433  -0.423  -0.415  -0.414  -0.407  -0.402  -0.396
 -0.391  -0.383  -0.376  -0.366  -0.364  -0.356  -0.354  -0.348
 -0.341  -0.337  -0.335  -0.332  -0.330  -0.326  -0.321  -0.313
 -0.310  -0.307  -0.305  -0.302  -0.297  -0.293  -0.284  -0.280
 -0.274  -0.257  -0.244  -0.241  -0.236  -0.235  -0.234  -0.182
 -0.169  -0.164  -0.159  -0.155  -0.151  -0.149  -0.145  -0.144
 -0.141

          Ground-State Mulliken Net Atomic Charges

     Atom                 Charge (a.u.)
  ----------------------------------------
      1 O                    -0.218252
      2 C                     0.211941
      3 C                    -0.078636
      4 C                    -0.083004
      5 C                     0.219917
      6 O                    -0.200732
      7 C                    -0.042656
      8 C                    -0.044613
      9 O                    -0.201415
     10 C                     0.221662
     11 C                    -0.083397
     12 C                    -0.078894
     13 C                     0.211696
     14 O                    -0.220264
     15 O                    -0.162827
     16 O                    -0.166155
     17 O                    -0.181515
     18 C                    -0.127213
     19 C                     0.025776
     20 C                    -0.143867
     21 C                    -0.144309
     22 C                     0.023417
     23 O                    -0.187018
     24 H                     0.084975
     25 H                     0.085281
     26 H                     0.084290
     27 H                     0.078573
     28 H                     0.074356
     29 H                     0.078361
     30 H                     0.073126
     31 H                     0.093823
     32 O                    -0.183597
     33 C                    -0.127505
     34 C                     0.027312
     35 C                    -0.145298
     36 C                    -0.142084
     37 C                     0.024320
     38 O                    -0.184023
     39 H                     0.085226
     40 H                     0.082977
     41 H                     0.087009
     42 H                     0.086468
     43 H                     0.078245
     44 H                     0.074181
     45 H                     0.078449
     46 H                     0.074744
     47 H                     0.080932
     48 H                     0.091791
     49 H                     0.088686
     50 H                     0.092383
     51 H                     0.093707
     52 H                     0.089554
     53 H                     0.080844
     54 H                     0.090650
     55 H                     0.083796
     56 H                     0.088803
  ----------------------------------------
  Sum of atomic charges =    -0.000000

                    Cartesian Multipole Moments
 -----------------------------------------------------------------
    Charge (ESU x 10^10)
                -0.0000
    Dipole Moment (Debye)
         X      -0.1705      Y       0.3355      Z       0.7313
       Tot       0.8225
    Quadrupole Moments (Debye-Ang)
        XX    -139.8993     XY      -3.7384     YY    -151.4070
        XZ      15.1051     YZ       1.8019     ZZ    -169.4289

 Total job time:  62.66s(wall), 2981.32s(cpu)
        *  Thank you very much for using Q-Chem.  Have a nice day.  *
