 Q-Chem 5.0, Q-Chem, Inc., Pleasanton, CA (2017)
 Q-Chem 5.0.1 for Intel X86 EM64T Linux

User input:
--------------------------------------------------------------
$molecule
0  1
O -3.94934 -3.66094 2.70899
C -3.26408 -4.56952 2.26188
C -3.36658 -6.02376 2.66595
C -3.63629 -7.04588 1.54953
C -3.59671 -6.52161 0.1312
O -4.24626 -7.3874 -0.70181
C -3.42643 -7.85536 -1.77799
C -4.29786 -8.41406 -2.89808
O -4.61829 -9.78818 -2.62977
C -5.05025 -10.05124 -1.37146
C -4.89086 -8.87573 -0.43688
C -6.04684 -7.86519 -0.46479
C -7.32357 -8.33986 -1.12915
O -7.88146 -7.78924 -2.06731
O -2.20351 -4.2082 1.48953
O -7.72773 -9.65912 -1.08743
O -5.34786 -11.19997 -1.06773
C -8.79844 -10.22114 -1.75847
C -5.40161 -9.62954 1.01491
C -5.41091 -9.07706 2.47808
C -6.49369 -8.02252 2.38854
C -6.87207 -8.26903 0.94108
O -6.76615 -9.66636 0.95479
H -3.91544 -9.19845 0.11663
H -6.1657 -6.72576 -0.44596
H -4.96591 -10.65497 1.14824
H -5.8105 -9.9063 3.11395
H -4.57462 -8.75262 3.08399
H -7.31583 -8.32687 3.07972
H -6.28933 -6.95651 2.62747
H -7.93308 -7.87713 0.9935
O -2.70358 -5.79662 -0.28637
C -1.91871 -2.91659 1.09605
C -1.98829 -6.48229 3.18862
C -2.10592 -7.78571 3.99686
C -2.1227 -8.79242 2.87058
C -2.28372 -7.86483 1.6746
O -1.34197 -6.87146 2.00836
H -4.12152 -6.09714 3.48065
H -4.62577 -7.17441 1.51274
H -1.74399 -2.27428 1.98545
H -1.4853 -5.69815 3.79712
H -1.21362 -7.98577 4.63036
H -3.01625 -7.76732 4.63363
H -1.08703 -9.19486 2.76758
H -2.74385 -9.69987 2.99567
H -2.00046 -8.43028 0.76333
H -2.75803 -2.50722 0.49421
H -1.00111 -2.92091 0.47286
H -8.86028 -11.29878 -1.50335
H -8.66008 -10.12383 -2.85622
H -9.74291 -9.72467 -1.44976
H -5.20347 -7.79279 -3.07055
H -3.71835 -8.41461 -3.84647
H -2.56505 -8.50508 -1.49411
H -2.97808 -6.96632 -2.27866
$end

$opt
CONSTRAINT
tors           1           2           3           4    +123.158
tors           3           4           5           6    -161.053
tors           4           5           6           7    -123.158
tors           5           6           7           8    -161.053
tors           6           7           8           9     -85.263
tors           7           8           9          10     +47.368
tors           8           9          10          11      -9.474
tors           9          10          11          12     +85.263
tors          11          12          13          14    -123.158
ENDCONSTRAINT
$end

$rem
JOBTYPE                   OPT
METHOD                    B3LYP
DFT_D                     d3_op
BASIS                     STO-3G
GEOM_OPT_MAX_CYCLES       100
GEOM_OPT_TOL_GRADIENT     300
GEOM_OPT_TOL_DISPLACEMENT 1200
GEOM_OPT_TOL_ENERGY       100
SYMMETRY                  False
THRESH                    12
SCF_CONVERGENCE           8
MAX_SUB_FILE_NUM          128
MEM_STATIC                400
MEM_TOTAL                 4000
$end
--------------------------------------------------------------

   17   -1509.6429913648      3.38E-09 Convergence criterion met
 Total energy in the final basis set = -1509.64299136
   14   -1509.7591024972      3.43E-09 Convergence criterion met
 Total energy in the final basis set = -1509.75910250
   14   -1509.8467529675      6.12E-09 Convergence criterion met
 Total energy in the final basis set = -1509.84675297
   14   -1509.9158174566      5.35E-09 Convergence criterion met
 Total energy in the final basis set = -1509.91581746
   14   -1509.9698101371      4.52E-09 Convergence criterion met
 Total energy in the final basis set = -1509.96981014
   14   -1510.0132319430      3.24E-09 Convergence criterion met
 Total energy in the final basis set = -1510.01323194
   13   -1510.0486987085      9.14E-09 Convergence criterion met
 Total energy in the final basis set = -1510.04869871
   13   -1510.0788099782      9.22E-09 Convergence criterion met
   11   -1510.2485393053      7.38E-09 Convergence criterion met
 Total energy in the final basis set = -1510.24853931
   11   -1510.2485503474      5.76E-09 Convergence criterion met
 Total energy in the final basis set = -1510.24855035
   10   -1510.2485568426      4.66E-09 Convergence criterion met
 Total energy in the final basis set = -1510.24855684
   10   -1510.2485632844      7.05E-09 Convergence criterion met
 Total energy in the final basis set = -1510.24856328
   10   -1510.2485661256      4.20E-09 Convergence criterion met
 Total energy in the final basis set = -1510.24856613
    9   -1510.2485672137      8.48E-09 Convergence criterion met
 Total energy in the final basis set = -1510.24856721

             Standard Nuclear Orientation (Angstroms)
    I     Atom           X                Y                Z
 ----------------------------------------------------------------
    1      O      -4.5841342385    -1.6924147045     2.1321662423
    2      C      -4.1615747062    -1.2418903736     1.0443607249
    3      C      -3.5168302457     0.1781084311     0.8213644181
    4      C      -2.0583768805     0.1850277883     0.1970703258
    5      C      -1.3664584425    -1.2208041132     0.1730607343
    6      O       0.0817493276    -1.1142318698     0.0195181591
    7      C       0.4807403852    -1.8852383485    -1.1779341953
    8      C       2.0156965814    -2.2538111746    -1.2035572059
    9      O       3.0714061796    -1.3577865351    -1.7189536891
   10      C       3.1866278069     0.0342140666    -1.3747047662
   11      C       2.0693474037     0.8109926706    -0.5767746049
   12      C       2.1993801698     0.6574952742     1.0024580084
   13      C       3.1810430714    -0.4711559478     1.4573415292
   14      O       2.9181966680    -1.4449077127     2.1978808943
   15      O      -4.4333582987    -1.8414513709    -0.2286925854
   16      O       4.4620932221    -0.2358534819     0.8682485249
   17      O       4.1843974883     0.6041282773    -1.8705299629
   18      C       5.3883176802    -1.3464548277     1.1857437571
   19      C       2.3821491874     2.3604709306    -0.7348408516
   20      C       1.1685515002     3.1961993635    -0.1734271159
   21      C       1.3801026527     3.0499006717     1.3783092997
   22      C       2.6589117761     2.1221024627     1.4171673548
   23      O       3.4547681881     2.5870058722     0.2619747379
   24      H       1.0545377256     0.5282498086    -0.8992656707
   25      H       1.2151823429     0.4055941076     1.4341006025
   26      H       2.7344675518     2.6460756231    -1.7443635364
   27      H       1.2377498172     4.2467025449    -0.4966922900
   28      H       0.2056047024     2.7860981838    -0.5097169102
   29      H       1.5945426235     4.0216652213     1.8508852311
   30      H       0.5166095877     2.5916851356     1.8870235691
   31      H       3.2545309342     2.1757315605     2.3488895353
   32      O      -1.9264831493    -2.3285413847     0.3116471439
   33      C      -5.0593990145    -3.1674612203    -0.0351218181
   34      C      -4.3203866411     0.9240486886    -0.3315986240
   35      C      -3.9028204514     2.4456839644    -0.3630432449
   36      C      -2.5048240966     2.3640136393    -1.0765531324
   37      C      -2.3421764534     0.8015092977    -1.2488991177
   38      O      -3.7162607868     0.3624250290    -1.5649279780
   39      H      -3.5471756391     0.7190724736     1.7829703531
   40      H      -1.3934317544     0.8634918487     0.7635960225
   41      H      -5.9633972604    -3.1064291046     0.6046992103
   42      H      -5.4112175648     0.7368279449    -0.3202493421
   43      H      -4.6251769548     3.0357012811    -0.9487692044
   44      H      -3.8345064025     2.8735562728     0.6497832850
   45      H      -2.5234084720     2.8539810955    -2.0631246083
   46      H      -1.7000574059     2.8114026913    -0.4744776449
   47      H      -1.6350974299     0.4833874801    -2.0395118741
   48      H      -4.3468907824    -3.8827522118     0.4245802437
   49      H      -5.3388629386    -3.5225419121    -1.0441098894
   50      H       6.3595316782    -1.0680592542     0.7375863738
   51      H       5.0376082780    -2.3017016871     0.7440444867
   52      H       5.5040448335    -1.4825116389     2.2803218032
   53      H       2.2839157609    -2.5756957182    -0.1695218195
   54      H       2.1077021616    -3.1418580703    -1.8633657803
   55      H       0.2120357381    -1.3240058938    -2.1031215816
   56      H      -0.0667700869    -2.8539570472    -1.2017386198
 ----------------------------------------------------------------

    9   -1510.2485678621      4.92E-09 Convergence criterion met
 Total energy in the final basis set = -1510.24856786
 Final energy is   -1510.24856786211
 **  OPTIMIZATION CONVERGED  **

                    Orbital Energies (a.u.)
 --------------------------------------------------------------

 Alpha MOs
 -- Occupied --
-18.938 -18.928 -18.927 -18.925 -18.916 -18.901 -18.888 -18.875
-18.868 -18.865 -10.122 -10.099 -10.097 -10.096 -10.087 -10.082
-10.076 -10.069 -10.063 -10.061 -10.058 -10.057 -10.053 -10.044
-10.035 -10.034 -10.032 -10.030 -10.024 -10.022  -1.026  -1.013
 -1.005  -0.998  -0.982  -0.970  -0.955  -0.937  -0.930  -0.927
 -0.773  -0.763  -0.734  -0.725  -0.724  -0.713  -0.705  -0.660
 -0.657  -0.621  -0.605  -0.591  -0.558  -0.549  -0.547  -0.538
 -0.526  -0.512  -0.491  -0.483  -0.476  -0.468  -0.453  -0.448
 -0.443  -0.433  -0.426  -0.419  -0.415  -0.411  -0.409  -0.406
 -0.397  -0.389  -0.385  -0.372  -0.369  -0.361  -0.361  -0.353
 -0.347  -0.344  -0.341  -0.340  -0.337  -0.332  -0.324  -0.320
 -0.314  -0.313  -0.306  -0.302  -0.296  -0.292  -0.289  -0.283
 -0.277  -0.264  -0.250  -0.248  -0.245  -0.233  -0.229  -0.183
 -0.179  -0.177  -0.166  -0.164  -0.155  -0.155  -0.147  -0.143
 -0.141

          Ground-State Mulliken Net Atomic Charges

     Atom                 Charge (a.u.)
  ----------------------------------------
      1 O                    -0.216690
      2 C                     0.211334
      3 C                    -0.080461
      4 C                    -0.081310
      5 C                     0.218270
      6 O                    -0.191408
      7 C                    -0.052333
      8 C                    -0.051786
      9 O                    -0.177849
     10 C                     0.211407
     11 C                    -0.086781
     12 C                    -0.080640
     13 C                     0.203341
     14 O                    -0.215397
     15 O                    -0.165669
     16 O                    -0.162546
     17 O                    -0.198887
     18 C                    -0.126901
     19 C                     0.027002
     20 C                    -0.146801
     21 C                    -0.143160
     22 C                     0.025914
     23 O                    -0.182467
     24 H                     0.087815
     25 H                     0.088294
     26 H                     0.089968
     27 H                     0.078330
     28 H                     0.068576
     29 H                     0.078392
     30 H                     0.069468
     31 H                     0.083659
     32 O                    -0.179968
     33 C                    -0.127301
     34 C                     0.027528
     35 C                    -0.144943
     36 C                    -0.143427
     37 C                     0.025185
     38 O                    -0.181286
     39 H                     0.086085
     40 H                     0.084301
     41 H                     0.087843
     42 H                     0.086880
     43 H                     0.080522
     44 H                     0.075704
     45 H                     0.080712
     46 H                     0.074173
     47 H                     0.079867
     48 H                     0.090452
     49 H                     0.088595
     50 H                     0.096429
     51 H                     0.087958
     52 H                     0.089624
     53 H                     0.089010
     54 H                     0.094607
     55 H                     0.076810
     56 H                     0.093956
  ----------------------------------------
  Sum of atomic charges =     0.000000

                    Cartesian Multipole Moments
 -----------------------------------------------------------------
    Charge (ESU x 10^10)
                -0.0000
    Dipole Moment (Debye)
         X      -2.4136      Y       0.9235      Z      -0.2952
       Tot       2.6011
    Quadrupole Moments (Debye-Ang)
        XX    -173.6949     XY     -12.1344     YY    -154.3555
        XZ      10.6533     YZ       7.7377     ZZ    -167.1154

 Total job time:  126.14s(wall), 6012.45s(cpu)
        *  Thank you very much for using Q-Chem.  Have a nice day.  *
