 Q-Chem 5.0, Q-Chem, Inc., Pleasanton, CA (2017)
 Q-Chem 5.0.1 for Intel X86 EM64T Linux

User input:
--------------------------------------------------------------
$molecule
0  1
O -4.5841342385 -1.6924147045 2.1321662423
C -4.1615747062 -1.2418903736 1.0443607249
C -3.5168302457 0.1781084311 0.8213644181
C -2.0583768805 0.1850277883 0.1970703258
C -1.3664584425 -1.2208041132 0.1730607343
O 0.0817493276 -1.1142318698 0.0195181591
C 0.4807403852 -1.8852383485 -1.1779341953
C 2.0156965814 -2.2538111746 -1.2035572059
O 3.0714061796 -1.3577865351 -1.7189536891
C 3.1866278069 0.0342140666 -1.3747047662
C 2.0693474037 0.8109926706 -0.5767746049
C 2.1993801698 0.6574952742 1.0024580084
C 3.1810430714 -0.4711559478 1.4573415292
O 2.918196668 -1.4449077127 2.1978808943
O -4.4333582987 -1.8414513709 -0.2286925854
O 4.4620932221 -0.2358534819 0.8682485249
O 4.1843974883 0.6041282773 -1.8705299629
C 5.3883176802 -1.3464548277 1.1857437571
C 2.3821491874 2.3604709306 -0.7348408516
C 1.1685515002 3.1961993635 -0.1734271159
C 1.3801026527 3.0499006717 1.3783092997
C 2.6589117761 2.1221024627 1.4171673548
O 3.4547681881 2.5870058722 0.2619747379
H 1.0545377256 0.5282498086 -0.8992656707
H 1.2151823429 0.4055941076 1.4341006025
H 2.7344675518 2.6460756231 -1.7443635364
H 1.2377498172 4.2467025449 -0.49669229
H 0.2056047024 2.7860981838 -0.5097169102
H 1.5945426235 4.0216652213 1.8508852311
H 0.5166095877 2.5916851356 1.8870235691
H 3.2545309342 2.1757315605 2.3488895353
O -1.9264831493 -2.3285413847 0.3116471439
C -5.0593990145 -3.1674612203 -0.0351218181
C -4.3203866411 0.9240486886 -0.331598624
C -3.9028204514 2.4456839644 -0.3630432449
C -2.5048240966 2.3640136393 -1.0765531324
C -2.3421764534 0.8015092977 -1.2488991177
O -3.7162607868 0.362425029 -1.564927978
H -3.5471756391 0.7190724736 1.7829703531
H -1.3934317544 0.8634918487 0.7635960225
H -5.9633972604 -3.1064291046 0.6046992103
H -5.4112175648 0.7368279449 -0.3202493421
H -4.6251769548 3.0357012811 -0.9487692044
H -3.8345064025 2.8735562728 0.649783285
H -2.523408472 2.8539810955 -2.0631246083
H -1.7000574059 2.8114026913 -0.4744776449
H -1.6350974299 0.4833874801 -2.0395118741
H -4.3468907824 -3.8827522118 0.4245802437
H -5.3388629386 -3.5225419121 -1.0441098894
H 6.3595316782 -1.0680592542 0.7375863738
H 5.037608278 -2.3017016871 0.7440444867
H 5.5040448335 -1.4825116389 2.2803218032
H 2.2839157609 -2.5756957182 -0.1695218195
H 2.1077021616 -3.1418580703 -1.8633657803
H 0.2120357381 -1.3240058938 -2.1031215816
H -0.0667700869 -2.8539570472 -1.2017386198
$end

$rem
JOBTYPE                   OPT
METHOD                    B3LYP
DFT_D                     d3_op
BASIS                     STO-3G
GEOM_OPT_MAX_CYCLES       100
GEOM_OPT_TOL_GRADIENT     300
GEOM_OPT_TOL_DISPLACEMENT 1200
GEOM_OPT_TOL_ENERGY       100
SYMMETRY                  False
THRESH                    12
SCF_CONVERGENCE           8
MAX_SUB_FILE_NUM          128
MEM_STATIC                400
MEM_TOTAL                 4000
$end
--------------------------------------------------------------

   16   -1510.2483176334      8.48E-09 Convergence criterion met
 Total energy in the final basis set = -1510.24831763
   14   -1510.2527254802      2.25E-09 Convergence criterion met
 Total energy in the final basis set = -1510.25272548
   13   -1510.2600309759      7.46E-09 Convergence criterion met
 Total energy in the final basis set = -1510.26003098
   14   -1510.2666509511      2.63E-09 Convergence criterion met
 Total energy in the final basis set = -1510.26665095
   13   -1510.2722441295      8.65E-09 Convergence criterion met
 Total energy in the final basis set = -1510.27224413
   13   -1510.2761356605      9.53E-09 Convergence criterion met
 Total energy in the final basis set = -1510.27613566
   13   -1510.2784055464      6.39E-09 Convergence criterion met
 Total energy in the final basis set = -1510.27840555
   13   -1510.2795993216      8.06E-09 Convergence criterion met
   12   -1510.2837329162      4.30E-09 Convergence criterion met
 Total energy in the final basis set = -1510.28373292
   12   -1510.2837597774      3.09E-09 Convergence criterion met
 Total energy in the final basis set = -1510.28375978
   11   -1510.2837532687      5.98E-09 Convergence criterion met
 Total energy in the final basis set = -1510.28375327
   10   -1510.2837625376      4.50E-09 Convergence criterion met
 Total energy in the final basis set = -1510.28376254
   10   -1510.2837596327      5.77E-09 Convergence criterion met
 Total energy in the final basis set = -1510.28375963
    9   -1510.2837610987      2.54E-09 Convergence criterion met
 Total energy in the final basis set = -1510.28376110

             Standard Nuclear Orientation (Angstroms)
    I     Atom           X                Y                Z
 ----------------------------------------------------------------
    1      O      -3.5924614549    -1.3951777687     2.2091333550
    2      C      -3.7102183567    -0.7738800139     1.1309002747
    3      C      -3.1753774276     0.6730710218     0.8239407783
    4      C      -1.8714432026     0.7160350490    -0.0744840662
    5      C      -1.3862034523    -0.6976357884    -0.5386337939
    6      O      -0.4175351379    -0.5266457674    -1.5888533787
    7      C       0.1286845813    -1.8383151247    -2.0205592094
    8      C       1.3278210889    -2.3393815656    -1.1167274758
    9      O       2.6641631143    -1.9446056435    -1.6048360094
   10      C       3.0299086912    -0.5521930750    -1.4448968809
   11      C       2.1109108929     0.3813804400    -0.5659397048
   12      C       2.1302526717     0.0865307653     0.9943080790
   13      C       3.0505644679    -1.1077136222     1.4164214304
   14      O       2.7536619729    -2.0549425738     2.1779036307
   15      O      -4.4504569085    -1.2442373252    -0.0020192162
   16      O       4.3157164757    -0.9558867651     0.7709274786
   17      O       4.0445890052    -0.1713277276    -2.0652222008
   18      C       5.1830881735    -2.1216851729     1.0556835077
   19      C       2.6628357748     1.8645118731    -0.6001263155
   20      C       1.5123208898     2.8325009029    -0.1208153759
   21      C       1.4961728698     2.5380839866     1.4255827022
   22      C       2.6663997635     1.4805409322     1.5472060266
   23      O       3.6350948599     1.9076755342     0.5178876162
   24      H       1.0752559518     0.3047902201    -0.9613845724
   25      H       1.1172799253    -0.1291714237     1.3790990877
   26      H       3.1601405417     2.1359440758    -1.5511329138
   27      H       1.7762066286     3.8815629146    -0.3282323071
   28      H       0.5527460599     2.6054859493    -0.6109952871
   29      H       1.7291847290     3.4406594157     2.0125068665
   30      H       0.5331375110     2.1309390113     1.7745769338
   31      H       3.1494970298     1.4254456541     2.5421016844
   32      O      -1.7410806753    -1.8142731105    -0.1044785738
   33      C      -4.9120553093    -2.6286815941     0.2410298865
   34      C      -4.1745270502     1.5243643283    -0.0735202217
   35      C      -3.7837387840     3.0489990251     0.0628322279
   36      C      -2.4747037227     3.1055330407    -0.8080280594
   37      C      -2.3663472931     1.6066392134    -1.2941969636
   38      O      -3.7751514485     1.1876840576    -1.4602868283
   39      H      -2.9880727005     1.1633535022     1.7953452167
   40      H      -1.0323730835     1.1997733113     0.4586956732
   41      H      -5.5533167885    -2.6962393434     1.1436308021
   42      H      -5.2448904930     1.2929736801     0.0867128907
   43      H      -4.5759421469     3.6886399669    -0.3575385711
   44      H      -3.6118510515     3.3413842487     1.1110037268
   45      H      -2.5897784422     3.7796223336    -1.6716218581
   46      H      -1.5917865365     3.4217055712    -0.2301940761
   47      H      -1.7931828276     1.4458491200    -2.2279401710
   48      H      -4.0540106344    -3.3208978570     0.3641031325
   49      H      -5.4966244822    -2.9170424140    -0.6519234101
   50      H       6.1559653380    -1.8985639318     0.5809357890
   51      H       4.7615443638    -3.0499211049     0.6182475692
   52      H       5.3211834383    -2.2718151165     2.1457109506
   53      H       1.1429724459    -2.0508832102    -0.0614137317
   54      H       1.3414918953    -3.4479035792    -1.1621340505
   55      H       0.4801443086    -1.6944068093    -3.0625003794
   56      H      -0.6799632214    -2.5989660085    -1.9981968852
 ----------------------------------------------------------------

    8   -1510.2837613123      8.11E-09 Convergence criterion met
 Total energy in the final basis set = -1510.28376131
 Final energy is   -1510.28376131232
 **  OPTIMIZATION CONVERGED  **

                    Orbital Energies (a.u.)
 --------------------------------------------------------------

 Alpha MOs
 -- Occupied --
-18.963 -18.940 -18.928 -18.926 -18.908 -18.896 -18.889 -18.877
-18.871 -18.867 -10.125 -10.101 -10.097 -10.096 -10.088 -10.082
-10.070 -10.066 -10.064 -10.063 -10.059 -10.057 -10.054 -10.042
-10.040 -10.029 -10.026 -10.025 -10.024 -10.022  -1.039  -1.015
 -1.005  -1.000  -0.978  -0.971  -0.964  -0.939  -0.933  -0.931
 -0.774  -0.764  -0.735  -0.726  -0.723  -0.708  -0.705  -0.660
 -0.658  -0.628  -0.602  -0.594  -0.555  -0.552  -0.545  -0.541
 -0.524  -0.513  -0.497  -0.486  -0.476  -0.467  -0.457  -0.447
 -0.441  -0.432  -0.428  -0.415  -0.415  -0.413  -0.413  -0.406
 -0.401  -0.400  -0.385  -0.374  -0.370  -0.365  -0.354  -0.348
 -0.345  -0.344  -0.340  -0.339  -0.335  -0.332  -0.328  -0.318
 -0.315  -0.313  -0.309  -0.304  -0.298  -0.294  -0.292  -0.284
 -0.283  -0.268  -0.254  -0.250  -0.242  -0.238  -0.235  -0.202
 -0.180  -0.178  -0.171  -0.167  -0.157  -0.153  -0.147  -0.145
 -0.142

          Ground-State Mulliken Net Atomic Charges

     Atom                 Charge (a.u.)
  ----------------------------------------
      1 O                    -0.216107
      2 C                     0.212258
      3 C                    -0.081584
      4 C                    -0.079329
      5 C                     0.216291
      6 O                    -0.172129
      7 C                    -0.054985
      8 C                    -0.053968
      9 O                    -0.177299
     10 C                     0.211140
     11 C                    -0.104314
     12 C                    -0.084291
     13 C                     0.202870
     14 O                    -0.214712
     15 O                    -0.170433
     16 O                    -0.161309
     17 O                    -0.199788
     18 C                    -0.126695
     19 C                     0.025463
     20 C                    -0.145937
     21 C                    -0.144279
     22 C                     0.026993
     23 O                    -0.184442
     24 H                     0.098182
     25 H                     0.076841
     26 H                     0.091444
     27 H                     0.078277
     28 H                     0.070028
     29 H                     0.078901
     30 H                     0.067342
     31 H                     0.083408
     32 O                    -0.199212
     33 C                    -0.127885
     34 C                     0.026893
     35 C                    -0.144094
     36 C                    -0.144834
     37 C                     0.023835
     38 O                    -0.185809
     39 H                     0.084078
     40 H                     0.084764
     41 H                     0.087391
     42 H                     0.087921
     43 H                     0.079547
     44 H                     0.074598
     45 H                     0.080165
     46 H                     0.073936
     47 H                     0.088748
     48 H                     0.091808
     49 H                     0.088636
     50 H                     0.096371
     51 H                     0.090287
     52 H                     0.090218
     53 H                     0.088988
     54 H                     0.095965
     55 H                     0.098893
     56 H                     0.100957
  ----------------------------------------
  Sum of atomic charges =     0.000000

                    Cartesian Multipole Moments
 -----------------------------------------------------------------
    Charge (ESU x 10^10)
                -0.0000
    Dipole Moment (Debye)
         X      -2.4398      Y       1.1718      Z       0.0312
       Tot       2.7067
    Quadrupole Moments (Debye-Ang)
        XX    -171.7420     XY      -5.9362     YY    -152.7452
        XZ       7.0586     YZ       7.3032     ZZ    -167.2026

 Total job time:  95.99s(wall), 4575.81s(cpu)
        *  Thank you very much for using Q-Chem.  Have a nice day.  *
