 Q-Chem 5.0, Q-Chem, Inc., Pleasanton, CA (2017)
 Q-Chem 5.0.1 for Intel X86 EM64T Linux

User input:
--------------------------------------------------------------
$molecule
0  1
O -3.94934 -3.66094 2.70899
C -3.26408 -4.56952 2.26188
C -3.36658 -6.02376 2.66595
C -3.18715 -7.07505 1.5585
C -2.74922 -6.56083 0.20502
O -3.38404 -7.25734 -0.78357
C -2.53931 -8.21663 -1.42812
C -3.15575 -9.60836 -1.33206
O -4.28115 -9.58465 -0.43999
C -4.2167 -10.44891 0.60311
C -3.8129 -11.84352 0.1876
C -4.20183 -12.2297 -1.24693
C -4.60092 -11.08361 -2.15462
O -3.98588 -10.03508 -2.28455
O -2.14473 -4.19077 1.59248
O -5.79161 -11.21864 -2.79725
O -4.92314 -10.26941 1.5825
C -6.3368 -10.2637 -3.62968
C -2.35835 -12.38233 0.25347
C -2.38988 -13.89961 0.46735
C -2.8879 -14.36744 -0.8968
C -2.9382 -13.02938 -1.65277
O -1.87226 -12.33234 -1.06764
H -4.39174 -12.4839 0.89397
H -5.07454 -12.92198 -1.25988
H -1.7446 -11.87861 1.03076
H -1.33516 -14.23477 0.59264
H -2.98421 -14.25251 1.33747
H -2.11472 -15.03383 -1.33974
H -3.87075 -14.88619 -0.89187
H -2.88278 -13.18602 -2.7515
O -1.68277 -5.99545 5e-05
C -1.83171 -2.89287 1.2425
C -2.18208 -6.3906 3.58748
C -2.53085 -7.61082 4.43409
C -2.4717 -8.69772 3.38624
C -2.02265 -7.88869 2.16384
O -1.20028 -6.89174 2.71548
H -4.31503 -6.14512 3.23637
H -4.10209 -7.69464 1.44024
H -1.73609 -2.26209 2.15171
H -1.86663 -5.55135 4.24661
H -1.69788 -7.7688 5.15617
H -3.49087 -7.53437 4.98866
H -1.67722 -9.42158 3.67497
H -3.42551 -9.23326 3.22575
H -1.54053 -8.55853 1.41919
H -2.61768 -2.4775 0.57652
H -0.86412 -2.88624 0.70049
H -7.3082 -10.63162 -4.0187
H -5.65706 -10.07108 -4.48711
H -6.50949 -9.32055 -3.06833
H -2.19685 -10.25663 -1.37819
H -2.38268 -9.82569 -0.54093
H -1.45571 -8.14345 -1.1237
H -2.50634 -7.95325 -2.50692
$end

$opt
CONSTRAINT
tors           1           2           3           4    +142.105
tors           3           4           5           6    -142.105
tors           4           5           6           7    -104.211
tors           5           6           7           8    +123.158
tors           6           7           8           9      -9.474
tors           7           8           9          10    -123.158
tors           8           9          10          11     -47.368
tors           9          10          11          12     -28.421
tors          11          12          13          14     +47.368
ENDCONSTRAINT
$end

$rem
JOBTYPE                   OPT
METHOD                    B3LYP
DFT_D                     d3_op
BASIS                     STO-3G
GEOM_OPT_MAX_CYCLES       100
GEOM_OPT_TOL_GRADIENT     300
GEOM_OPT_TOL_DISPLACEMENT 1200
GEOM_OPT_TOL_ENERGY       100
SYMMETRY                  False
THRESH                    12
SCF_CONVERGENCE           8
MAX_SUB_FILE_NUM          128
MEM_STATIC                400
MEM_TOTAL                 4000
$end
--------------------------------------------------------------

   31   -1509.6324601533      2.17E-09 Convergence criterion met
 Total energy in the final basis set = -1509.63246015
   15   -1509.7616165695      9.57E-09 Convergence criterion met
 Total energy in the final basis set = -1509.76161657
   15   -1509.8538793839      7.00E-09 Convergence criterion met
 Total energy in the final basis set = -1509.85387938
   15   -1509.9230125124      7.35E-09 Convergence criterion met
 Total energy in the final basis set = -1509.92301251
   14   -1509.9750187623      8.55E-09 Convergence criterion met
 Total energy in the final basis set = -1509.97501876
   14   -1510.0148334368      6.45E-09 Convergence criterion met
 Total energy in the final basis set = -1510.01483344
   14   -1510.0458778378      5.58E-09 Convergence criterion met
 Total energy in the final basis set = -1510.04587784
   14   -1510.0707383595      4.40E-09 Convergence criterion met
   11   -1510.2349005276      7.04E-09 Convergence criterion met
 Total energy in the final basis set = -1510.23490053
   11   -1510.2349462128      4.14E-09 Convergence criterion met
 Total energy in the final basis set = -1510.23494621
   11   -1510.2349748029      6.70E-09 Convergence criterion met
 Total energy in the final basis set = -1510.23497480
   11   -1510.2349881781      2.94E-09 Convergence criterion met
 Total energy in the final basis set = -1510.23498818
    9   -1510.2349903250      7.69E-09 Convergence criterion met
 Total energy in the final basis set = -1510.23499033
    9   -1510.2349918780      2.84E-09 Convergence criterion met
 Total energy in the final basis set = -1510.23499188

             Standard Nuclear Orientation (Angstroms)
    I     Atom           X                Y                Z
 ----------------------------------------------------------------
    1      O      -5.9936820010    -0.3263692620     1.2922684724
    2      C      -5.0802810397    -0.1319467401     0.4569465898
    3      C      -3.7138835539     0.5689905865     0.7745318501
    4      C      -2.3582331512     0.0646885320     0.1122586862
    5      C      -2.3736394171    -1.0243598135    -1.0268274658
    6      O      -1.2370734246    -1.9324877352    -0.8630580434
    7      C      -0.1897970984    -1.6186889765    -1.8597470259
    8      C       1.1595562012    -1.3128233654    -1.0781280618
    9      O       0.8357698304    -1.2231606651     0.3736576469
   10      C       1.1905368694    -0.0154867509     1.0243952514
   11      C       2.6110723751     0.6838687049     0.8787670866
   12      C       3.9378853590    -0.1297297363     0.5775641228
   13      C       3.9768783199    -1.6885385928     0.7568456208
   14      O       3.1967922870    -2.5893530084     0.3823296869
   15      O      -5.2354080889    -0.3545926878    -0.9431333168
   16      O       5.1825403028    -1.9630624652     1.4858326097
   17      O       0.3882655080     0.4200419689     1.8927086326
   18      C       5.3323379967    -3.4231828579     1.6885278468
   19      C       2.6116267508     1.6894957028    -0.3561802779
   20      C       3.8319509480     2.6855448899    -0.2419033488
   21      C       5.0253064625     1.7776132691    -0.7272540384
   22      C       4.2920476751     0.3929624226    -0.8949866172
   23      O       2.9955198788     0.8090863355    -1.4868041506
   24      H       2.7241871364     1.2454055373     1.8232484062
   25      H       4.7201302109     0.2361532596     1.2656772756
   26      H       1.6319722610     2.1668776896    -0.5541548840
   27      H       3.6865821925     3.5542583025    -0.9032787874
   28      H       3.9668846867     3.0470927104     0.7900538496
   29      H       5.4203195591     2.1199317324    -1.6975071170
   30      H       5.8531226245     1.7304476343    -0.0018567287
   31      H       4.7954921136    -0.3441305916    -1.5502543601
   32      O      -3.1168256992    -1.0798646148    -2.0265674817
   33      C      -6.5777380384    -0.9149318899    -1.2226510465
   34      C      -3.7476346976     2.0898629836     0.2834290465
   35      C      -2.7259038281     2.9118102356     1.1622660172
   36      C      -1.3576801796     2.4092329386     0.5754079246
   37      C      -1.8536669397     1.4293809680    -0.5597255543
   38      O      -3.1043190299     2.0469559102    -1.0470397571
   39      H      -3.6117830900     0.5329965396     1.8739128763
   40      H      -1.6413463155    -0.2736058693     0.8842828934
   41      H      -7.3843798879    -0.2219300104    -0.9066260850
   42      H      -4.7629171498     2.5255640505     0.2079444654
   43      H      -2.8642910978     3.9931642115     1.0008948049
   44      H      -2.8352077666     2.6975258494     2.2373496191
   45      H      -0.7762900251     3.2371955985     0.1391221076
   46      H      -0.7330672612     1.8738643357     1.3135869405
   47      H      -1.1414466142     1.2905303137    -1.3957412101
   48      H      -6.7304075018    -1.8879637236    -0.7127098880
   49      H      -6.6192372373    -1.0601754527    -2.3176577013
   50      H       6.2643845975    -3.5562350594     2.2678621246
   51      H       5.4146233220    -3.9627991669     0.7229590313
   52      H       4.4773867048    -3.8455340391     2.2547769202
   53      H       1.8420333032    -2.1822680485    -1.1671076464
   54      H       1.7149319465    -0.4111883064    -1.4394000505
   55      H      -0.4713288986    -0.7628804705    -2.5085783306
   56      H      -0.0309962004    -2.5002177212    -2.5199014673
 ----------------------------------------------------------------

    9   -1510.2349928151      3.70E-09 Convergence criterion met
 Total energy in the final basis set = -1510.23499282
 Final energy is   -1510.23499281509
 **  OPTIMIZATION CONVERGED  **

                    Orbital Energies (a.u.)
 --------------------------------------------------------------

 Alpha MOs
 -- Occupied --
-18.945 -18.926 -18.925 -18.924 -18.893 -18.887 -18.883 -18.883
-18.878 -18.856 -10.113 -10.106 -10.090 -10.085 -10.084 -10.082
-10.072 -10.059 -10.054 -10.053 -10.052 -10.052 -10.051 -10.040
-10.039 -10.038 -10.026 -10.022 -10.011 -10.004  -1.024  -1.008
 -1.000  -0.999  -0.989  -0.964  -0.948  -0.935  -0.921  -0.914
 -0.781  -0.750  -0.736  -0.725  -0.711  -0.699  -0.688  -0.674
 -0.649  -0.613  -0.596  -0.576  -0.565  -0.557  -0.533  -0.530
 -0.528  -0.508  -0.490  -0.470  -0.465  -0.456  -0.451  -0.443
 -0.431  -0.426  -0.422  -0.421  -0.420  -0.412  -0.400  -0.400
 -0.390  -0.387  -0.371  -0.367  -0.365  -0.358  -0.355  -0.352
 -0.343  -0.339  -0.334  -0.330  -0.328  -0.327  -0.324  -0.321
 -0.316  -0.311  -0.305  -0.300  -0.296  -0.289  -0.279  -0.273
 -0.270  -0.265  -0.260  -0.236  -0.234  -0.229  -0.218  -0.191
 -0.174  -0.169  -0.164  -0.161  -0.149  -0.142  -0.139  -0.137
 -0.134

          Ground-State Mulliken Net Atomic Charges

     Atom                 Charge (a.u.)
  ----------------------------------------
      1 O                    -0.220830
      2 C                     0.203295
      3 C                    -0.080392
      4 C                    -0.085325
      5 C                     0.216447
      6 O                    -0.192917
      7 C                    -0.048787
      8 C                    -0.076149
      9 O                    -0.165102
     10 C                     0.210381
     11 C                    -0.084359
     12 C                    -0.085201
     13 C                     0.207131
     14 O                    -0.202733
     15 O                    -0.156986
     16 O                    -0.169472
     17 O                    -0.209003
     18 C                    -0.129508
     19 C                     0.023887
     20 C                    -0.143827
     21 C                    -0.140734
     22 C                     0.026676
     23 O                    -0.185347
     24 H                     0.091359
     25 H                     0.092310
     26 H                     0.087819
     27 H                     0.082785
     28 H                     0.078966
     29 H                     0.082198
     30 H                     0.079274
     31 H                     0.088462
     32 O                    -0.175465
     33 C                    -0.126588
     34 C                     0.026612
     35 C                    -0.143224
     36 C                    -0.156007
     37 C                     0.023851
     38 O                    -0.187631
     39 H                     0.086564
     40 H                     0.102397
     41 H                     0.086090
     42 H                     0.081414
     43 H                     0.074525
     44 H                     0.075476
     45 H                     0.066774
     46 H                     0.092701
     47 H                     0.071708
     48 H                     0.087486
     49 H                     0.092624
     50 H                     0.092130
     51 H                     0.089444
     52 H                     0.093259
     53 H                     0.091940
     54 H                     0.104209
     55 H                     0.075455
     56 H                     0.079936
  ----------------------------------------
  Sum of atomic charges =    -0.000000

                    Cartesian Multipole Moments
 -----------------------------------------------------------------
    Charge (ESU x 10^10)
                -0.0000
    Dipole Moment (Debye)
         X       6.3840      Y       1.7580      Z      -0.0259
       Tot       6.6216
    Quadrupole Moments (Debye-Ang)
        XX    -146.2177     XY      -2.7487     YY    -155.7579
        XZ       2.7852     YZ       1.4232     ZZ    -164.5615

 Total job time:  111.68s(wall), 5326.36s(cpu)
        *  Thank you very much for using Q-Chem.  Have a nice day.  *
