 Q-Chem 5.0, Q-Chem, Inc., Pleasanton, CA (2017)
 Q-Chem 5.0.1 for Intel X86 EM64T Linux

User input:
--------------------------------------------------------------
$molecule
0  1
O -5.993682001 -0.326369262 1.2922684724
C -5.0802810397 -0.1319467401 0.4569465898
C -3.7138835539 0.5689905865 0.7745318501
C -2.3582331512 0.064688532 0.1122586862
C -2.3736394171 -1.0243598135 -1.0268274658
O -1.2370734246 -1.9324877352 -0.8630580434
C -0.1897970984 -1.6186889765 -1.8597470259
C 1.1595562012 -1.3128233654 -1.0781280618
O 0.8357698304 -1.2231606651 0.3736576469
C 1.1905368694 -0.0154867509 1.0243952514
C 2.6110723751 0.6838687049 0.8787670866
C 3.937885359 -0.1297297363 0.5775641228
C 3.9768783199 -1.6885385928 0.7568456208
O 3.196792287 -2.5893530084 0.3823296869
O -5.2354080889 -0.3545926878 -0.9431333168
O 5.1825403028 -1.9630624652 1.4858326097
O 0.388265508 0.4200419689 1.8927086326
C 5.3323379967 -3.4231828579 1.6885278468
C 2.6116267508 1.6894957028 -0.3561802779
C 3.831950948 2.6855448899 -0.2419033488
C 5.0253064625 1.7776132691 -0.7272540384
C 4.2920476751 0.3929624226 -0.8949866172
O 2.9955198788 0.8090863355 -1.4868041506
H 2.7241871364 1.2454055373 1.8232484062
H 4.7201302109 0.2361532596 1.2656772756
H 1.631972261 2.1668776896 -0.554154884
H 3.6865821925 3.5542583025 -0.9032787874
H 3.9668846867 3.0470927104 0.7900538496
H 5.4203195591 2.1199317324 -1.697507117
H 5.8531226245 1.7304476343 -0.0018567287
H 4.7954921136 -0.3441305916 -1.5502543601
O -3.1168256992 -1.0798646148 -2.0265674817
C -6.5777380384 -0.9149318899 -1.2226510465
C -3.7476346976 2.0898629836 0.2834290465
C -2.7259038281 2.9118102356 1.1622660172
C -1.3576801796 2.4092329386 0.5754079246
C -1.8536669397 1.429380968 -0.5597255543
O -3.1043190299 2.0469559102 -1.0470397571
H -3.61178309 0.5329965396 1.8739128763
H -1.6413463155 -0.2736058693 0.8842828934
H -7.3843798879 -0.2219300104 -0.906626085
H -4.7629171498 2.5255640505 0.2079444654
H -2.8642910978 3.9931642115 1.0008948049
H -2.8352077666 2.6975258494 2.2373496191
H -0.7762900251 3.2371955985 0.1391221076
H -0.7330672612 1.8738643357 1.3135869405
H -1.1414466142 1.2905303137 -1.3957412101
H -6.7304075018 -1.8879637236 -0.712709888
H -6.6192372373 -1.0601754527 -2.3176577013
H 6.2643845975 -3.5562350594 2.2678621246
H 5.414623322 -3.9627991669 0.7229590313
H 4.4773867048 -3.8455340391 2.2547769202
H 1.8420333032 -2.1822680485 -1.1671076464
H 1.7149319465 -0.4111883064 -1.4394000505
H -0.4713288986 -0.7628804705 -2.5085783306
H -0.0309962004 -2.5002177212 -2.5199014673
$end

$rem
JOBTYPE                   OPT
METHOD                    B3LYP
DFT_D                     d3_op
BASIS                     STO-3G
GEOM_OPT_MAX_CYCLES       100
GEOM_OPT_TOL_GRADIENT     300
GEOM_OPT_TOL_DISPLACEMENT 1200
GEOM_OPT_TOL_ENERGY       100
SYMMETRY                  False
THRESH                    12
SCF_CONVERGENCE           8
MAX_SUB_FILE_NUM          128
MEM_STATIC                400
MEM_TOTAL                 4000
$end
--------------------------------------------------------------

   16   -1510.2349276701      6.45E-09 Convergence criterion met
 Total energy in the final basis set = -1510.23492767
   14   -1510.2388450684      5.35E-09 Convergence criterion met
 Total energy in the final basis set = -1510.23884507
   15   -1510.2411638751      2.70E-09 Convergence criterion met
 Total energy in the final basis set = -1510.24116388
   14   -1510.2409486764      4.65E-09 Convergence criterion met
 Total energy in the final basis set = -1510.24094868
   13   -1510.2461918411      7.71E-09 Convergence criterion met
 Total energy in the final basis set = -1510.24619184
   14   -1510.2500971037      5.70E-09 Convergence criterion met
 Total energy in the final basis set = -1510.25009710
   13   -1510.2531629988      6.14E-09 Convergence criterion met
 Total energy in the final basis set = -1510.25316300
   14   -1510.2568513826      1.83E-09 Convergence criterion met
   12   -1510.2882167977      4.64E-09 Convergence criterion met
 Total energy in the final basis set = -1510.28821680
   11   -1510.2882407861      8.31E-09 Convergence criterion met
 Total energy in the final basis set = -1510.28824079
   11   -1510.2882500264      7.21E-09 Convergence criterion met
 Total energy in the final basis set = -1510.28825003
   10   -1510.2882421932      7.62E-09 Convergence criterion met
 Total energy in the final basis set = -1510.28824219
    9   -1510.2882434447      5.36E-09 Convergence criterion met
 Total energy in the final basis set = -1510.28824344
    9   -1510.2882382038      4.32E-09 Convergence criterion met
 Total energy in the final basis set = -1510.28823820

             Standard Nuclear Orientation (Angstroms)
    I     Atom           X                Y                Z
 ----------------------------------------------------------------
    1      O      -4.1095841090    -1.9845884927     0.8048755992
    2      C      -3.6559485346    -0.8482057909     0.5548785692
    3      C      -3.0805379151     0.2011176290     1.5611772956
    4      C      -1.7289907988     0.8622746834     1.0650257234
    5      C      -1.2023640626     0.2926120532    -0.2954008232
    6      O      -1.0081957844    -1.1147445719    -0.1266913865
    7      C      -0.3115286792    -1.7177827721    -1.2876711116
    8      C       1.2445553517    -1.8630748965    -0.9799906850
    9      O       1.5072235470    -1.5829057577     0.4521493022
   10      C       1.6402996677    -0.1872546852     0.7760823215
   11      C       2.5245525374     0.7758743650    -0.1289478510
   12      C       3.9613539118     0.2016601581    -0.4963331249
   13      C       4.1757884470    -1.2869562283    -0.0432429449
   14      O       4.3309847395    -2.2913273208    -0.7699701994
   15      O      -3.5987744306    -0.2750213531    -0.7609820970
   16      O       4.1850822038    -1.3033509881     1.3873934261
   17      O       1.1777878302     0.2044362772     1.8739192046
   18      C       4.2060564578    -2.7011043299     1.8760681380
   19      C       1.9743992183     1.1630173699    -1.5711833520
   20      C       2.7260520241     2.4614494559    -2.0502168395
   21      C       4.1492007414     1.8883775550    -2.4156468911
   22      C       3.9653557896     0.3627941486    -2.0700162012
   23      O       2.5502903077     0.1135464297    -2.4529272272
   24      H       2.6269701915     1.6891889779     0.4832463795
   25      H       4.7490023269     0.8178459348    -0.0264797550
   26      H       0.8598780362     1.1729049702    -1.6486094245
   27      H       2.2261657183     2.8900095601    -2.9335971589
   28      H       2.7682169021     3.2299722538    -1.2619119176
   29      H       4.3731050187     2.0172753843    -3.4865534231
   30      H       4.9576833139     2.3500720982    -1.8268596827
   31      H       4.6338773223    -0.3434929610    -2.5997990525
   32      O      -0.8933708723     0.9370735623    -1.3258175607
   33      C      -4.0519184446    -1.2570303443    -1.7701898363
   34      C      -4.0088812572     1.4920624295     1.6585471780
   35      C      -3.5590243142     2.3288882327     2.9212661222
   36      C      -2.2305715430     2.9892006669     2.3945622421
   37      C      -2.1496070117     2.3822705754     0.9401426689
   38      O      -3.5673691381     2.3158191454     0.5126774542
   39      H      -2.9629196946    -0.2935010200     2.5409376097
   40      H      -0.9097273481     0.7124019105     1.7981087139
   41      H      -5.1225669700    -1.5146225129    -1.6371343300
   42      H      -5.0945457130     1.2838336720     1.5929720450
   43      H      -4.3176091002     3.0878504416     3.1704277754
   44      H      -3.3949018408     1.6896270934     3.8032932301
   45      H      -2.3147198904     4.0867871419     2.3521592882
   46      H      -1.3516090985     2.7224670923     3.0029207563
   47      H      -1.5510786248     2.9552418658     0.2055560284
   48      H      -3.4560514596    -2.1912582534    -1.7239733906
   49      H      -3.9082073714    -0.7719583282    -2.7531838403
   50      H       4.3137741661    -2.6415751442     2.9744936262
   51      H       5.0518729038    -3.2738517687     1.4445692581
   52      H       3.2560459874    -3.2152202170     1.6224522306
   53      H       1.5530009145    -2.9166374971    -1.1272700734
   54      H       1.8415468810    -1.1938747276    -1.6609919608
   55      H      -0.4697916341    -1.0865710941    -2.1876898379
   56      H      -0.7757191107    -2.7122175785    -1.4409893248
 ----------------------------------------------------------------

    9   -1510.2882378774      3.57E-09 Convergence criterion met
 Total energy in the final basis set = -1510.28823788
 Final energy is   -1510.28823787738
 **  OPTIMIZATION CONVERGED  **

                    Orbital Energies (a.u.)
 --------------------------------------------------------------

 Alpha MOs
 -- Occupied --
-18.936 -18.934 -18.933 -18.920 -18.914 -18.884 -18.880 -18.878
-18.877 -18.874 -10.107 -10.102 -10.101 -10.097 -10.070 -10.064
-10.063 -10.061 -10.058 -10.056 -10.054 -10.043 -10.042 -10.038
-10.034 -10.031 -10.028 -10.025 -10.017 -10.016  -1.020  -1.013
 -1.006  -0.998  -0.987  -0.967  -0.943  -0.938  -0.934  -0.930
 -0.770  -0.761  -0.727  -0.722  -0.710  -0.705  -0.692  -0.661
 -0.659  -0.610  -0.601  -0.581  -0.556  -0.545  -0.541  -0.534
 -0.516  -0.509  -0.488  -0.476  -0.467  -0.458  -0.447  -0.440
 -0.437  -0.430  -0.424  -0.419  -0.413  -0.409  -0.406  -0.403
 -0.400  -0.383  -0.372  -0.369  -0.365  -0.360  -0.358  -0.352
 -0.344  -0.343  -0.337  -0.331  -0.329  -0.324  -0.318  -0.317
 -0.311  -0.307  -0.303  -0.299  -0.290  -0.289  -0.286  -0.278
 -0.271  -0.258  -0.253  -0.249  -0.249  -0.231  -0.227  -0.180
 -0.177  -0.176  -0.174  -0.162  -0.158  -0.151  -0.149  -0.147
 -0.141

          Ground-State Mulliken Net Atomic Charges

     Atom                 Charge (a.u.)
  ----------------------------------------
      1 O                    -0.210482
      2 C                     0.213261
      3 C                    -0.078500
      4 C                    -0.082687
      5 C                     0.223797
      6 O                    -0.170174
      7 C                    -0.058628
      8 C                    -0.080077
      9 O                    -0.179061
     10 C                     0.208054
     11 C                    -0.087945
     12 C                    -0.083160
     13 C                     0.209316
     14 O                    -0.214280
     15 O                    -0.167689
     16 O                    -0.170623
     17 O                    -0.204248
     18 C                    -0.128474
     19 C                     0.006280
     20 C                    -0.142913
     21 C                    -0.142881
     22 C                     0.025012
     23 O                    -0.186134
     24 H                     0.087381
     25 H                     0.088087
     26 H                     0.110539
     27 H                     0.081664
     28 H                     0.075905
     29 H                     0.080383
     30 H                     0.075726
     31 H                     0.092418
     32 O                    -0.224200
     33 C                    -0.127784
     34 C                     0.025828
     35 C                    -0.143626
     36 C                    -0.143955
     37 C                     0.024483
     38 O                    -0.187472
     39 H                     0.088411
     40 H                     0.102189
     41 H                     0.088987
     42 H                     0.081909
     43 H                     0.077158
     44 H                     0.075011
     45 H                     0.076671
     46 H                     0.077054
     47 H                     0.086991
     48 H                     0.087810
     49 H                     0.092276
     50 H                     0.091462
     51 H                     0.089255
     52 H                     0.095235
     53 H                     0.082493
     54 H                     0.116290
     55 H                     0.092932
     56 H                     0.084722
  ----------------------------------------
  Sum of atomic charges =     0.000000

                    Cartesian Multipole Moments
 -----------------------------------------------------------------
    Charge (ESU x 10^10)
                 0.0000
    Dipole Moment (Debye)
         X       1.7899      Y       1.2787      Z      -0.4030
       Tot       2.2364
    Quadrupole Moments (Debye-Ang)
        XX    -152.8898     XY       4.2516     YY    -159.9241
        XZ      -0.3255     YZ       3.3808     ZZ    -158.1672

 Total job time:  122.19s(wall), 5827.43s(cpu)
        *  Thank you very much for using Q-Chem.  Have a nice day.  *
