 Q-Chem 5.0, Q-Chem, Inc., Pleasanton, CA (2017)
 Q-Chem 5.0.1 for Intel X86 EM64T Linux

User input:
--------------------------------------------------------------
$molecule
0  1
O -3.94934 -3.66094 2.70899
C -3.26408 -4.56952 2.26188
C -3.36658 -6.02376 2.66595
C -2.76261 -7.06348 1.7078
C -1.9673 -6.5228 0.54022
O -0.8359 -5.90736 0.99475
C 0.25327 -6.81292 1.20189
C 1.27169 -6.67673 0.07476
O 1.79931 -7.96819 -0.26678
C 2.84517 -8.38878 0.48716
C 2.41368 -9.06893 1.76461
C 2.97372 -8.44502 3.05122
C 3.56969 -7.05897 2.90836
O 3.21991 -6.06902 3.53463
O -2.49721 -4.17235 1.21489
O 4.65527 -6.94354 2.09865
O 3.98152 -8.43765 0.04007
C 5.3398 -5.76779 1.87149
C 1.05282 -9.56333 2.29473
C 1.21774 -10.79106 3.20785
C 1.78697 -10.14851 4.46274
C 1.82067 -8.67811 4.03661
O 0.67841 -8.58751 3.2389
H 2.93235 -10.0387 1.58626
H 3.85734 -9.02382 3.40565
H 0.34978 -9.83673 1.48066
H 0.20249 -11.18114 3.44766
H 1.82633 -11.61499 2.77709
H 1.0487 -10.27066 5.2869
H 2.77483 -10.53816 4.79047
H 1.86844 -8.00696 4.92075
O -2.22295 -6.68929 -0.64258
C -2.37677 -2.88228 0.73388
C -2.67798 -6.39213 3.99001
C -3.43579 -7.54121 4.64276
C -3.12725 -8.66066 3.66914
C -2.10032 -7.96831 2.75249
O -1.48329 -7.02749 3.59996
H -4.4643 -6.19975 2.75228
H -3.58811 -7.62896 1.21891
H -1.97572 -2.21499 1.52632
H -2.57344 -5.53683 4.69242
H -2.92183 -7.75108 5.60852
H -4.51656 -7.36807 4.83479
H -2.66694 -9.49873 4.23854
H -3.9973 -9.0319 3.08537
H -1.50743 -8.7652 2.2862
H -3.3637 -2.50778 0.38775
H -1.67398 -2.87984 -0.12435
H 6.17642 -5.96418 1.17016
H 5.75563 -5.37578 2.82419
H 4.66192 -5.01357 1.41746
H 0.69931 -6.37899 -0.83015
H 2.03644 -5.88428 0.23325
H -0.11718 -7.82676 1.04814
H 0.73461 -6.6122 2.17358
$end

$opt
CONSTRAINT
tors           1           2           3           4    +161.053
tors           3           4           5           6     +66.316
tors           4           5           6           7     +85.263
tors           5           6           7           8    +104.211
tors           6           7           8           9    -142.105
tors           7           8           9          10     -85.263
tors           8           9          10          11     +85.263
tors           9          10          11          12    -123.158
tors          11          12          13          14    +123.158
ENDCONSTRAINT
$end

$rem
JOBTYPE                   OPT
METHOD                    B3LYP
DFT_D                     d3_op
BASIS                     STO-3G
GEOM_OPT_MAX_CYCLES       100
GEOM_OPT_TOL_GRADIENT     300
GEOM_OPT_TOL_DISPLACEMENT 1200
GEOM_OPT_TOL_ENERGY       100
SYMMETRY                  False
THRESH                    12
SCF_CONVERGENCE           8
MAX_SUB_FILE_NUM          128
MEM_STATIC                400
MEM_TOTAL                 4000
$end
--------------------------------------------------------------

   15   -1510.0493849069      6.42E-09 Convergence criterion met
 Total energy in the final basis set = -1510.04938491
   14   -1510.1299446338      4.69E-09 Convergence criterion met
 Total energy in the final basis set = -1510.12994463
   14   -1510.1767884149      6.75E-09 Convergence criterion met
 Total energy in the final basis set = -1510.17678841
   14   -1510.2043353208      5.62E-09 Convergence criterion met
 Total energy in the final basis set = -1510.20433532
   14   -1510.2165375626      4.02E-09 Convergence criterion met
 Total energy in the final basis set = -1510.21653756
   13   -1510.2216471052      9.58E-09 Convergence criterion met
 Total energy in the final basis set = -1510.22164711
   13   -1510.2236178029      9.43E-09 Convergence criterion met
 Total energy in the final basis set = -1510.22361780
   13   -1510.2243327559      5.56E-09 Convergence criterion met
   11   -1510.2253569482      4.29E-09 Convergence criterion met
 Total energy in the final basis set = -1510.22535695
   11   -1510.2253850558      5.58E-09 Convergence criterion met
 Total energy in the final basis set = -1510.22538506
   11   -1510.2254013356      3.49E-09 Convergence criterion met
 Total energy in the final basis set = -1510.22540134
   11   -1510.2254125074      2.29E-09 Convergence criterion met
 Total energy in the final basis set = -1510.22541251
   11   -1510.2254151193      2.65E-09 Convergence criterion met
 Total energy in the final basis set = -1510.22541512
   10   -1510.2254182486      7.99E-09 Convergence criterion met
 Total energy in the final basis set = -1510.22541825

             Standard Nuclear Orientation (Angstroms)
    I     Atom           X                Y                Z
 ----------------------------------------------------------------
    1      O      -5.3481024221     1.3942460038     1.3802837530
    2      C      -4.3354198585     1.1372067423     0.6915924460
    3      C      -3.8757330518    -0.2955563748     0.2542306865
    4      C      -2.8644044814    -0.4482319848    -0.9646975781
    5      C      -2.0965419218     0.8930434945    -1.3576164342
    6      O      -1.1562114113     1.4186723461    -0.3723639523
    7      C       0.1686004150     0.7716506681    -0.5200543052
    8      C       1.1553537045     1.7940428363    -1.2306708013
    9      O       2.1250961513     1.2470560989    -2.2139646980
   10      C       3.3253969368     0.7726087197    -1.5348178686
   11      C       3.3459869873    -0.7016777569    -0.9396823429
   12      C       3.6581306464    -0.8500225963     0.6090362316
   13      C       3.1724722707     0.3541001573     1.5034553761
   14      O       2.4002169010     0.2855991519     2.4846197370
   15      O      -3.4740268791     2.1354304481     0.1523723633
   16      O       3.7464749964     1.5742737767     1.0299215495
   17      O       4.3859881058     1.4222718518    -1.6548631563
   18      C       3.3037075457     2.7068593661     1.8775558941
   19      C       2.1409680473    -1.7129977321    -1.1220221518
   20      C       2.7655144737    -3.1574085223    -1.2504181229
   21      C       3.2819376640    -3.3869038571     0.2193199437
   22      C       2.7353726269    -2.0960421002     0.9473048595
   23      O       1.4894948859    -1.7671983011     0.2087387029
   24      H       4.2155449782    -1.1379019140    -1.4685148801
   25      H       4.7333906513    -1.0304943037     0.7884983509
   26      H       1.4210915662    -1.4470768404    -1.9183429944
   27      H       1.9823802954    -3.8848818504    -1.5183088157
   28      H       3.5688376607    -3.2063331866    -2.0029390475
   29      H       2.8500604085    -4.2966939145     0.6651832067
   30      H       4.3803677811    -3.4551217936     0.2753228891
   31      H       2.5165678450    -2.2047146739     2.0272557920
   32      O      -2.3073203919     1.4907461770    -2.4345752128
   33      C      -3.9332782773     3.4915216202     0.5231047684
   34      C      -3.1266432766    -1.1258156251     1.3988304302
   35      C      -3.5008502966    -2.6400510392     1.1744240475
   36      C      -2.7449026824    -2.9158676430    -0.1772267836
   37      C      -1.9196437395    -1.5751142837    -0.3604474364
   38      O      -1.6978852506    -1.0875647290     1.0205039809
   39      H      -4.8131093231    -0.8259894754     0.0042737052
   40      H      -3.3956524688    -0.7886784670    -1.8715649934
   41      H      -3.9328455297     3.6311511853     1.6233026651
   42      H      -3.2722762300    -0.7410692010     2.4267251887
   43      H      -3.0981567831    -3.2578200856     1.9933016336
   44      H      -4.5877999128    -2.8043010575     1.1036663350
   45      H      -2.0653693279    -3.7786727188    -0.0979941061
   46      H      -3.4353088170    -3.0859758606    -1.0190635020
   47      H      -0.9550334177    -1.7206216089    -0.8778320247
   48      H      -4.9543546640     3.6929262342     0.1392654001
   49      H      -3.2138425458     4.1898831928     0.0576630000
   50      H       3.7171161314     3.6170977762     1.4058072238
   51      H       3.6925045308     2.6146004674     2.9121383797
   52      H       2.1977133920     2.7761087451     1.9233454216
   53      H       0.5155660299     2.4777841538    -1.8294483189
   54      H       1.6778123276     2.4073278571    -0.4664831804
   55      H       0.1160636798    -0.1345636627    -1.1451374845
   56      H       0.5350985063     0.4730017763     0.4838519335
 ----------------------------------------------------------------

    9   -1510.2254189635      4.99E-09 Convergence criterion met
 Total energy in the final basis set = -1510.22541896
 Final energy is   -1510.22541896349
 **  OPTIMIZATION CONVERGED  **

                    Orbital Energies (a.u.)
 --------------------------------------------------------------

 Alpha MOs
 -- Occupied --
-18.943 -18.942 -18.903 -18.896 -18.893 -18.889 -18.886 -18.885
-18.881 -18.872 -10.105 -10.104 -10.101 -10.100 -10.068 -10.066
-10.066 -10.063 -10.060 -10.060 -10.057 -10.053 -10.045 -10.038
-10.037 -10.034 -10.026 -10.025 -10.021 -10.020  -1.018  -1.015
 -1.001  -0.992  -0.976  -0.971  -0.941  -0.937  -0.932  -0.920
 -0.768  -0.762  -0.727  -0.721  -0.709  -0.704  -0.688  -0.667
 -0.663  -0.606  -0.599  -0.582  -0.553  -0.545  -0.544  -0.537
 -0.515  -0.512  -0.484  -0.478  -0.469  -0.464  -0.449  -0.438
 -0.433  -0.428  -0.424  -0.415  -0.411  -0.410  -0.408  -0.402
 -0.394  -0.384  -0.377  -0.368  -0.361  -0.355  -0.347  -0.345
 -0.342  -0.340  -0.337  -0.335  -0.330  -0.328  -0.321  -0.315
 -0.314  -0.311  -0.307  -0.300  -0.297  -0.291  -0.287  -0.280
 -0.274  -0.261  -0.245  -0.240  -0.234  -0.233  -0.224  -0.183
 -0.179  -0.171  -0.161  -0.155  -0.155  -0.147  -0.145  -0.142
 -0.134

          Ground-State Mulliken Net Atomic Charges

     Atom                 Charge (a.u.)
  ----------------------------------------
      1 O                    -0.215764
      2 C                     0.209268
      3 C                    -0.081106
      4 C                    -0.082296
      5 C                     0.227473
      6 O                    -0.192245
      7 C                    -0.055395
      8 C                    -0.056752
      9 O                    -0.189998
     10 C                     0.218242
     11 C                    -0.087082
     12 C                    -0.077509
     13 C                     0.205929
     14 O                    -0.209449
     15 O                    -0.161171
     16 O                    -0.168468
     17 O                    -0.177288
     18 C                    -0.129409
     19 C                     0.019172
     20 C                    -0.141484
     21 C                    -0.145508
     22 C                     0.024353
     23 O                    -0.191599
     24 H                     0.085037
     25 H                     0.088741
     26 H                     0.082109
     27 H                     0.077201
     28 H                     0.075032
     29 H                     0.079129
     30 H                     0.074549
     31 H                     0.092632
     32 O                    -0.191934
     33 C                    -0.123672
     34 C                     0.026629
     35 C                    -0.141562
     36 C                    -0.145134
     37 C                     0.023572
     38 O                    -0.183080
     39 H                     0.084705
     40 H                     0.082282
     41 H                     0.091555
     42 H                     0.085576
     43 H                     0.078460
     44 H                     0.074531
     45 H                     0.077984
     46 H                     0.072812
     47 H                     0.082538
     48 H                     0.090710
     49 H                     0.097032
     50 H                     0.094735
     51 H                     0.090065
     52 H                     0.091718
     53 H                     0.093243
     54 H                     0.076944
     55 H                     0.077779
     56 H                     0.096167
  ----------------------------------------
  Sum of atomic charges =    -0.000000

                    Cartesian Multipole Moments
 -----------------------------------------------------------------
    Charge (ESU x 10^10)
                 0.0000
    Dipole Moment (Debye)
         X       0.5694      Y      -2.6528      Z       0.7482
       Tot       2.8145
    Quadrupole Moments (Debye-Ang)
        XX    -161.3605     XY      -3.5943     YY    -147.6115
        XZ       7.2047     YZ       9.7231     ZZ    -168.0845

 Total job time:  61.94s(wall), 2949.86s(cpu)
        *  Thank you very much for using Q-Chem.  Have a nice day.  *
