 Q-Chem 5.0, Q-Chem, Inc., Pleasanton, CA (2017)
 Q-Chem 5.0.1 for Intel X86 EM64T Linux

User input:
--------------------------------------------------------------
$molecule
0  1
O -5.3481024221 1.3942460038 1.380283753
C -4.3354198585 1.1372067423 0.691592446
C -3.8757330518 -0.2955563748 0.2542306865
C -2.8644044814 -0.4482319848 -0.9646975781
C -2.0965419218 0.8930434945 -1.3576164342
O -1.1562114113 1.4186723461 -0.3723639523
C 0.168600415 0.7716506681 -0.5200543052
C 1.1553537045 1.7940428363 -1.2306708013
O 2.1250961513 1.2470560989 -2.213964698
C 3.3253969368 0.7726087197 -1.5348178686
C 3.3459869873 -0.7016777569 -0.9396823429
C 3.6581306464 -0.8500225963 0.6090362316
C 3.1724722707 0.3541001573 1.5034553761
O 2.400216901 0.2855991519 2.484619737
O -3.4740268791 2.1354304481 0.1523723633
O 3.7464749964 1.5742737767 1.0299215495
O 4.3859881058 1.4222718518 -1.6548631563
C 3.3037075457 2.7068593661 1.8775558941
C 2.1409680473 -1.7129977321 -1.1220221518
C 2.7655144737 -3.1574085223 -1.2504181229
C 3.281937664 -3.3869038571 0.2193199437
C 2.7353726269 -2.0960421002 0.9473048595
O 1.4894948859 -1.7671983011 0.2087387029
H 4.2155449782 -1.137901914 -1.4685148801
H 4.7333906513 -1.0304943037 0.7884983509
H 1.4210915662 -1.4470768404 -1.9183429944
H 1.9823802954 -3.8848818504 -1.5183088157
H 3.5688376607 -3.2063331866 -2.0029390475
H 2.8500604085 -4.2966939145 0.6651832067
H 4.3803677811 -3.4551217936 0.2753228891
H 2.516567845 -2.2047146739 2.027255792
O -2.3073203919 1.490746177 -2.4345752128
C -3.9332782773 3.4915216202 0.5231047684
C -3.1266432766 -1.1258156251 1.3988304302
C -3.5008502966 -2.6400510392 1.1744240475
C -2.7449026824 -2.915867643 -0.1772267836
C -1.9196437395 -1.5751142837 -0.3604474364
O -1.6978852506 -1.087564729 1.0205039809
H -4.8131093231 -0.8259894754 0.0042737052
H -3.3956524688 -0.788678467 -1.8715649934
H -3.9328455297 3.6311511853 1.6233026651
H -3.27227623 -0.741069201 2.4267251887
H -3.0981567831 -3.2578200856 1.9933016336
H -4.5877999128 -2.8043010575 1.103666335
H -2.0653693279 -3.7786727188 -0.0979941061
H -3.435308817 -3.0859758606 -1.019063502
H -0.9550334177 -1.7206216089 -0.8778320247
H -4.954354664 3.6929262342 0.1392654001
H -3.2138425458 4.1898831928 0.057663
H 3.7171161314 3.6170977762 1.4058072238
H 3.6925045308 2.6146004674 2.9121383797
H 2.197713392 2.7761087451 1.9233454216
H 0.5155660299 2.4777841538 -1.8294483189
H 1.6778123276 2.4073278571 -0.4664831804
H 0.1160636798 -0.1345636627 -1.1451374845
H 0.5350985063 0.4730017763 0.4838519335
$end

$rem
JOBTYPE                   OPT
METHOD                    B3LYP
DFT_D                     d3_op
BASIS                     STO-3G
GEOM_OPT_MAX_CYCLES       100
GEOM_OPT_TOL_GRADIENT     300
GEOM_OPT_TOL_DISPLACEMENT 1200
GEOM_OPT_TOL_ENERGY       100
SYMMETRY                  False
THRESH                    12
SCF_CONVERGENCE           8
MAX_SUB_FILE_NUM          128
MEM_STATIC                400
MEM_TOTAL                 4000
$end
--------------------------------------------------------------

   16   -1510.2253038931      4.71E-09 Convergence criterion met
 Total energy in the final basis set = -1510.22530389
   15   -1510.2296302624      3.05E-09 Convergence criterion met
 Total energy in the final basis set = -1510.22963026
   15   -1510.2327260139      2.84E-09 Convergence criterion met
 Total energy in the final basis set = -1510.23272601
   14   -1510.2368642920      9.06E-09 Convergence criterion met
 Total energy in the final basis set = -1510.23686429
   14   -1510.2394098169      8.95E-09 Convergence criterion met
 Total energy in the final basis set = -1510.23940982
   14   -1510.2424633432      7.12E-09 Convergence criterion met
 Total energy in the final basis set = -1510.24246334
   14   -1510.2458211156      3.56E-09 Convergence criterion met
 Total energy in the final basis set = -1510.24582112
   14   -1510.2486858855      4.91E-09 Convergence criterion met
   13   -1510.2865399549      3.27E-09 Convergence criterion met
 Total energy in the final basis set = -1510.28653995
   13   -1510.2867351655      3.59E-09 Convergence criterion met
 Total energy in the final basis set = -1510.28673517
   12   -1510.2867797505      8.76E-09 Convergence criterion met
 Total energy in the final basis set = -1510.28677975
   12   -1510.2868049456      3.80E-09 Convergence criterion met
 Total energy in the final basis set = -1510.28680495
   11   -1510.2868132033      7.33E-09 Convergence criterion met
 Total energy in the final basis set = -1510.28681320
    9   -1510.2868118700      9.24E-09 Convergence criterion met
 Total energy in the final basis set = -1510.28681187

             Standard Nuclear Orientation (Angstroms)
    I     Atom           X                Y                Z
 ----------------------------------------------------------------
    1      O      -4.1671747722     1.4826385012     1.4276887371
    2      C      -3.9764330215     0.9004425925     0.3396955073
    3      C      -4.2162671152    -0.6185478487     0.0166114594
    4      C      -2.9607024160    -1.3974853298    -0.5554147806
    5      C      -1.6314107001    -0.5738716607    -0.6123844372
    6      O      -1.5499086934     0.2211724025     0.5686714285
    7      C      -0.2441882069     0.9074887043     0.7119372436
    8      C       0.0659659201     1.9765448388    -0.4220338382
    9      O       1.0814201244     1.4441610697    -1.3596283871
   10      C       2.3483162598     1.3917254079    -0.6886836302
   11      C       3.1492539863     0.1286461936    -1.1732601904
   12      C       4.1986178447    -0.2965394726    -0.0676608612
   13      C       4.5726344297     0.8234083260     0.9730623859
   14      O       4.3000725702     0.8378570289     2.1925967495
   15      O      -3.5896096522     1.5681765477    -0.8724784261
   16      O       5.4387063270     1.7630672091     0.3182685082
   17      O       2.6834314549     2.1740826650     0.2302740617
   18      C       5.7629400676     2.8674829897     1.2469521774
   19      C       2.1391796121    -1.0922222200    -1.1053020270
   20      C       2.8482345805    -2.4254392910    -1.5565594588
   21      C       3.6886119552    -2.7896267182    -0.2752661503
   22      C       3.4339300263    -1.5134466655     0.6129195352
   23      O       1.9955413634    -1.2349196260     0.3677082538
   24      H       3.6013870426     0.2879573799    -2.1687234883
   25      H       5.1349400584    -0.6362515314    -0.5453011390
   26      H       1.1380922866    -0.8789505081    -1.5430715091
   27      H       2.1018494544    -3.2012283869    -1.7888344116
   28      H       3.4805582770    -2.2696382702    -2.4453415194
   29      H       3.2916366199    -3.6895580538     0.2216217446
   30      H       4.7575207263    -2.9451709116    -0.4920664038
   31      H       3.6295281143    -1.6200797836     1.6978451727
   32      O      -0.7604940497    -0.6392622996    -1.5093210734
   33      C      -3.4565610732     3.0207296548    -0.6183289010
   34      C      -4.5178690291    -1.4434688498     1.3370875339
   35      C      -5.2171532667    -2.7973081954     0.9249845799
   36      C      -4.0004910324    -3.5900975438     0.3170617193
   37      C      -2.8234471609    -2.5569924508     0.5300538419
   38      O      -3.1753230528    -1.8743400597     1.7929113369
   39      H      -5.0588528729    -0.6820679601    -0.6965799815
   40      H      -3.1527026321    -1.8040291492    -1.5635402105
   41      H      -2.7502256052     3.2304669883     0.2101962673
   42      H      -5.0222198859    -0.8530925210     2.1266107206
   43      H      -5.6281412162    -3.3052798137     1.8119233123
   44      H      -6.0297157955    -2.6411676110     0.1975752146
   45      H      -3.8015236277    -4.5186420502     0.8756739697
   46      H      -4.1442435048    -3.8407610404    -0.7461459671
   47      H      -1.8119230493    -3.0031862752     0.5960746641
   48      H      -4.4344034438     3.4798446468    -0.3656140383
   49      H      -3.0753042300     3.4647592695    -1.5563862213
   50      H       6.4830580801     3.5167713332     0.7157469255
   51      H       6.2195623489     2.4940175312     2.1863419818
   52      H       4.8554730051     3.4520949569     1.5035954627
   53      H      -0.8396042014     2.1765570824    -1.0276301889
   54      H       0.4162558370     2.9225111185     0.0434831097
   55      H       0.5883904840     0.1548610179     0.7495655942
   56      H      -0.3155711379     1.4155956952     1.6940769987
 ----------------------------------------------------------------

    9   -1510.2868134497      5.03E-09 Convergence criterion met
 Total energy in the final basis set = -1510.28681345
 Final energy is   -1510.28681344969
 **  OPTIMIZATION CONVERGED  **

                    Orbital Energies (a.u.)
 --------------------------------------------------------------

 Alpha MOs
 -- Occupied --
-18.940 -18.931 -18.930 -18.916 -18.890 -18.888 -18.886 -18.881
-18.872 -18.856 -10.105 -10.105 -10.099 -10.088 -10.073 -10.065
-10.063 -10.061 -10.057 -10.055 -10.052 -10.044 -10.039 -10.037
-10.036 -10.029 -10.021 -10.019 -10.017 -10.016  -1.020  -1.014
 -1.006  -0.994  -0.970  -0.968  -0.943  -0.941  -0.934  -0.921
 -0.764  -0.759  -0.726  -0.721  -0.708  -0.703  -0.692  -0.663
 -0.651  -0.618  -0.597  -0.583  -0.545  -0.539  -0.537  -0.533
 -0.513  -0.502  -0.483  -0.475  -0.464  -0.457  -0.453  -0.442
 -0.431  -0.428  -0.425  -0.415  -0.408  -0.406  -0.401  -0.399
 -0.390  -0.381  -0.376  -0.366  -0.361  -0.355  -0.354  -0.349
 -0.345  -0.339  -0.337  -0.331  -0.328  -0.324  -0.316  -0.310
 -0.308  -0.305  -0.300  -0.299  -0.297  -0.292  -0.273  -0.273
 -0.266  -0.254  -0.252  -0.247  -0.241  -0.234  -0.231  -0.190
 -0.176  -0.168  -0.162  -0.159  -0.156  -0.149  -0.146  -0.143
 -0.138

          Ground-State Mulliken Net Atomic Charges

     Atom                 Charge (a.u.)
  ----------------------------------------
      1 O                    -0.213058
      2 C                     0.217229
      3 C                    -0.078591
      4 C                    -0.078438
      5 C                     0.218543
      6 O                    -0.166524
      7 C                    -0.060491
      8 C                    -0.052759
      9 O                    -0.170306
     10 C                     0.216499
     11 C                    -0.077349
     12 C                    -0.083505
     13 C                     0.214849
     14 O                    -0.222140
     15 O                    -0.177001
     16 O                    -0.175985
     17 O                    -0.202292
     18 C                    -0.128181
     19 C                     0.008902
     20 C                    -0.145924
     21 C                    -0.142338
     22 C                     0.023141
     23 O                    -0.200983
     24 H                     0.087927
     25 H                     0.083264
     26 H                     0.114889
     27 H                     0.077634
     28 H                     0.073350
     29 H                     0.076809
     30 H                     0.073185
     31 H                     0.089883
     32 O                    -0.212888
     33 C                    -0.130251
     34 C                     0.024801
     35 C                    -0.143865
     36 C                    -0.143929
     37 C                     0.025900
     38 O                    -0.185561
     39 H                     0.083692
     40 H                     0.085536
     41 H                     0.089142
     42 H                     0.091012
     43 H                     0.078375
     44 H                     0.072867
     45 H                     0.078419
     46 H                     0.073593
     47 H                     0.084078
     48 H                     0.087556
     49 H                     0.088372
     50 H                     0.085579
     51 H                     0.086675
     52 H                     0.090391
     53 H                     0.094832
     54 H                     0.092609
     55 H                     0.109261
     56 H                     0.093566
  ----------------------------------------
  Sum of atomic charges =    -0.000000

                    Cartesian Multipole Moments
 -----------------------------------------------------------------
    Charge (ESU x 10^10)
                 0.0000
    Dipole Moment (Debye)
         X      -0.7672      Y      -0.7796      Z      -2.5563
       Tot       2.7804
    Quadrupole Moments (Debye-Ang)
        XX    -146.1295     XY       1.0781     YY    -147.7522
        XZ       1.7928     YZ       0.1826     ZZ    -169.6710

 Total job time:  153.55s(wall), 7324.52s(cpu)
        *  Thank you very much for using Q-Chem.  Have a nice day.  *
