 Q-Chem 5.0, Q-Chem, Inc., Pleasanton, CA (2017)
 Q-Chem 5.0.1 for Intel X86 EM64T Linux

User input:
--------------------------------------------------------------
$molecule
0  1
O 4.2379468174 -0.6792260954 -2.6070357446
C 3.7018115395 -0.0446864967 -1.6703635917
C 4.2468274154 0.0279917223 -0.2022386541
C 3.4490780211 0.8767016558 0.8695814606
C 1.9286882675 1.1093636936 0.5325287539
O 1.733976754 2.5319907496 0.5205537917
C 0.3673460407 3.021236365 0.2238615826
C -0.958100894 2.4425708045 0.9180469127
O -0.9553130107 1.0440331046 1.37635518
C -1.6748386507 0.1010361363 0.5642189517
C -2.9154007909 0.5814204469 -0.2946784071
C -3.8368821791 -0.6428093017 -0.7138430402
C -3.2692551973 -2.0709475782 -0.3561325401
O -3.6384763473 -2.8182538563 0.5745037559
O 2.6080076493 0.8602018787 -1.8539337475
O -2.3908287766 -2.4634302876 -1.424528871
O -1.3890343472 -1.1063766938 0.7316951702
C -1.7747848031 -3.7694290482 -1.1051274429
C -3.9518842696 1.3939338443 0.6140415692
C -5.0321311357 2.0623308195 -0.3278014093
C -5.9378166919 0.8242044696 -0.6789355562
C -5.1711504765 -0.3306261061 0.0758148718
O -4.6956304181 0.3277150282 1.3132599241
H -2.5852089796 1.1562017072 -1.1776846818
H -4.0038987388 -0.624032464 -1.805936307
H -3.4981910681 2.0726583591 1.3589216115
H -5.5952588353 2.8351717657 0.2191430256
H -4.5776281611 2.5231494621 -1.2196715997
H -6.9549015984 0.9419356503 -0.2723507787
H -6.0083355728 0.6399582914 -1.7627820049
H -5.7693128442 -1.2289117906 0.3232758065
O 1.0784501356 0.2361247905 0.2818391365
C 2.0993781804 0.7966803579 -3.242178457
C 4.3703744121 -1.3824698456 0.5331538243
C 5.5849229587 -1.2771048675 1.5344772326
C 4.9905675845 -0.2919940063 2.6088573819
C 3.5021993006 -0.1345676225 2.0987111649
O 3.2031287777 -1.4279644586 1.4398115746
H 5.2612699201 0.4587415242 -0.3048235789
H 3.9322196088 1.8469309397 1.0758348389
H 2.7669605898 0.1503872525 -3.8477743256
H 4.3801669542 -2.2571464814 -0.1457601079
H 5.8033323002 -2.2643177456 1.972547459
H 6.498653786 -0.8913168889 1.0548436742
H 5.0104775267 -0.7294164 3.6194226889
H 5.5181306336 0.6751207136 2.6329004342
H 2.7550226578 0.0750355369 2.8884620627
H 2.0778195616 1.8234491757 -3.6561614183
H 1.0723997625 0.3799902707 -3.2335391847
H -1.1697658349 -4.0501659676 -1.9868761804
H -2.5408448538 -4.548950018 -0.9148928141
H -1.118415742 -3.6927558392 -0.2140699516
H -1.1406420792 3.0406808467 1.8371813278
H -1.7738555935 2.6651360271 0.2055788633
H 0.2156509871 2.9317662668 -0.8766260891
H 0.4050893561 4.1022846454 0.4694928547
$end

$rem
JOBTYPE                   OPT
METHOD                    B3LYP
DFT_D                     d3_op
BASIS                     STO-3G
GEOM_OPT_MAX_CYCLES       100
GEOM_OPT_TOL_GRADIENT     300
GEOM_OPT_TOL_DISPLACEMENT 1200
GEOM_OPT_TOL_ENERGY       100
SYMMETRY                  False
THRESH                    12
SCF_CONVERGENCE           8
MAX_SUB_FILE_NUM          128
MEM_STATIC                400
MEM_TOTAL                 4000
$end
--------------------------------------------------------------

   16   -1510.2485377391      6.32E-09 Convergence criterion met
 Total energy in the final basis set = -1510.24853774
   14   -1510.2542867785      2.45E-09 Convergence criterion met
 Total energy in the final basis set = -1510.25428678
   14   -1510.2605216223      5.89E-09 Convergence criterion met
 Total energy in the final basis set = -1510.26052162
   14   -1510.2664221914      7.59E-09 Convergence criterion met
 Total energy in the final basis set = -1510.26642219
   15   -1510.2731720338      3.47E-09 Convergence criterion met
 Total energy in the final basis set = -1510.27317203
   14   -1510.2754014979      2.54E-09 Convergence criterion met
 Total energy in the final basis set = -1510.27540150
   13   -1510.2775566046      8.44E-09 Convergence criterion met
 Total energy in the final basis set = -1510.27755660
   13   -1510.2782250143      6.86E-09 Convergence criterion met
   12   -1510.2891695482      2.58E-09 Convergence criterion met
 Total energy in the final basis set = -1510.28916955
   11   -1510.2891676259      7.24E-09 Convergence criterion met
 Total energy in the final basis set = -1510.28916763
   11   -1510.2891737473      3.51E-09 Convergence criterion met
 Total energy in the final basis set = -1510.28917375
   10   -1510.2891760168      7.08E-09 Convergence criterion met
 Total energy in the final basis set = -1510.28917602
    9   -1510.2891774968      8.78E-09 Convergence criterion met
 Total energy in the final basis set = -1510.28917750
    9   -1510.2891795259      9.12E-09 Convergence criterion met
 Total energy in the final basis set = -1510.28917953

             Standard Nuclear Orientation (Angstroms)
    I     Atom           X                Y                Z
 ----------------------------------------------------------------
    1      O       2.8103546200    -2.0034128883    -2.1990248754
    2      C       3.2078902340    -0.8803028727    -1.8249479639
    3      C       3.6938253349    -0.4642126809    -0.3908484994
    4      C       2.7177455159     0.5706236363     0.3092694928
    5      C       1.5633876528     1.0938020570    -0.5982793782
    6      O       1.4572015899     2.5185736116    -0.4189133027
    7      C       0.1648113125     2.9962514289    -0.9628135551
    8      C      -0.7870088395     3.2809185114     0.2632228389
    9      O      -0.6413119134     2.2074476622     1.2701021648
   10      C      -1.2704968655     0.9573967312     0.9468152535
   11      C      -2.5751258695     0.9534135099     0.0667009234
   12      C      -3.0803494854    -0.5112390191    -0.2527983814
   13      C      -2.0502489095    -1.6685038848     0.0420062478
   14      O      -2.1694116555    -2.5955097344     0.8719631939
   15      O       3.3100206583     0.2669885910    -2.6788040542
   16      O      -1.0305690997    -1.5524602894    -0.9463147598
   17      O      -0.8106191311    -0.0591762857     1.5217082950
   18      C       0.0070941945    -2.5997851372    -0.7780111007
   19      C      -3.7867372332     1.4860219784     0.9527032751
   20      C      -5.0607987165     1.6601544162     0.0312989678
   21      C      -5.5395961257     0.1675502361    -0.1181627244
   22      C      -4.3850573132    -0.5912116875     0.6432591208
   23      O      -4.1009780911     0.3076281251     1.7887382771
   24      H      -2.4331742781     1.5334941712    -0.8597838512
   25      H      -3.3406522508    -0.5779386897    -1.3246371217
   26      H      -3.5429670616     2.3586998847     1.5900505906
   27      H      -5.8176360714     2.2841195261     0.5324209223
   28      H      -4.8073471298     2.1216331477    -0.9368103278
   29      H      -6.5061619239     0.0046270967     0.3852199333
   30      H      -5.6290039465    -0.1493928730    -1.1694024793
   31      H      -4.6233304490    -1.6107729443     1.0036755620
   32      O       0.8008639743     0.4246711506    -1.3310083340
   33      C       2.7128059808    -0.0374513579    -3.9986850592
   34      C       3.5977380663    -1.6880857898     0.6045396010
   35      C       4.3086984617    -1.3091832390     1.9625298720
   36      C       3.2297586820    -0.3747027052     2.6331168712
   37      C       2.1330010659    -0.3177609824     1.5034327959
   38      O       2.1615381291    -1.6965560597     0.9659180975
   39      H       4.7171180099    -0.0528678244    -0.4627417525
   40      H       3.2683275792     1.4443958876     0.6979352816
   41      H       3.2020276671    -0.9078965232    -4.4813475382
   42      H       3.8878472181    -2.6590320305     0.1584766721
   43      H       4.4950307369    -2.2115226825     2.5663979167
   44      H       5.2679831930    -0.7939955122     1.7934759938
   45      H       2.8136970280    -0.8329834256     3.5446013857
   46      H       3.6249801383     0.6219541129     2.8855411440
   47      H       1.0861548489    -0.0672735172     1.8017032217
   48      H       2.8627908496     0.8651214665    -4.6192753202
   49      H       1.6276101641    -0.2481452064    -3.9025446305
   50      H       0.8229736154    -2.2393345686    -0.1008284206
   51      H       0.4289225026    -2.7862943158    -1.7830728743
   52      H      -0.4390805296    -3.5280486330    -0.3707551839
   53      H      -0.4498063513     4.1982481792     0.7870501631
   54      H      -1.8337946810     3.4338014503    -0.0728595028
   55      H      -0.2552469652     2.2069516626    -1.6242761338
   56      H       0.3429457926     3.9268414062    -1.5393215765
 ----------------------------------------------------------------

    9   -1510.2891804638      9.36E-09 Convergence criterion met
 Total energy in the final basis set = -1510.28918046
 Final energy is   -1510.28918046380
 **  OPTIMIZATION CONVERGED  **

                    Orbital Energies (a.u.)
 --------------------------------------------------------------

 Alpha MOs
 -- Occupied --
-18.943 -18.936 -18.929 -18.900 -18.897 -18.895 -18.887 -18.881
-18.873 -18.843 -10.113 -10.102 -10.096 -10.089 -10.078 -10.076
-10.065 -10.060 -10.059 -10.054 -10.048 -10.043 -10.037 -10.036
-10.026 -10.024 -10.019 -10.018 -10.015 -10.008  -1.025  -1.013
 -1.005  -0.981  -0.972  -0.970  -0.952  -0.938  -0.932  -0.906
 -0.763  -0.762  -0.726  -0.722  -0.716  -0.704  -0.700  -0.659
 -0.631  -0.620  -0.596  -0.586  -0.548  -0.542  -0.536  -0.534
 -0.511  -0.507  -0.485  -0.475  -0.464  -0.456  -0.450  -0.444
 -0.439  -0.432  -0.426  -0.423  -0.411  -0.407  -0.402  -0.394
 -0.389  -0.378  -0.371  -0.358  -0.357  -0.355  -0.349  -0.348
 -0.342  -0.338  -0.333  -0.330  -0.326  -0.322  -0.318  -0.316
 -0.312  -0.304  -0.300  -0.298  -0.295  -0.283  -0.270  -0.268
 -0.266  -0.257  -0.251  -0.247  -0.234  -0.232  -0.219  -0.189
 -0.176  -0.172  -0.163  -0.159  -0.153  -0.149  -0.145  -0.135
 -0.127

          Ground-State Mulliken Net Atomic Charges

     Atom                 Charge (a.u.)
  ----------------------------------------
      1 O                    -0.208992
      2 C                     0.214150
      3 C                    -0.079230
      4 C                    -0.080454
      5 C                     0.212266
      6 O                    -0.170376
      7 C                    -0.059289
      8 C                    -0.048478
      9 O                    -0.171594
     10 C                     0.219449
     11 C                    -0.081815
     12 C                    -0.079503
     13 C                     0.213937
     14 O                    -0.220917
     15 O                    -0.174873
     16 O                    -0.177724
     17 O                    -0.185565
     18 C                    -0.151568
     19 C                     0.022072
     20 C                    -0.144760
     21 C                    -0.142940
     22 C                     0.023936
     23 O                    -0.187817
     24 H                     0.079714
     25 H                     0.081884
     26 H                     0.079820
     27 H                     0.078177
     28 H                     0.070618
     29 H                     0.078237
     30 H                     0.073890
     31 H                     0.092719
     32 O                    -0.209454
     33 C                    -0.129240
     34 C                     0.027124
     35 C                    -0.144124
     36 C                    -0.142719
     37 C                     0.016807
     38 O                    -0.184124
     39 H                     0.085447
     40 H                     0.087854
     41 H                     0.088937
     42 H                     0.090173
     43 H                     0.079132
     44 H                     0.072622
     45 H                     0.081214
     46 H                     0.073787
     47 H                     0.111578
     48 H                     0.087420
     49 H                     0.093707
     50 H                     0.112485
     51 H                     0.080623
     52 H                     0.080417
     53 H                     0.095048
     54 H                     0.083681
     55 H                     0.098333
     56 H                     0.088300
  ----------------------------------------
  Sum of atomic charges =    -0.000000

                    Cartesian Multipole Moments
 -----------------------------------------------------------------
    Charge (ESU x 10^10)
                -0.0000
    Dipole Moment (Debye)
         X       0.5200      Y       4.8492      Z      -2.5077
       Tot       5.4839
    Quadrupole Moments (Debye-Ang)
        XX    -143.9672     XY      -8.5501     YY    -158.0004
        XZ       9.1478     YZ      -0.9953     ZZ    -160.3837

 Total job time:  146.29s(wall), 6967.31s(cpu)
        *  Thank you very much for using Q-Chem.  Have a nice day.  *
