 Q-Chem 5.0, Q-Chem, Inc., Pleasanton, CA (2017)
 Q-Chem 5.0.1 for Intel X86 EM64T Linux

User input:
--------------------------------------------------------------
$molecule
0  1
O -3.94934 -3.66094 2.70899
C -3.26408 -4.56952 2.26188
C -3.36658 -6.02376 2.66595
C -2.40867 -7.01244 1.98128
C -1.33566 -6.41165 1.10049
O -1.42809 -6.92744 -0.1608
C -0.44139 -6.40478 -1.05662
C 0.93532 -6.44087 -0.40126
O 0.8014 -6.33517 1.02484
C 1.11536 -5.12573 1.55194
C 2.14106 -4.37632 0.73525
C 2.86485 -3.24726 1.48333
C 2.72961 -3.26188 2.9927
O 3.59572 -3.61811 3.77852
O -3.32591 -4.46865 0.89236
O 1.61324 -2.66294 3.49251
O 0.77752 -4.88274 2.6985
C 1.34389 -2.5145 4.83731
C 3.44647 -5.21436 0.3921
C 4.08635 -4.6488 -0.87551
C 4.61282 -3.33319 -0.35279
C 4.3353 -3.51823 1.14303
O 4.40953 -4.89343 1.3583
H 1.66744 -3.95637 -0.18137
H 2.5654 -2.23173 1.14043
H 3.31614 -6.30951 0.28311
H 4.95458 -5.30762 -1.10788
H 3.44307 -4.57469 -1.77776
H 5.70216 -3.27698 -0.57127
H 4.09495 -2.428 -0.73816
H 5.02889 -2.89383 1.74928
O -1.20057 -5.20518 1.15441
C -3.34774 -3.30233 0.14233
C -2.96725 -6.22664 4.13794
C -3.56474 -7.53021 4.66798
C -2.6904 -8.54844 3.96531
C -1.72788 -7.62214 3.21661
O -1.59166 -6.51796 4.07936
H -4.42852 -6.3187 2.50498
H -2.97365 -7.777 1.39908
H -3.25127 -2.39152 0.77199
H -3.26115 -5.3757 4.79101
H -3.35552 -7.57998 5.76049
H -4.65702 -7.6404 4.49544
H -2.13136 -9.12342 4.737
H -3.22456 -9.24791 3.28652
H -0.78955 -8.16299 2.96096
H -4.29525 -3.25215 -0.43189
H -2.49756 -3.31615 -0.57065
H 0.36977 -1.99781 4.95799
H 2.13573 -1.90443 5.32198
H 1.28349 -3.51004 5.32696
H 1.30917 -7.47605 -0.55157
H 1.59259 -5.84531 -1.04863
H -0.69364 -5.33745 -1.25042
H -0.45865 -6.92323 -2.03869
$end

$opt
CONSTRAINT
tors           1           2           3           4    -180.000
tors           3           4           5           6    -123.158
tors           4           5           6           7    -180.000
tors           5           6           7           8     +47.368
tors           6           7           8           9     -28.421
tors           7           8           9          10    -104.211
tors           8           9          10          11     -28.421
tors           9          10          11          12    -161.053
tors          11          12          13          14    +104.211
ENDCONSTRAINT
$end

$rem
JOBTYPE                   OPT
METHOD                    B3LYP
DFT_D                     d3_op
BASIS                     STO-3G
GEOM_OPT_MAX_CYCLES       100
GEOM_OPT_TOL_GRADIENT     300
GEOM_OPT_TOL_DISPLACEMENT 1200
GEOM_OPT_TOL_ENERGY       100
SYMMETRY                  False
THRESH                    12
SCF_CONVERGENCE           8
MAX_SUB_FILE_NUM          128
MEM_STATIC                400
MEM_TOTAL                 4000
$end
--------------------------------------------------------------

   16   -1510.0218935886      2.77E-09 Convergence criterion met
 Total energy in the final basis set = -1510.02189359
   15   -1510.1076249876      5.41E-09 Convergence criterion met
 Total energy in the final basis set = -1510.10762499
   15   -1510.1618469074      2.98E-09 Convergence criterion met
 Total energy in the final basis set = -1510.16184691
   14   -1510.1920202071      8.64E-09 Convergence criterion met
 Total energy in the final basis set = -1510.19202021
   14   -1510.2101403076      4.85E-09 Convergence criterion met
 Total energy in the final basis set = -1510.21014031
   14   -1510.2220740452      4.65E-09 Convergence criterion met
 Total energy in the final basis set = -1510.22207405
   13   -1510.2304612936      4.87E-09 Convergence criterion met
 Total energy in the final basis set = -1510.23046129
   13   -1510.2366446560      3.48E-09 Convergence criterion met
   12   -1510.2485846775      3.15E-09 Convergence criterion met
 Total energy in the final basis set = -1510.24858468
   10   -1510.2486310201      7.74E-09 Convergence criterion met
 Total energy in the final basis set = -1510.24863102
   11   -1510.2486362308      3.64E-09 Convergence criterion met
 Total energy in the final basis set = -1510.24863623
   10   -1510.2486576720      6.22E-09 Convergence criterion met
 Total energy in the final basis set = -1510.24865767
    9   -1510.2486615207      7.97E-09 Convergence criterion met
 Total energy in the final basis set = -1510.24866152
    9   -1510.2486646479      6.34E-09 Convergence criterion met
 Total energy in the final basis set = -1510.24866465

             Standard Nuclear Orientation (Angstroms)
    I     Atom           X                Y                Z
 ----------------------------------------------------------------
    1      O       4.2379468174    -0.6792260954    -2.6070357446
    2      C       3.7018115395    -0.0446864967    -1.6703635917
    3      C       4.2468274154     0.0279917223    -0.2022386541
    4      C       3.4490780211     0.8767016558     0.8695814606
    5      C       1.9286882675     1.1093636936     0.5325287539
    6      O       1.7339767540     2.5319907496     0.5205537917
    7      C       0.3673460407     3.0212363650     0.2238615826
    8      C      -0.9581008940     2.4425708045     0.9180469127
    9      O      -0.9553130107     1.0440331046     1.3763551800
   10      C      -1.6748386507     0.1010361363     0.5642189517
   11      C      -2.9154007909     0.5814204469    -0.2946784071
   12      C      -3.8368821791    -0.6428093017    -0.7138430402
   13      C      -3.2692551973    -2.0709475782    -0.3561325401
   14      O      -3.6384763473    -2.8182538563     0.5745037559
   15      O       2.6080076493     0.8602018787    -1.8539337475
   16      O      -2.3908287766    -2.4634302876    -1.4245288710
   17      O      -1.3890343472    -1.1063766938     0.7316951702
   18      C      -1.7747848031    -3.7694290482    -1.1051274429
   19      C      -3.9518842696     1.3939338443     0.6140415692
   20      C      -5.0321311357     2.0623308195    -0.3278014093
   21      C      -5.9378166919     0.8242044696    -0.6789355562
   22      C      -5.1711504765    -0.3306261061     0.0758148718
   23      O      -4.6956304181     0.3277150282     1.3132599241
   24      H      -2.5852089796     1.1562017072    -1.1776846818
   25      H      -4.0038987388    -0.6240324640    -1.8059363070
   26      H      -3.4981910681     2.0726583591     1.3589216115
   27      H      -5.5952588353     2.8351717657     0.2191430256
   28      H      -4.5776281611     2.5231494621    -1.2196715997
   29      H      -6.9549015984     0.9419356503    -0.2723507787
   30      H      -6.0083355728     0.6399582914    -1.7627820049
   31      H      -5.7693128442    -1.2289117906     0.3232758065
   32      O       1.0784501356     0.2361247905     0.2818391365
   33      C       2.0993781804     0.7966803579    -3.2421784570
   34      C       4.3703744121    -1.3824698456     0.5331538243
   35      C       5.5849229587    -1.2771048675     1.5344772326
   36      C       4.9905675845    -0.2919940063     2.6088573819
   37      C       3.5021993006    -0.1345676225     2.0987111649
   38      O       3.2031287777    -1.4279644586     1.4398115746
   39      H       5.2612699201     0.4587415242    -0.3048235789
   40      H       3.9322196088     1.8469309397     1.0758348389
   41      H       2.7669605898     0.1503872525    -3.8477743256
   42      H       4.3801669542    -2.2571464814    -0.1457601079
   43      H       5.8033323002    -2.2643177456     1.9725474590
   44      H       6.4986537860    -0.8913168889     1.0548436742
   45      H       5.0104775267    -0.7294164000     3.6194226889
   46      H       5.5181306336     0.6751207136     2.6329004342
   47      H       2.7550226578     0.0750355369     2.8884620627
   48      H       2.0778195616     1.8234491757    -3.6561614183
   49      H       1.0723997625     0.3799902707    -3.2335391847
   50      H      -1.1697658349    -4.0501659676    -1.9868761804
   51      H      -2.5408448538    -4.5489500180    -0.9148928141
   52      H      -1.1184157420    -3.6927558392    -0.2140699516
   53      H      -1.1406420792     3.0406808467     1.8371813278
   54      H      -1.7738555935     2.6651360271     0.2055788633
   55      H       0.2156509871     2.9317662668    -0.8766260891
   56      H       0.4050893561     4.1022846454     0.4694928547
 ----------------------------------------------------------------

    9   -1510.2486650360      3.59E-09 Convergence criterion met
 Total energy in the final basis set = -1510.24866504
 Final energy is   -1510.24866503598
 **  OPTIMIZATION CONVERGED  **

                    Orbital Energies (a.u.)
 --------------------------------------------------------------

 Alpha MOs
 -- Occupied --
-18.938 -18.938 -18.927 -18.907 -18.889 -18.888 -18.885 -18.875
-18.868 -18.848 -10.105 -10.102 -10.096 -10.083 -10.082 -10.077
-10.064 -10.061 -10.058 -10.056 -10.056 -10.043 -10.042 -10.038
-10.033 -10.029 -10.024 -10.021 -10.018 -10.017  -1.015  -1.011
 -0.997  -0.986  -0.972  -0.967  -0.940  -0.938  -0.931  -0.913
 -0.761  -0.760  -0.725  -0.721  -0.714  -0.705  -0.700  -0.662
 -0.645  -0.621  -0.598  -0.586  -0.546  -0.542  -0.538  -0.534
 -0.515  -0.508  -0.483  -0.469  -0.462  -0.455  -0.450  -0.446
 -0.435  -0.433  -0.430  -0.412  -0.412  -0.409  -0.403  -0.397
 -0.391  -0.383  -0.374  -0.366  -0.356  -0.354  -0.348  -0.346
 -0.341  -0.336  -0.328  -0.328  -0.326  -0.323  -0.319  -0.313
 -0.312  -0.308  -0.303  -0.297  -0.295  -0.290  -0.273  -0.270
 -0.265  -0.249  -0.243  -0.239  -0.235  -0.234  -0.230  -0.192
 -0.176  -0.162  -0.156  -0.153  -0.150  -0.145  -0.142  -0.133
 -0.131

          Ground-State Mulliken Net Atomic Charges

     Atom                 Charge (a.u.)
  ----------------------------------------
      1 O                    -0.216828
      2 C                     0.212571
      3 C                    -0.078986
      4 C                    -0.078161
      5 C                     0.222977
      6 O                    -0.174342
      7 C                    -0.050489
      8 C                    -0.049852
      9 O                    -0.160564
     10 C                     0.227176
     11 C                    -0.084129
     12 C                    -0.080630
     13 C                     0.217499
     14 O                    -0.221234
     15 O                    -0.169026
     16 O                    -0.178118
     17 O                    -0.177050
     18 C                    -0.128604
     19 C                     0.020612
     20 C                    -0.145253
     21 C                    -0.143662
     22 C                     0.025011
     23 O                    -0.187466
     24 H                     0.079786
     25 H                     0.081839
     26 H                     0.080283
     27 H                     0.077719
     28 H                     0.070119
     29 H                     0.078426
     30 H                     0.073742
     31 H                     0.090749
     32 O                    -0.201396
     33 C                    -0.135161
     34 C                     0.026415
     35 C                    -0.142063
     36 C                    -0.145643
     37 C                     0.026123
     38 O                    -0.182599
     39 H                     0.084838
     40 H                     0.084974
     41 H                     0.104011
     42 H                     0.087663
     43 H                     0.078510
     44 H                     0.073174
     45 H                     0.078461
     46 H                     0.072643
     47 H                     0.085104
     48 H                     0.084511
     49 H                     0.088132
     50 H                     0.083950
     51 H                     0.084874
     52 H                     0.095093
     53 H                     0.084451
     54 H                     0.085347
     55 H                     0.075890
     56 H                     0.088582
  ----------------------------------------
  Sum of atomic charges =     0.000000

                    Cartesian Multipole Moments
 -----------------------------------------------------------------
    Charge (ESU x 10^10)
                 0.0000
    Dipole Moment (Debye)
         X       0.6046      Y       4.9690      Z      -2.1754
       Tot       5.4580
    Quadrupole Moments (Debye-Ang)
        XX    -150.3998     XY      -7.1725     YY    -154.0688
        XZ      15.4563     YZ       2.5761     ZZ    -160.2147

 Total job time:  69.03s(wall), 3287.81s(cpu)
        *  Thank you very much for using Q-Chem.  Have a nice day.  *
