 Q-Chem 5.0, Q-Chem, Inc., Pleasanton, CA (2017)
 Q-Chem 5.0.1 for Intel X86 EM64T Linux

User input:
--------------------------------------------------------------
$molecule
0  1
O -3.94934 -3.66094 2.70899
C -3.26408 -4.56952 2.26188
C -3.36658 -6.02376 2.66595
C -2.79903 -7.06622 1.6887
C -2.03353 -6.52942 0.49961
O -2.89684 -6.255 -0.52254
C -3.74525 -5.13293 -0.25718
C -4.601 -4.82013 -1.48028
O -5.58931 -3.83282 -1.14658
C -6.18226 -3.22141 -2.20191
C -7.45864 -3.90233 -2.63534
C -8.64599 -2.95877 -2.87653
C -8.30597 -1.48713 -3.00044
O -8.61802 -0.61769 -2.19965
O -2.00502 -4.20916 1.86622
O -7.56273 -1.11522 -4.07949
O -5.58325 -2.39869 -2.87784
C -7.15545 0.17627 -4.34184
C -7.38119 -4.59571 -4.01319
C -8.427 -5.70843 -4.08071
C -9.70669 -4.89287 -4.12926
C -9.12598 -3.47719 -4.24251
O -7.90809 -3.66265 -4.92563
H -7.70504 -4.68105 -1.87586
H -9.39568 -3.04868 -2.0593
H -6.37072 -4.99588 -4.24775
H -8.28979 -6.21326 -5.06408
H -8.38177 -6.47103 -3.27368
H -10.26765 -5.17532 -5.0474
H -10.36167 -4.98413 -3.23564
H -9.8541 -2.78377 -4.71831
O -0.84473 -6.72739 0.29647
C -1.53647 -2.92374 1.65534
C -2.51961 -6.31333 3.91986
C -3.04801 -7.55746 4.63102
C -2.59965 -8.63822 3.67197
C -1.83055 -7.79801 2.64614
O -1.28563 -6.75056 3.40904
H -4.43946 -6.21046 2.89773
H -3.5686 -7.77658 1.30965
H -0.69272 -2.72644 2.34773
H -2.48024 -5.45524 4.62675
H -2.47633 -7.66674 5.58044
H -4.13615 -7.54211 4.85605
H -1.90148 -9.31691 4.21102
H -3.41638 -9.22933 3.20415
H -1.101 -8.44344 2.10927
H -2.31747 -2.14988 1.81185
H -1.16711 -2.83925 0.61257
H -6.56687 0.1876 -5.28195
H -6.5154 0.55095 -3.51464
H -8.03891 0.83862 -4.4641
H -3.92742 -4.46412 -2.29394
H -5.12177 -5.7393 -1.83006
H -3.17575 -4.19491 -0.12441
H -4.5299 -5.41975 0.47246
$end

$opt
CONSTRAINT
tors           1           2           3           4    +159.326
tors           3           4           5           6     -86.912
tors           4           5           6           7     +69.620
tors           5           6           7           8    +175.561
tors           6           7           8           9    +171.238
tors           7           8           9          10    +163.856
tors           8           9          10          11     +92.581
tors           9          10          11          12    +133.328
tors          11          12          13          14    -112.335
ENDCONSTRAINT
$end

$rem
JOBTYPE                   OPT
METHOD                    B3LYP
DFT_D                     d3_op
BASIS                     STO-3G
GEOM_OPT_MAX_CYCLES       100
GEOM_OPT_TOL_GRADIENT     300
GEOM_OPT_TOL_DISPLACEMENT 1200
GEOM_OPT_TOL_ENERGY       100
SYMMETRY                  False
THRESH                    12
SCF_CONVERGENCE           8
MAX_SUB_FILE_NUM          128
MEM_STATIC                400
MEM_TOTAL                 4000
$end
--------------------------------------------------------------

   15   -1510.0809695093      8.16E-09 Convergence criterion met
 Total energy in the final basis set = -1510.08096951
   14   -1510.1565562591      9.69E-09 Convergence criterion met
 Total energy in the final basis set = -1510.15655626
   14   -1510.1979637177      6.59E-09 Convergence criterion met
 Total energy in the final basis set = -1510.19796372
   14   -1510.2210716661      6.57E-09 Convergence criterion met
 Total energy in the final basis set = -1510.22107167
   14   -1510.2306886447      3.24E-09 Convergence criterion met
 Total energy in the final basis set = -1510.23068864
   14   -1510.2350407132      2.01E-09 Convergence criterion met
 Total energy in the final basis set = -1510.23504071
   13   -1510.2371383951      6.10E-09 Convergence criterion met
 Total energy in the final basis set = -1510.23713840
   13   -1510.2381894932      5.72E-09 Convergence criterion met
   11   -1510.2394619568      8.81E-09 Convergence criterion met
 Total energy in the final basis set = -1510.23946196
   11   -1510.2394956720      7.64E-09 Convergence criterion met
 Total energy in the final basis set = -1510.23949567
   11   -1510.2395087438      3.94E-09 Convergence criterion met
 Total energy in the final basis set = -1510.23950874
   10   -1510.2395175989      9.62E-09 Convergence criterion met
 Total energy in the final basis set = -1510.23951760
    9   -1510.2395223963      5.95E-09 Convergence criterion met
 Total energy in the final basis set = -1510.23952240
    9   -1510.2395239508      5.51E-09 Convergence criterion met
 Total energy in the final basis set = -1510.23952395

             Standard Nuclear Orientation (Angstroms)
    I     Atom           X                Y                Z
 ----------------------------------------------------------------
    1      O      -3.1605543808    -2.3973226961     1.6133804800
    2      C      -3.5684318253    -1.5624048149     0.7756847732
    3      C      -4.0784410797    -0.1143568206     1.0806891571
    4      C      -4.0624673213     0.9141557953    -0.1283831111
    5      C      -3.3442058016     0.4839917805    -1.4773656529
    6      O      -1.9144719733     0.7620364730    -1.5188730087
    7      C      -1.1376212672    -0.0962727281    -0.6057657760
    8      C       0.3729508323     0.2447772023    -0.8531515129
    9      O       1.1365826731    -0.4520772280     0.2034011456
   10      C       2.5483731250    -0.4959524287    -0.1887999933
   11      C       3.3459409320     0.7310506877     0.3898762854
   12      C       4.7387692656     0.4017836734     1.0788055315
   13      C       5.2380619603    -1.0769608347     0.8963110095
   14      O       5.3418241355    -1.9387509722     1.7975655609
   15      O      -3.7005476735    -1.8268150401    -0.6248843580
   16      O       5.6724702075    -1.2668269378    -0.4510941440
   17      O       3.0091102714    -1.4596009164    -0.8315336716
   18      C       6.1012261375    -2.6693698180    -0.6529215506
   19      C       3.7971055770     1.7767195741    -0.7308433430
   20      C       4.0098885289     3.1683303673    -0.0149731777
   21      C       5.3434931468     2.8924178320     0.7750091322
   22      C       5.6832461957     1.4207889890     0.3074012600
   23      O       5.1705161462     1.3627250165    -1.0808107950
   24      H       2.6706051389     1.2212541163     1.1129730251
   25      H       4.6961156381     0.6050970438     2.1631846273
   26      H       3.1553431652     1.7990335566    -1.6330233805
   27      H       4.1425076983     3.9659328914    -0.7634122592
   28      H       3.1679494022     3.4356802982     0.6432556207
   29      H       6.1432879842     3.5878398085     0.4749880044
   30      H       5.2097985662     2.9570738560     1.8667111474
   31      H       6.7576306995     1.1553564315     0.3320945133
   32      O      -3.9437124373     0.2668035363    -2.5504319218
   33      C      -3.2965648311    -3.2159729935    -0.9446651079
   34      C      -5.6438232522    -0.1754509631     1.3823555823
   35      C      -6.0952597143     1.1963664004     2.0252739235
   36      C      -6.1382456446     2.1291624951     0.7585109035
   37      C      -5.6188643962     1.1410378811    -0.3561683823
   38      O      -6.2326024887    -0.1510741650     0.0269114178
   39      H      -3.5144101949     0.2667646292     1.9504822924
   40      H      -3.5724032673     1.8502990698     0.1975031821
   41      H      -4.1807399206    -3.7706390775    -1.3156718482
   42      H      -5.9642502663    -1.0813109602     1.9332557884
   43      H      -7.0886490898     1.0954615280     2.4902780154
   44      H      -5.3824530161     1.5477980627     2.7884664391
   45      H      -7.1667676417     2.4531961974     0.5326101131
   46      H      -5.5002717619     3.0215454207     0.8601879241
   47      H      -5.8851805566     1.3987461072    -1.3995221458
   48      H      -2.8972681460    -3.7033147516    -0.0319782778
   49      H      -2.5247216320    -3.1861366313    -1.7381544697
   50      H       6.4833075210    -2.7232968769    -1.6887898752
   51      H       5.2487206442    -3.3692418470    -0.5366834607
   52      H       6.9014580675    -2.9614740396     0.0576385352
   53      H       0.6641122908    -0.0901039364    -1.8737501521
   54      H       0.5157272842     1.3497938921    -0.7992392285
   55      H      -1.3092194438    -1.1741723600    -0.8106195305
   56      H      -1.3781431216     0.0955506834     0.4648680750
 ----------------------------------------------------------------

    9   -1510.2395245306      3.85E-09 Convergence criterion met
 Total energy in the final basis set = -1510.23952453
 Final energy is   -1510.23952453056
 **  OPTIMIZATION CONVERGED  **

                    Orbital Energies (a.u.)
 --------------------------------------------------------------

 Alpha MOs
 -- Occupied --
-18.945 -18.930 -18.912 -18.908 -18.901 -18.895 -18.892 -18.890
-18.884 -18.868 -10.112 -10.108 -10.104 -10.095 -10.076 -10.074
-10.068 -10.066 -10.064 -10.064 -10.061 -10.057 -10.046 -10.041
-10.040 -10.038 -10.026 -10.025 -10.024 -10.023  -1.021  -1.013
 -1.004  -1.001  -0.976  -0.974  -0.945  -0.943  -0.934  -0.930
 -0.767  -0.766  -0.727  -0.726  -0.714  -0.708  -0.701  -0.665
 -0.655  -0.608  -0.602  -0.586  -0.552  -0.549  -0.543  -0.541
 -0.519  -0.515  -0.489  -0.480  -0.469  -0.464  -0.447  -0.444
 -0.440  -0.437  -0.432  -0.420  -0.416  -0.412  -0.406  -0.401
 -0.394  -0.386  -0.379  -0.374  -0.365  -0.361  -0.356  -0.349
 -0.347  -0.343  -0.339  -0.336  -0.333  -0.328  -0.327  -0.316
 -0.313  -0.311  -0.309  -0.306  -0.301  -0.292  -0.285  -0.281
 -0.281  -0.255  -0.250  -0.247  -0.239  -0.238  -0.232  -0.183
 -0.174  -0.169  -0.164  -0.162  -0.158  -0.151  -0.148  -0.148
 -0.146

          Ground-State Mulliken Net Atomic Charges

     Atom                 Charge (a.u.)
  ----------------------------------------
      1 O                    -0.212486
      2 C                     0.208754
      3 C                    -0.080551
      4 C                    -0.084827
      5 C                     0.223973
      6 O                    -0.193521
      7 C                    -0.043907
      8 C                    -0.044855
      9 O                    -0.199958
     10 C                     0.219593
     11 C                    -0.084264
     12 C                    -0.079410
     13 C                     0.206796
     14 O                    -0.215748
     15 O                    -0.166481
     16 O                    -0.159871
     17 O                    -0.172497
     18 C                    -0.126186
     19 C                     0.025319
     20 C                    -0.142816
     21 C                    -0.144740
     22 C                     0.027580
     23 O                    -0.181477
     24 H                     0.084322
     25 H                     0.085601
     26 H                     0.081909
     27 H                     0.079100
     28 H                     0.073479
     29 H                     0.079046
     30 H                     0.074586
     31 H                     0.085871
     32 O                    -0.184669
     33 C                    -0.135266
     34 C                     0.025992
     35 C                    -0.144262
     36 C                    -0.143603
     37 C                     0.025415
     38 O                    -0.186969
     39 H                     0.084750
     40 H                     0.080950
     41 H                     0.091929
     42 H                     0.084559
     43 H                     0.079397
     44 H                     0.073847
     45 H                     0.079278
     46 H                     0.073442
     47 H                     0.091812
     48 H                     0.103474
     49 H                     0.089094
     50 H                     0.091175
     51 H                     0.091580
     52 H                     0.087253
     53 H                     0.083348
     54 H                     0.074546
     55 H                     0.084151
     56 H                     0.076443
  ----------------------------------------
  Sum of atomic charges =    -0.000000

                    Cartesian Multipole Moments
 -----------------------------------------------------------------
    Charge (ESU x 10^10)
                -0.0000
    Dipole Moment (Debye)
         X       0.1822      Y       2.9920      Z       1.8861
       Tot       3.5415
    Quadrupole Moments (Debye-Ang)
        XX    -161.7796     XY       1.5718     YY    -152.7456
        XZ      -8.5679     YZ      10.0346     ZZ    -169.2156

 Total job time:  55.28s(wall), 2622.98s(cpu)
        *  Thank you very much for using Q-Chem.  Have a nice day.  *
