 Q-Chem 5.0, Q-Chem, Inc., Pleasanton, CA (2017)
 Q-Chem 5.0.1 for Intel X86 EM64T Linux

User input:
--------------------------------------------------------------
$molecule
0  1
O -3.1605543808 -2.3973226961 1.61338048
C -3.5684318253 -1.5624048149 0.7756847732
C -4.0784410797 -0.1143568206 1.0806891571
C -4.0624673213 0.9141557953 -0.1283831111
C -3.3442058016 0.4839917805 -1.4773656529
O -1.9144719733 0.762036473 -1.5188730087
C -1.1376212672 -0.0962727281 -0.605765776
C 0.3729508323 0.2447772023 -0.8531515129
O 1.1365826731 -0.452077228 0.2034011456
C 2.548373125 -0.4959524287 -0.1887999933
C 3.345940932 0.7310506877 0.3898762854
C 4.7387692656 0.4017836734 1.0788055315
C 5.2380619603 -1.0769608347 0.8963110095
O 5.3418241355 -1.9387509722 1.7975655609
O -3.7005476735 -1.8268150401 -0.624884358
O 5.6724702075 -1.2668269378 -0.451094144
O 3.0091102714 -1.4596009164 -0.8315336716
C 6.1012261375 -2.669369818 -0.6529215506
C 3.797105577 1.7767195741 -0.730843343
C 4.0098885289 3.1683303673 -0.0149731777
C 5.3434931468 2.892417832 0.7750091322
C 5.6832461957 1.420788989 0.30740126
O 5.1705161462 1.3627250165 -1.080810795
H 2.6706051389 1.2212541163 1.1129730251
H 4.6961156381 0.6050970438 2.1631846273
H 3.1553431652 1.7990335566 -1.6330233805
H 4.1425076983 3.9659328914 -0.7634122592
H 3.1679494022 3.4356802982 0.6432556207
H 6.1432879842 3.5878398085 0.4749880044
H 5.2097985662 2.957073856 1.8667111474
H 6.7576306995 1.1553564315 0.3320945133
O -3.9437124373 0.2668035363 -2.5504319218
C -3.2965648311 -3.2159729935 -0.9446651079
C -5.6438232522 -0.1754509631 1.3823555823
C -6.0952597143 1.1963664004 2.0252739235
C -6.1382456446 2.1291624951 0.7585109035
C -5.6188643962 1.1410378811 -0.3561683823
O -6.2326024887 -0.151074165 0.0269114178
H -3.5144101949 0.2667646292 1.9504822924
H -3.5724032673 1.8502990698 0.1975031821
H -4.1807399206 -3.7706390775 -1.3156718482
H -5.9642502663 -1.0813109602 1.9332557884
H -7.0886490898 1.095461528 2.4902780154
H -5.3824530161 1.5477980627 2.7884664391
H -7.1667676417 2.4531961974 0.5326101131
H -5.5002717619 3.0215454207 0.8601879241
H -5.8851805566 1.3987461072 -1.3995221458
H -2.897268146 -3.7033147516 -0.0319782778
H -2.524721632 -3.1861366313 -1.7381544697
H 6.483307521 -2.7232968769 -1.6887898752
H 5.2487206442 -3.369241847 -0.5366834607
H 6.9014580675 -2.9614740396 0.0576385352
H 0.6641122908 -0.0901039364 -1.8737501521
H 0.5157272842 1.3497938921 -0.7992392285
H -1.3092194438 -1.17417236 -0.8106195305
H -1.3781431216 0.0955506834 0.464868075
$end

$rem
JOBTYPE                   OPT
METHOD                    B3LYP
DFT_D                     d3_op
BASIS                     STO-3G
GEOM_OPT_MAX_CYCLES       100
GEOM_OPT_TOL_GRADIENT     300
GEOM_OPT_TOL_DISPLACEMENT 1200
GEOM_OPT_TOL_ENERGY       100
SYMMETRY                  False
THRESH                    12
SCF_CONVERGENCE           8
MAX_SUB_FILE_NUM          128
MEM_STATIC                400
MEM_TOTAL                 4000
$end
--------------------------------------------------------------

   16   -1510.2395074057      5.52E-09 Convergence criterion met
 Total energy in the final basis set = -1510.23950741
   14   -1510.2421425318      5.33E-09 Convergence criterion met
 Total energy in the final basis set = -1510.24214253
   13   -1510.2447412322      9.27E-09 Convergence criterion met
 Total energy in the final basis set = -1510.24474123
   13   -1510.2472384846      9.93E-09 Convergence criterion met
 Total energy in the final basis set = -1510.24723848
   13   -1510.2495466469      8.01E-09 Convergence criterion met
 Total energy in the final basis set = -1510.24954665
   13   -1510.2519107117      4.13E-09 Convergence criterion met
 Total energy in the final basis set = -1510.25191071
   13   -1510.2542575284      4.23E-09 Convergence criterion met
 Total energy in the final basis set = -1510.25425753
   13   -1510.2567039418      6.27E-09 Convergence criterion met
   11   -1510.2776263913      5.91E-09 Convergence criterion met
 Total energy in the final basis set = -1510.27762639
   11   -1510.2776353643      4.83E-09 Convergence criterion met
 Total energy in the final basis set = -1510.27763536
   10   -1510.2776471763      9.02E-09 Convergence criterion met
 Total energy in the final basis set = -1510.27764718
   10   -1510.2776431297      5.41E-09 Convergence criterion met
 Total energy in the final basis set = -1510.27764313
   10   -1510.2776345802      9.63E-09 Convergence criterion met
 Total energy in the final basis set = -1510.27763458
    9   -1510.2776291825      2.65E-09 Convergence criterion met
 Total energy in the final basis set = -1510.27762918

             Standard Nuclear Orientation (Angstroms)
    I     Atom           X                Y                Z
 ----------------------------------------------------------------
    1      O      -2.2237800782    -0.9964161295     2.4135870516
    2      C      -2.9626344078    -0.8060638485     1.4204212993
    3      C      -3.0054007070     0.4534751819     0.4887131173
    4      C      -2.7378573941     0.0955502242    -1.0380944960
    5      C      -2.5036750822    -1.4498186247    -1.3029175300
    6      O      -1.4286555071    -2.1178298943    -0.6085013188
    7      C      -0.2840635060    -1.2602616427    -0.2261369225
    8      C       0.3477853165    -1.8779956447     1.0746358727
    9      O       1.4087748409    -0.9869965622     1.6054046630
   10      C       2.5710777526    -1.0319252055     0.7761534985
   11      C       3.6085767829     0.0379752802     1.2704450357
   12      C       4.4437021293     0.6615387383     0.0734209432
   13      C       4.0806857866     0.0793208787    -1.3386233100
   14      O       4.8195954467    -0.5991834612    -2.0836628100
   15      O      -3.9130769228    -1.7528038392     0.9319997872
   16      O       2.7620163414     0.5219205944    -1.6958695394
   17      O       2.7147481843    -1.8124785083    -0.1919929954
   18      C       2.3761674559    -0.0613775721    -2.9998099830
   19      C       2.9155427140     1.3334234945     1.8693544704
   20      C       4.0066367001     2.1683662205     2.6480096406
   21      C       4.8198549601     2.7927441312     1.4541615321
   22      C       4.0466998884     2.1956736257     0.2127739865
   23      O       2.6383658619     2.1530194761     0.6677670212
   24      H       4.2754406742    -0.4411531043     2.0114176460
   25      H       5.5266220581     0.5075896916     0.2228888408
   26      H       1.9810990595     1.1214355964     2.4232805954
   27      H       3.5285578501     2.9466971006     3.2636815948
   28      H       4.6269863916     1.5328756051     3.3000852791
   29      H       4.7568906502     3.8926005614     1.4541682875
   30      H       5.8817138645     2.4991639376     1.4615372646
   31      H       4.1333950887     2.7797718001    -0.7237281254
   32      O      -3.2395237137    -2.1509612966    -2.0286321975
   33      C      -3.8031473636    -3.0264015498     1.6798507941
   34      C      -4.4668299070     1.0743643800     0.3882403960
   35      C      -4.3524637366     2.5056908994    -0.2740947540
   36      C      -4.1159474003     2.1251475900    -1.7835823526
   37      C      -4.1058833277     0.5493934476    -1.6993377160
   38      O      -5.1147067872     0.2533292767    -0.6562442602
   39      H      -2.2742930881     1.1863481173     0.8733525724
   40      H      -1.8926381714     0.6793562039    -1.4433576909
   41      H      -4.6367637588    -3.6599540069     1.3260936103
   42      H      -5.0468658284     1.0351037634     1.3306339849
   43      H      -5.2906063633     3.0675873999    -0.1401573417
   44      H      -3.5243124211     3.0942751578     0.1521620761
   45      H      -4.9452403964     2.4707694038    -2.4209717158
   46      H      -3.1714103080     2.5287775014    -2.1820840317
   47      H      -4.3484260141     0.0069181496    -2.6336825889
   48      H      -3.8863251731    -2.8676082848     2.7740117100
   49      H      -2.8379376099    -3.5280344735     1.4609659366
   50      H       1.3760389528     0.3471770128    -3.2349155461
   51      H       2.3222586609    -1.1684718087    -2.9456263370
   52      H       3.0881075836     0.2169321714    -3.8034400338
   53      H      -0.4325304463    -1.9118485867     1.8655051155
   54      H       0.7385762340    -2.8960379194     0.8654503789
   55      H      -0.5695413897    -0.2138385791    -0.0086835784
   56      H       0.4700925356    -1.2566645758    -1.0430676024
 ----------------------------------------------------------------

    9   -1510.2776255169      4.14E-09 Convergence criterion met
 Total energy in the final basis set = -1510.27762552
 Final energy is   -1510.27762551692
 **  OPTIMIZATION CONVERGED  **

                    Orbital Energies (a.u.)
 --------------------------------------------------------------

 Alpha MOs
 -- Occupied --
-18.943 -18.942 -18.928 -18.926 -18.891 -18.889 -18.882 -18.881
-18.880 -18.868 -10.107 -10.106 -10.103 -10.094 -10.073 -10.071
-10.065 -10.065 -10.062 -10.060 -10.060 -10.060 -10.044 -10.042
-10.041 -10.036 -10.023 -10.022 -10.022 -10.021  -1.021  -1.019
 -1.004  -1.003  -0.973  -0.972  -0.945  -0.942  -0.937  -0.930
 -0.767  -0.765  -0.727  -0.726  -0.715  -0.708  -0.700  -0.663
 -0.658  -0.614  -0.603  -0.587  -0.554  -0.547  -0.541  -0.539
 -0.516  -0.513  -0.491  -0.478  -0.470  -0.468  -0.453  -0.447
 -0.437  -0.435  -0.430  -0.417  -0.415  -0.412  -0.407  -0.404
 -0.395  -0.388  -0.375  -0.371  -0.366  -0.360  -0.356  -0.347
 -0.344  -0.341  -0.338  -0.334  -0.332  -0.325  -0.320  -0.313
 -0.313  -0.307  -0.306  -0.302  -0.300  -0.293  -0.286  -0.281
 -0.277  -0.261  -0.257  -0.248  -0.242  -0.237  -0.236  -0.189
 -0.182  -0.171  -0.170  -0.162  -0.160  -0.149  -0.146  -0.146
 -0.145

          Ground-State Mulliken Net Atomic Charges

     Atom                 Charge (a.u.)
  ----------------------------------------
      1 O                    -0.218816
      2 C                     0.207950
      3 C                    -0.082908
      4 C                    -0.085286
      5 C                     0.213456
      6 O                    -0.179526
      7 C                    -0.055080
      8 C                    -0.052558
      9 O                    -0.169501
     10 C                     0.213605
     11 C                    -0.078147
     12 C                    -0.080802
     13 C                     0.211793
     14 O                    -0.212813
     15 O                    -0.160484
     16 O                    -0.174319
     17 O                    -0.213647
     18 C                    -0.129814
     19 C                     0.022817
     20 C                    -0.144200
     21 C                    -0.144043
     22 C                     0.026113
     23 O                    -0.190067
     24 H                     0.086405
     25 H                     0.084518
     26 H                     0.092534
     27 H                     0.077941
     28 H                     0.073689
     29 H                     0.077543
     30 H                     0.074161
     31 H                     0.083597
     32 O                    -0.194249
     33 C                    -0.127712
     34 C                     0.027056
     35 C                    -0.143994
     36 C                    -0.144277
     37 C                     0.025944
     38 O                    -0.183387
     39 H                     0.084121
     40 H                     0.081129
     41 H                     0.096460
     42 H                     0.083784
     43 H                     0.078953
     44 H                     0.074070
     45 H                     0.079287
     46 H                     0.073233
     47 H                     0.093203
     48 H                     0.090533
     49 H                     0.092111
     50 H                     0.084887
     51 H                     0.091750
     52 H                     0.088709
     53 H                     0.105217
     54 H                     0.092977
     55 H                     0.086026
     56 H                     0.090060
  ----------------------------------------
  Sum of atomic charges =     0.000000

                    Cartesian Multipole Moments
 -----------------------------------------------------------------
    Charge (ESU x 10^10)
                 0.0000
    Dipole Moment (Debye)
         X       0.7203      Y       2.9873      Z       1.9187
       Tot       3.6227
    Quadrupole Moments (Debye-Ang)
        XX    -166.3834     XY       0.5348     YY    -159.9663
        XZ       3.1586     YZ      -8.1775     ZZ    -158.5427

 Total job time:  210.75s(wall), 10048.32s(cpu)
        *  Thank you very much for using Q-Chem.  Have a nice day.  *
