 Q-Chem 5.0, Q-Chem, Inc., Pleasanton, CA (2017)
 Q-Chem 5.0.1 for Intel X86 EM64T Linux

User input:
--------------------------------------------------------------
$molecule
0  1
O -3.5701962071 -3.1664340625 1.0910770736
C -3.2489417925 -2.1025937039 0.5183485889
C -3.7684017566 -0.6638696241 0.8776649574
C -3.4196217928 0.5070348403 -0.1350217682
C -2.4123475097 0.1628771424 -1.3083080913
O -1.0210748472 0.100338409 -0.84567144
C -0.4127703405 1.4401221394 -0.981895879
C 1.0559922821 1.3184056159 -0.44156794
O 1.9641954723 1.3770071172 -1.6122160339
C 3.3400243416 1.5559466358 -1.1908780227
C 4.1179695924 0.2024395437 -0.8543023736
C 4.5133252881 -0.0055452712 0.67319978
C 4.3763770917 1.2505225938 1.5966420374
O 5.3063987872 1.8112632175 2.2172481764
O -2.3753756382 -2.0423843717 -0.6051734891
O 3.0129771035 1.6764864644 1.6560922415
O 3.8982670177 2.6721027062 -1.2401004632
C 2.8976100946 2.8855015475 2.5037883091
C 3.1867496335 -1.0619759126 -1.0765359325
C 4.0576442941 -2.3781921714 -1.037425045
C 4.301424171 -2.5467821757 0.509988905
C 3.5964609229 -1.2486904425 1.0657113534
O 2.4111059264 -1.1299270613 0.1896807041
H 5.0216270487 0.1717133652 -1.4897001468
H 5.5775026257 -0.2952895044 0.7371911076
H 2.4972260025 -0.9601802253 -1.9364330407
H 3.4909324802 -3.2273291777 -1.4509641527
H 4.9953396537 -2.2707499437 -1.6058941138
H 3.8006027798 -3.4477531021 0.899113261
H 5.3696351102 -2.5925445905 0.7749197647
H 3.2921119528 -1.2873649114 2.1296480085
O -2.7294288179 0.0453136324 -2.508758512
C -1.8910970223 -3.3841875546 -0.9918333735
C -5.3565864277 -0.657188608 0.7918340198
C -5.9069620804 0.6441444033 1.4991281198
C -5.6022651033 1.7384983339 0.4094353007
C -4.8645838658 0.8724104267 -0.6838839292
O -5.5983473632 -0.4140784514 -0.6480914938
H -3.4202325022 -0.4268493512 1.899998108
H -2.9860190419 1.3549868747 0.4248764957
H -2.7343874801 -4.0712187017 -1.2087421543
H -5.8248219205 -1.6076680324 1.1149132965
H -6.9874992085 0.5516408918 1.6920341508
H -5.3938299897 0.8407398731 2.454135968
H -6.5306596038 2.166772671 -0.0010488064
H -4.971909087 2.5580657776 0.7898026189
H -4.8637793244 1.2850495055 -1.7115310099
H -1.2626273264 -3.8291876656 -0.1934615746
H -1.2841249591 -3.2339415244 -1.9035515861
H 1.818609131 3.1208047269 2.5542576809
H 3.4440664913 3.7430958231 2.0606886325
H 3.2884482675 2.7063740073 3.5257631187
H 1.2728083551 2.154825201 0.2551097014
H 1.2135513218 0.3515516534 0.0987249576
H -0.9709099208 2.2022114541 -0.3901695051
H -0.3849492597 1.7821375463 -2.0429641935
$end

$rem
JOBTYPE                   OPT
METHOD                    B3LYP
DFT_D                     d3_op
BASIS                     STO-3G
GEOM_OPT_MAX_CYCLES       100
GEOM_OPT_TOL_GRADIENT     300
GEOM_OPT_TOL_DISPLACEMENT 1200
GEOM_OPT_TOL_ENERGY       100
SYMMETRY                  False
THRESH                    12
SCF_CONVERGENCE           8
MAX_SUB_FILE_NUM          128
MEM_STATIC                400
MEM_TOTAL                 4000
$end
--------------------------------------------------------------

   16   -1510.2409799764      3.80E-09 Convergence criterion met
 Total energy in the final basis set = -1510.24097998
   14   -1510.2423368518      4.78E-09 Convergence criterion met
 Total energy in the final basis set = -1510.24233685
   14   -1510.2449767480      5.50E-09 Convergence criterion met
 Total energy in the final basis set = -1510.24497675
   13   -1510.2475862084      8.13E-09 Convergence criterion met
 Total energy in the final basis set = -1510.24758621
   14   -1510.2468692018      2.38E-09 Convergence criterion met
 Total energy in the final basis set = -1510.24686920
   14   -1510.2490397655      3.54E-09 Convergence criterion met
 Total energy in the final basis set = -1510.24903977
   14   -1510.2483915642      2.60E-09 Convergence criterion met
 Total energy in the final basis set = -1510.24839156
   14   -1510.2519278589      6.64E-09 Convergence criterion met
   12   -1510.2917237736      6.42E-09 Convergence criterion met
 Total energy in the final basis set = -1510.29172377
   11   -1510.2917280531      8.03E-09 Convergence criterion met
 Total energy in the final basis set = -1510.29172805
   11   -1510.2917405463      4.55E-09 Convergence criterion met
 Total energy in the final basis set = -1510.29174055
   11   -1510.2917374438      4.40E-09 Convergence criterion met
 Total energy in the final basis set = -1510.29173744
   10   -1510.2917397735      9.96E-09 Convergence criterion met
 Total energy in the final basis set = -1510.29173977
   11   -1510.2917424011      3.83E-09 Convergence criterion met
 Total energy in the final basis set = -1510.29174240

             Standard Nuclear Orientation (Angstroms)
    I     Atom           X                Y                Z
 ----------------------------------------------------------------
    1      O      -0.4744096897    -1.8374276104    -0.7957974535
    2      C      -1.5324948864    -1.1774509541    -0.8973000207
    3      C      -2.6471439656    -1.0146815986     0.1917772731
    4      C      -3.0874124645     0.4929804252     0.4180367530
    5      C      -2.2865873380     1.5256959146    -0.4528015302
    6      O      -0.8907808730     1.3753435143    -0.1412850390
    7      C      -0.0543263060     2.3156087908    -0.9249346007
    8      C       1.4212871317     1.7877480603    -0.9174440614
    9      O       1.4806797728     0.5141417635    -1.6742160481
   10      C       2.0784194826    -0.6323153502    -1.0325592604
   11      C       2.0126593293    -0.9049501575     0.5388866956
   12      C       3.4053833928    -0.6958819231     1.2785960893
   13      C       4.5752574903    -0.1991099585     0.3683556583
   14      O       5.7663103292    -0.5762616834     0.3952470370
   15      O      -1.9355205935    -0.4517915349    -2.0567102465
   16      O       4.0690428964     0.7927593884    -0.5302847782
   17      O       2.5350094546    -1.5060890596    -1.8023667644
   18      C       5.1112909019     1.2089541378    -1.4937301945
   19      C       1.0506831079    -0.0333881316     1.4403643637
   20      C       0.8663242134    -0.7571289546     2.8276377946
   21      C       2.2360312281    -0.4413084651     3.5391371930
   22      C       2.9910399431     0.3517999877     2.4036700770
   23      O       1.8995243887     1.1411041864     1.7859762188
   24      H       1.7185675462    -1.9682591153     0.5980325891
   25      H       3.7457585345    -1.6364102329     1.7457225001
   26      H       0.1232831534     0.3207710632     0.9347693432
   27      H       0.0174975485    -0.3222489141     3.3788152934
   28      H       0.6904877547    -1.8377738510     2.7052871215
   29      H       2.0929487139     0.1991725393     4.4242822658
   30      H       2.7809815980    -1.3491178361     3.8433328561
   31      H       3.8072640695     1.0161679789     2.7484492991
   32      O      -2.7355251670     2.3854690665    -1.2367866882
   33      C      -0.8723368118    -0.4988924376    -3.0932158482
   34      C      -4.0298679442    -1.6480403462    -0.2787294722
   35      C      -4.9829353184    -1.7545711323     0.9776023589
   36      C      -5.4238022043    -0.2536959384     1.1559976030
   37      C      -4.6121331937     0.4388390324    -0.0068712007
   38      O      -4.6362461169    -0.5706389037    -1.0911308582
   39      H      -2.2818033321    -1.4783536194     1.1246887059
   40      H      -2.9698482782     0.7781538378     1.4799243770
   41      H      -0.6986630032    -1.5374994237    -3.4387273415
   42      H      -3.9304799139    -2.5760248903    -0.8747963278
   43      H      -5.8426123362    -2.4061987964     0.7545108337
   44      H      -4.4583353795    -2.1520883381     1.8611140417
   45      H      -6.5067655578    -0.1303374827     0.9964211575
   46      H      -5.1631873921     0.1522654522     2.1464881725
   47      H      -5.0107415212     1.4058832039    -0.3704727098
   48      H       0.0809897902    -0.0742672206    -2.6924759974
   49      H      -1.2505493236     0.1109108970    -3.9333738077
   50      H       4.6571118474     2.0095963229    -2.1057842049
   51      H       5.4105005770     0.3665645610    -2.1502752857
   52      H       6.0125146797     1.5965708603    -0.9768024026
   53      H       2.0445080224     2.5255724755    -1.4687745575
   54      H       1.8091783717     1.6890438490     0.1298240239
   55      H      -0.0871576847     3.3285911353    -0.4648544100
   56      H      -0.4469077739     2.3953116271    -1.9612178234
 ----------------------------------------------------------------

   11   -1510.2917418393      2.39E-09 Convergence criterion met
 Total energy in the final basis set = -1510.29174184
 Final energy is   -1510.29174183928
 **  OPTIMIZATION CONVERGED  **

                    Orbital Energies (a.u.)
 --------------------------------------------------------------

 Alpha MOs
 -- Occupied --
-18.943 -18.939 -18.927 -18.920 -18.905 -18.888 -18.882 -18.882
-18.867 -18.862 -10.107 -10.105 -10.097 -10.094 -10.072 -10.071
-10.069 -10.061 -10.059 -10.055 -10.051 -10.041 -10.040 -10.037
-10.035 -10.034 -10.027 -10.024 -10.022 -10.021  -1.019  -1.018
 -1.002  -0.994  -0.982  -0.970  -0.944  -0.943  -0.930  -0.925
 -0.767  -0.765  -0.727  -0.726  -0.710  -0.709  -0.700  -0.665
 -0.646  -0.609  -0.601  -0.580  -0.553  -0.548  -0.542  -0.536
 -0.521  -0.510  -0.493  -0.482  -0.469  -0.466  -0.444  -0.440
 -0.435  -0.432  -0.419  -0.418  -0.414  -0.410  -0.404  -0.402
 -0.389  -0.386  -0.376  -0.370  -0.365  -0.359  -0.355  -0.350
 -0.345  -0.340  -0.336  -0.331  -0.327  -0.325  -0.317  -0.316
 -0.311  -0.310  -0.305  -0.298  -0.295  -0.292  -0.289  -0.280
 -0.271  -0.258  -0.252  -0.246  -0.243  -0.234  -0.227  -0.184
 -0.183  -0.171  -0.163  -0.160  -0.158  -0.154  -0.146  -0.144
 -0.137

          Ground-State Mulliken Net Atomic Charges

     Atom                 Charge (a.u.)
  ----------------------------------------
      1 O                    -0.220537
      2 C                     0.208774
      3 C                    -0.080395
      4 C                    -0.078991
      5 C                     0.222168
      6 O                    -0.183280
      7 C                    -0.049312
      8 C                    -0.063960
      9 O                    -0.183072
     10 C                     0.223636
     11 C                    -0.081783
     12 C                    -0.083200
     13 C                     0.210269
     14 O                    -0.207642
     15 O                    -0.170029
     16 O                    -0.171941
     17 O                    -0.207306
     18 C                    -0.126681
     19 C                     0.004330
     20 C                    -0.144604
     21 C                    -0.141847
     22 C                     0.026452
     23 O                    -0.193603
     24 H                     0.097076
     25 H                     0.088334
     26 H                     0.111579
     27 H                     0.075803
     28 H                     0.077124
     29 H                     0.078538
     30 H                     0.076516
     31 H                     0.084529
     32 O                    -0.206330
     33 C                    -0.147687
     34 C                     0.026139
     35 C                    -0.144022
     36 C                    -0.143919
     37 C                     0.025131
     38 O                    -0.184395
     39 H                     0.081573
     40 H                     0.082831
     41 H                     0.083021
     42 H                     0.083778
     43 H                     0.078394
     44 H                     0.072850
     45 H                     0.078648
     46 H                     0.072362
     47 H                     0.090578
     48 H                     0.112509
     49 H                     0.083250
     50 H                     0.092209
     51 H                     0.094941
     52 H                     0.091225
     53 H                     0.077681
     54 H                     0.122506
     55 H                     0.084707
     56 H                     0.095076
  ----------------------------------------
  Sum of atomic charges =     0.000000

                    Cartesian Multipole Moments
 -----------------------------------------------------------------
    Charge (ESU x 10^10)
                 0.0000
    Dipole Moment (Debye)
         X      -0.3949      Y       1.1959      Z       3.6054
       Tot       3.8190
    Quadrupole Moments (Debye-Ang)
        XX    -164.9661     XY      12.6994     YY    -159.7541
        XZ      -7.1332     YZ      -4.9957     ZZ    -157.1654

 Total job time:  135.69s(wall), 6459.76s(cpu)
        *  Thank you very much for using Q-Chem.  Have a nice day.  *
