 Q-Chem 5.0, Q-Chem, Inc., Pleasanton, CA (2017)
 Q-Chem 5.0.1 for Intel X86 EM64T Linux

User input:
--------------------------------------------------------------
$molecule
0  1
O -3.94934 -3.66094 2.70899
C -3.26408 -4.56952 2.26188
C -3.36658 -6.02376 2.66595
C -2.26219 -6.97073 2.16854
C -1.08431 -6.32614 1.47198
O -1.43676 -5.96461 0.20293
C -1.18347 -6.98834 -0.76511
C -1.6314 -6.52655 -2.14795
O -0.48441 -6.24178 -2.96416
C -0.73714 -6.06986 -4.28542
C -1.11428 -4.64927 -4.63233
C -2.56516 -4.46018 -5.09866
C -3.50612 -5.61376 -4.81485
O -4.09646 -6.27126 -5.65969
O -2.34004 -4.13063 1.37426
O -3.92606 -5.77366 -3.53616
O -0.69885 -6.98745 -5.09027
C -4.89918 -6.6644 -3.12705
C -1.06832 -3.57744 -3.5083
C -0.86661 -2.19364 -4.12736
C -2.21711 -1.97474 -4.78302
C -2.96715 -3.21716 -4.2889
O -2.39069 -3.4798 -3.03422
H -0.37928 -4.33816 -5.40869
H -2.60248 -4.29811 -6.19905
H -0.28296 -3.76103 -2.74375
H -0.76459 -1.476 -3.28143
H 0.01114 -2.08615 -4.80017
H -2.66434 -1.04602 -4.3644
H -2.20328 -1.92513 -5.89344
H -4.0666 -3.04993 -4.29985
O 0.06853 -6.28913 1.87857
C -2.17684 -2.82976 0.9361
C -3.19983 -6.17794 4.19148
C -3.83767 -7.48576 4.65663
C -2.84144 -8.48817 4.11875
C -1.79188 -7.54306 3.52379
O -1.82795 -6.42168 4.36948
H -4.38545 -6.35953 2.37031
H -2.65667 -7.7934 1.53636
H -1.93563 -2.16381 1.79182
H -3.62211 -5.32656 4.7694
H -3.79134 -7.50318 5.7692
H -4.88898 -7.63605 4.32937
H -2.40802 -9.04728 4.97794
H -3.24165 -9.20167 3.36638
H -0.81484 -8.07002 3.45117
H -3.10155 -2.47785 0.43088
H -1.3398 -2.79485 0.20863
H -5.02761 -6.58151 -2.02826
H -4.59604 -7.70416 -3.37429
H -5.86647 -6.42764 -3.61929
H -2.15997 -7.38877 -2.6158
H -2.2914 -5.65876 -2.0136
H -1.81304 -7.86625 -0.50217
H -0.12448 -7.33236 -0.77249
$end

$opt
CONSTRAINT
tors           1           2           3           4    -169.874
tors           3           4           5           6     -76.309
tors           4           5           6           7     -90.715
tors           5           6           7           8    +178.655
tors           6           7           8           9    +107.567
tors           7           8           9          10    +167.901
tors           8           9          10          11     +86.560
tors           9          10          11          12    -112.775
tors          11          12          13          14    -118.250
ENDCONSTRAINT
$end

$rem
JOBTYPE                   OPT
METHOD                    B3LYP
DFT_D                     d3_op
BASIS                     STO-3G
GEOM_OPT_MAX_CYCLES       100
GEOM_OPT_TOL_GRADIENT     300
GEOM_OPT_TOL_DISPLACEMENT 1200
GEOM_OPT_TOL_ENERGY       100
SYMMETRY                  False
THRESH                    12
SCF_CONVERGENCE           8
MAX_SUB_FILE_NUM          128
MEM_STATIC                400
MEM_TOTAL                 4000
$end
--------------------------------------------------------------

   15   -1510.0882158823      6.25E-09 Convergence criterion met
 Total energy in the final basis set = -1510.08821588
   14   -1510.1641656357      2.94E-09 Convergence criterion met
 Total energy in the final basis set = -1510.16416564
   14   -1510.2057448563      6.17E-09 Convergence criterion met
 Total energy in the final basis set = -1510.20574486
   13   -1510.2248214732      9.29E-09 Convergence criterion met
 Total energy in the final basis set = -1510.22482147
   14   -1510.2323005233      6.99E-09 Convergence criterion met
 Total energy in the final basis set = -1510.23230052
   13   -1510.2355062308      5.01E-09 Convergence criterion met
 Total energy in the final basis set = -1510.23550623
   12   -1510.2370201479      9.51E-09 Convergence criterion met
 Total energy in the final basis set = -1510.23702015
   13   -1510.2380170449      5.40E-09 Convergence criterion met
   13   -1510.2409406972      3.56E-09 Convergence criterion met
 Total energy in the final basis set = -1510.24094070
   12   -1510.2410413896      5.49E-09 Convergence criterion met
 Total energy in the final basis set = -1510.24104139
   11   -1510.2411295672      9.32E-09 Convergence criterion met
 Total energy in the final basis set = -1510.24112957
   12   -1510.2411853819      2.21E-09 Convergence criterion met
 Total energy in the final basis set = -1510.24118538
   10   -1510.2412135209      8.93E-09 Convergence criterion met
 Total energy in the final basis set = -1510.24121352
   11   -1510.2412409067      4.94E-09 Convergence criterion met
 Total energy in the final basis set = -1510.24124091

             Standard Nuclear Orientation (Angstroms)
    I     Atom           X                Y                Z
 ----------------------------------------------------------------
    1      O      -3.5701962071    -3.1664340625     1.0910770736
    2      C      -3.2489417925    -2.1025937039     0.5183485889
    3      C      -3.7684017566    -0.6638696241     0.8776649574
    4      C      -3.4196217928     0.5070348403    -0.1350217682
    5      C      -2.4123475097     0.1628771424    -1.3083080913
    6      O      -1.0210748472     0.1003384090    -0.8456714400
    7      C      -0.4127703405     1.4401221394    -0.9818958790
    8      C       1.0559922821     1.3184056159    -0.4415679400
    9      O       1.9641954723     1.3770071172    -1.6122160339
   10      C       3.3400243416     1.5559466358    -1.1908780227
   11      C       4.1179695924     0.2024395437    -0.8543023736
   12      C       4.5133252881    -0.0055452712     0.6731997800
   13      C       4.3763770917     1.2505225938     1.5966420374
   14      O       5.3063987872     1.8112632175     2.2172481764
   15      O      -2.3753756382    -2.0423843717    -0.6051734891
   16      O       3.0129771035     1.6764864644     1.6560922415
   17      O       3.8982670177     2.6721027062    -1.2401004632
   18      C       2.8976100946     2.8855015475     2.5037883091
   19      C       3.1867496335    -1.0619759126    -1.0765359325
   20      C       4.0576442941    -2.3781921714    -1.0374250450
   21      C       4.3014241710    -2.5467821757     0.5099889050
   22      C       3.5964609229    -1.2486904425     1.0657113534
   23      O       2.4111059264    -1.1299270613     0.1896807041
   24      H       5.0216270487     0.1717133652    -1.4897001468
   25      H       5.5775026257    -0.2952895044     0.7371911076
   26      H       2.4972260025    -0.9601802253    -1.9364330407
   27      H       3.4909324802    -3.2273291777    -1.4509641527
   28      H       4.9953396537    -2.2707499437    -1.6058941138
   29      H       3.8006027798    -3.4477531021     0.8991132610
   30      H       5.3696351102    -2.5925445905     0.7749197647
   31      H       3.2921119528    -1.2873649114     2.1296480085
   32      O      -2.7294288179     0.0453136324    -2.5087585120
   33      C      -1.8910970223    -3.3841875546    -0.9918333735
   34      C      -5.3565864277    -0.6571886080     0.7918340198
   35      C      -5.9069620804     0.6441444033     1.4991281198
   36      C      -5.6022651033     1.7384983339     0.4094353007
   37      C      -4.8645838658     0.8724104267    -0.6838839292
   38      O      -5.5983473632    -0.4140784514    -0.6480914938
   39      H      -3.4202325022    -0.4268493512     1.8999981080
   40      H      -2.9860190419     1.3549868747     0.4248764957
   41      H      -2.7343874801    -4.0712187017    -1.2087421543
   42      H      -5.8248219205    -1.6076680324     1.1149132965
   43      H      -6.9874992085     0.5516408918     1.6920341508
   44      H      -5.3938299897     0.8407398731     2.4541359680
   45      H      -6.5306596038     2.1667726710    -0.0010488064
   46      H      -4.9719090870     2.5580657776     0.7898026189
   47      H      -4.8637793244     1.2850495055    -1.7115310099
   48      H      -1.2626273264    -3.8291876656    -0.1934615746
   49      H      -1.2841249591    -3.2339415244    -1.9035515861
   50      H       1.8186091310     3.1208047269     2.5542576809
   51      H       3.4440664913     3.7430958231     2.0606886325
   52      H       3.2884482675     2.7063740073     3.5257631187
   53      H       1.2728083551     2.1548252010     0.2551097014
   54      H       1.2135513218     0.3515516534     0.0987249576
   55      H      -0.9709099208     2.2022114541    -0.3901695051
   56      H      -0.3849492597     1.7821375463    -2.0429641935
 ----------------------------------------------------------------

   11   -1510.2412402169      4.12E-09 Convergence criterion met
 Total energy in the final basis set = -1510.24124022
 Final energy is   -1510.24124021686
 **  OPTIMIZATION CONVERGED  **

                    Orbital Energies (a.u.)
 --------------------------------------------------------------

 Alpha MOs
 -- Occupied --
-18.947 -18.942 -18.903 -18.897 -18.890 -18.886 -18.884 -18.883
-18.881 -18.876 -10.106 -10.105 -10.104 -10.099 -10.071 -10.071
-10.068 -10.064 -10.059 -10.059 -10.056 -10.048 -10.044 -10.040
-10.039 -10.032 -10.027 -10.026 -10.021 -10.019  -1.019  -1.017
 -1.001  -0.991  -0.981  -0.969  -0.943  -0.940  -0.932  -0.919
 -0.769  -0.761  -0.727  -0.723  -0.712  -0.703  -0.688  -0.668
 -0.664  -0.605  -0.600  -0.571  -0.553  -0.544  -0.543  -0.538
 -0.518  -0.510  -0.488  -0.483  -0.472  -0.459  -0.446  -0.442
 -0.436  -0.430  -0.420  -0.419  -0.414  -0.412  -0.409  -0.399
 -0.388  -0.379  -0.375  -0.372  -0.369  -0.356  -0.352  -0.348
 -0.344  -0.340  -0.336  -0.333  -0.331  -0.330  -0.317  -0.314
 -0.313  -0.312  -0.307  -0.304  -0.298  -0.297  -0.290  -0.279
 -0.270  -0.260  -0.252  -0.246  -0.234  -0.231  -0.225  -0.185
 -0.181  -0.165  -0.162  -0.158  -0.151  -0.147  -0.143  -0.140
 -0.138

          Ground-State Mulliken Net Atomic Charges

     Atom                 Charge (a.u.)
  ----------------------------------------
      1 O                    -0.214418
      2 C                     0.214709
      3 C                    -0.077461
      4 C                    -0.084138
      5 C                     0.231002
      6 O                    -0.196276
      7 C                    -0.049216
      8 C                    -0.057479
      9 O                    -0.203103
     10 C                     0.221172
     11 C                    -0.082739
     12 C                    -0.082443
     13 C                     0.207421
     14 O                    -0.208886
     15 O                    -0.160118
     16 O                    -0.172370
     17 O                    -0.185185
     18 C                    -0.128699
     19 C                     0.023210
     20 C                    -0.144658
     21 C                    -0.141955
     22 C                     0.026381
     23 O                    -0.186582
     24 H                     0.086021
     25 H                     0.086905
     26 H                     0.096077
     27 H                     0.079682
     28 H                     0.075505
     29 H                     0.079259
     30 H                     0.075844
     31 H                     0.085255
     32 O                    -0.192081
     33 C                    -0.122238
     34 C                     0.024677
     35 C                    -0.144436
     36 C                    -0.143746
     37 C                     0.023220
     38 O                    -0.190210
     39 H                     0.085152
     40 H                     0.076284
     41 H                     0.093371
     42 H                     0.087154
     43 H                     0.078428
     44 H                     0.072821
     45 H                     0.078121
     46 H                     0.071676
     47 H                     0.088200
     48 H                     0.091392
     49 H                     0.098615
     50 H                     0.089405
     51 H                     0.093457
     52 H                     0.091515
     53 H                     0.076435
     54 H                     0.110524
     55 H                     0.065329
     56 H                     0.084214
  ----------------------------------------
  Sum of atomic charges =    -0.000000

                    Cartesian Multipole Moments
 -----------------------------------------------------------------
    Charge (ESU x 10^10)
                -0.0000
    Dipole Moment (Debye)
         X       0.7683      Y      -0.3154      Z       2.4538
       Tot       2.5905
    Quadrupole Moments (Debye-Ang)
        XX    -166.4243     XY     -21.8253     YY    -157.5766
        XZ      -8.8106     YZ       7.5228     ZZ    -163.1166

 Total job time:  54.90s(wall), 2610.80s(cpu)
        *  Thank you very much for using Q-Chem.  Have a nice day.  *
