 Q-Chem 5.0, Q-Chem, Inc., Pleasanton, CA (2017)
 Q-Chem 5.0.1 for Intel X86 EM64T Linux

User input:
--------------------------------------------------------------
$molecule
0  1
O -3.94934 -3.66094 2.70899
C -3.26408 -4.56952 2.26188
C -3.36658 -6.02376 2.66595
C -2.08435 -6.86808 2.5831
C -0.80459 -6.12251 2.27583
O -0.36873 -6.44582 1.02247
C -1.43166 -6.57362 0.07215
C -1.11447 -5.76712 -1.18287
O -1.9349 -6.21554 -2.27314
C -1.9768 -5.39089 -3.34894
C -2.80227 -5.94697 -4.48474
C -3.49312 -4.89125 -5.36021
C -2.98675 -3.47117 -5.20641
O -2.75724 -2.91165 -4.14394
O -2.28389 -4.17697 1.40499
O -2.65744 -2.80218 -6.34605
O -1.06424 -4.59673 -3.55263
C -2.13788 -1.52481 -6.3833
C -1.97895 -6.69739 -5.5541
C -2.87288 -7.72076 -6.24969
C -3.80304 -6.80277 -7.01818
C -3.1315 -5.44694 -6.75391
O -1.77062 -5.76036 -6.58389
H -3.53511 -6.66356 -4.04527
H -4.58284 -4.85476 -5.14298
H -1.06854 -7.18958 -5.14742
H -2.22397 -8.26195 -6.97568
H -3.37719 -8.46217 -5.59333
H -3.75949 -7.0828 -8.09395
H -4.8573 -6.79262 -6.66555
H -3.37505 -4.74384 -7.57937
O -0.02801 -5.70444 3.12261
C -2.04048 -2.86543 1.03915
C -3.68063 -6.13914 4.17564
C -4.29977 -7.50263 4.48321
C -3.08297 -8.38916 4.37021
C -2.00786 -7.34282 4.05749
O -2.42043 -6.21607 4.78569
H -4.22478 -6.44675 2.09852
H -2.18547 -7.81673 2.00727
H -1.80762 -2.25524 1.93792
H -4.35383 -5.33806 4.55177
H -4.6368 -7.49919 5.54456
H -5.15236 -7.77605 3.82491
H -2.88052 -8.83543 5.36977
H -3.14758 -9.19509 3.60788
H -1.00797 -7.75363 4.32329
H -2.92507 -2.44338 0.51614
H -1.16646 -2.82289 0.35928
H -1.96727 -1.23241 -7.43963
H -1.16862 -1.48991 -5.84141
H -2.85185 -0.80806 -5.92415
H -1.27286 -4.69176 -0.96676
H -0.04957 -5.92382 -1.46542
H -2.4747 -6.3134 0.3217
H -1.43065 -7.64126 -0.23927
$end

$opt
CONSTRAINT
tors           1           2           3           4    -150.397
tors           3           4           5           6    -110.449
tors           4           5           6           7     +39.105
tors           5           6           7           8    +130.521
tors           6           7           8           9    +161.822
tors           7           8           9          10    +165.394
tors           8           9          10          11    +177.310
tors           9          10          11          12    +149.547
tors          11          12          13          14     -45.045
ENDCONSTRAINT
$end

$rem
JOBTYPE                   OPT
METHOD                    B3LYP
DFT_D                     d3_op
BASIS                     STO-3G
GEOM_OPT_MAX_CYCLES       100
GEOM_OPT_TOL_GRADIENT     300
GEOM_OPT_TOL_DISPLACEMENT 1200
GEOM_OPT_TOL_ENERGY       100
SYMMETRY                  False
THRESH                    12
SCF_CONVERGENCE           8
MAX_SUB_FILE_NUM          128
MEM_STATIC                400
MEM_TOTAL                 4000
$end
--------------------------------------------------------------

   15   -1510.1094681545      7.70E-09 Convergence criterion met
 Total energy in the final basis set = -1510.10946815
   14   -1510.1858091121      7.42E-09 Convergence criterion met
 Total energy in the final basis set = -1510.18580911
   14   -1510.2274670232      9.21E-09 Convergence criterion met
 Total energy in the final basis set = -1510.22746702
   13   -1510.2488869955      9.56E-09 Convergence criterion met
 Total energy in the final basis set = -1510.24888700
   13   -1510.2577022589      6.97E-09 Convergence criterion met
 Total energy in the final basis set = -1510.25770226
   14   -1510.2615909081      3.54E-09 Convergence criterion met
 Total energy in the final basis set = -1510.26159091
   13   -1510.2639159788      2.21E-09 Convergence criterion met
 Total energy in the final basis set = -1510.26391598
   13   -1510.2652189583      2.66E-09 Convergence criterion met
   10   -1510.2684327520      8.63E-09 Convergence criterion met
 Total energy in the final basis set = -1510.26843275
   10   -1510.2684343912      6.49E-09 Convergence criterion met
 Total energy in the final basis set = -1510.26843439
    9   -1510.2684388381      9.44E-09 Convergence criterion met
 Total energy in the final basis set = -1510.26843884
    9   -1510.2684425847      5.50E-09 Convergence criterion met
 Total energy in the final basis set = -1510.26844258
    9   -1510.2684462808      4.42E-09 Convergence criterion met
 Total energy in the final basis set = -1510.26844628
    9   -1510.2684485035      2.59E-09 Convergence criterion met
 Total energy in the final basis set = -1510.26844850

             Standard Nuclear Orientation (Angstroms)
    I     Atom           X                Y                Z
 ----------------------------------------------------------------
    1      O      -3.6273128054    -2.7352438962     1.3180080823
    2      C      -3.3548818842    -1.6522681891     0.7587080383
    3      C      -4.0252765000    -0.2584560266     1.0352742425
    4      C      -4.0717313082     0.7428171332    -0.1947914348
    5      C      -3.4327176874     0.2064909250    -1.5450977010
    6      O      -2.2003993250     0.8270436203    -1.9759325848
    7      C      -1.2588379243     1.1342833014    -0.8754978688
    8      C       0.1445940424     0.5720724904    -1.2892530326
    9      O       1.1495045903     1.2501115155    -0.4319569350
   10      C       2.4014436516     0.5581478777    -0.5056842083
   11      C       3.4489475804     1.3419518213     0.3548717838
   12      C       4.5584294008     0.4082854143     0.9933332130
   13      C       4.1886881351    -1.1204780446     0.9722266373
   14      O       3.0857445238    -1.6214879505     1.2823743218
   15      O      -2.3223999534    -1.4977203235    -0.2186137177
   16      O       5.3276916458    -1.8863505846     0.5713051094
   17      O       2.5993939785    -0.4606227359    -1.2024948006
   18      C       4.9789391374    -3.3250093739     0.5325855145
   19      C       4.3519765336     2.2216870113    -0.6184312076
   20      C       5.2636168355     3.1785514817     0.2484670207
   21      C       6.3781759376     2.1814829657     0.7394059700
   22      C       5.8396408292     0.8201902892     0.1501069342
   23      O       5.2934755960     1.2209971233    -1.1677838340
   24      H       2.9217753656     1.9534537832     1.1075674294
   25      H       4.7019154833     0.6827735868     2.0555655984
   26      H       3.7912224525     2.7183984203    -1.4342412779
   27      H       5.6821682870     3.9846582252    -0.3745507667
   28      H       4.7028394147     3.6314794378     1.0817777094
   29      H       7.3578776010     2.4268474613     0.2992929189
   30      H       6.4783781066     2.1558265757     1.8361534832
   31      H       6.5860114288     0.0114706977     0.0339516627
   32      O      -4.0352231823    -0.5212968005    -2.3618992956
   33      C      -1.7205677456    -2.8058046369    -0.5621892576
   34      C      -5.5693899316    -0.4541749311     1.3389592711
   35      C      -6.1260765892     0.8585042084     2.0157062394
   36      C      -6.1864399554     1.8324448490     0.7810915477
   37      C      -5.6472599223     0.8971953554    -0.3725129273
   38      O      -6.1751157620    -0.4373971286    -0.0119186095
   39      H      -3.5004581164     0.1998297047     1.8950964128
   40      H      -3.6133182581     1.7105797530     0.0689471627
   41      H      -2.4977858028    -3.5506656408    -0.8258526936
   42      H      -5.7992083168    -1.4031954379     1.8620937520
   43      H      -7.1277883035     0.6773595507     2.4366104348
   44      H      -5.4665966830     1.2250772805     2.8185574643
   45      H      -7.2195085599     2.1491288238     0.5666287262
   46      H      -5.5628645193     2.7310380820     0.9149834937
   47      H      -5.9656320554     1.1723476633    -1.3965622410
   48      H      -1.1151372090    -3.2014409065     0.2791270650
   49      H      -1.0676940600    -2.6217212645    -1.4351797339
   50      H       5.8872171652    -3.8490790349     0.1824489961
   51      H       4.1422547043    -3.5197959570    -0.1687575077
   52      H       4.6945335100    -3.7044921510     1.5355591805
   53      H       0.1864088893    -0.5288607267    -1.1542376718
   54      H       0.3344060540     0.7950210392    -2.3625630922
   55      H      -1.5627101392     0.6798700381     0.0861559930
   56      H      -1.1827868467     2.2378206049    -0.7469430853
 ----------------------------------------------------------------

    9   -1510.2684490276      7.75E-09 Convergence criterion met
 Total energy in the final basis set = -1510.26844903
 Final energy is   -1510.26844902762
 **  OPTIMIZATION CONVERGED  **

                    Orbital Energies (a.u.)
 --------------------------------------------------------------

 Alpha MOs
 -- Occupied --
-18.948 -18.935 -18.933 -18.917 -18.889 -18.889 -18.885 -18.874
-18.870 -18.868 -10.108 -10.099 -10.099 -10.097 -10.073 -10.070
-10.070 -10.063 -10.063 -10.061 -10.060 -10.058 -10.044 -10.039
-10.038 -10.037 -10.023 -10.022 -10.021 -10.021  -1.022  -1.014
 -1.008  -0.996  -0.972  -0.971  -0.946  -0.939  -0.933  -0.929
 -0.765  -0.764  -0.726  -0.725  -0.714  -0.706  -0.699  -0.668
 -0.660  -0.610  -0.603  -0.581  -0.550  -0.546  -0.541  -0.539
 -0.516  -0.512  -0.489  -0.479  -0.465  -0.461  -0.455  -0.451
 -0.436  -0.432  -0.431  -0.418  -0.415  -0.411  -0.410  -0.400
 -0.395  -0.387  -0.377  -0.374  -0.363  -0.360  -0.356  -0.348
 -0.346  -0.341  -0.333  -0.332  -0.331  -0.323  -0.316  -0.312
 -0.309  -0.309  -0.304  -0.298  -0.297  -0.290  -0.288  -0.278
 -0.276  -0.258  -0.257  -0.250  -0.236  -0.235  -0.235  -0.186
 -0.181  -0.173  -0.165  -0.162  -0.157  -0.149  -0.146  -0.144
 -0.141

          Ground-State Mulliken Net Atomic Charges

     Atom                 Charge (a.u.)
  ----------------------------------------
      1 O                    -0.206888
      2 C                     0.213983
      3 C                    -0.081252
      4 C                    -0.086398
      5 C                     0.218280
      6 O                    -0.179701
      7 C                    -0.046119
      8 C                    -0.046459
      9 O                    -0.176383
     10 C                     0.211728
     11 C                    -0.078326
     12 C                    -0.079527
     13 C                     0.213850
     14 O                    -0.218832
     15 O                    -0.172252
     16 O                    -0.168969
     17 O                    -0.210689
     18 C                    -0.127142
     19 C                     0.025431
     20 C                    -0.144562
     21 C                    -0.143210
     22 C                     0.023623
     23 O                    -0.188123
     24 H                     0.085533
     25 H                     0.082659
     26 H                     0.082662
     27 H                     0.078373
     28 H                     0.073354
     29 H                     0.078200
     30 H                     0.072911
     31 H                     0.094173
     32 O                    -0.203459
     33 C                    -0.126481
     34 C                     0.024706
     35 C                    -0.144279
     36 C                    -0.144317
     37 C                     0.026650
     38 O                    -0.186242
     39 H                     0.083020
     40 H                     0.077484
     41 H                     0.098041
     42 H                     0.090840
     43 H                     0.079292
     44 H                     0.072632
     45 H                     0.078995
     46 H                     0.072170
     47 H                     0.087754
     48 H                     0.092203
     49 H                     0.096615
     50 H                     0.090536
     51 H                     0.093675
     52 H                     0.087230
     53 H                     0.092970
     54 H                     0.089440
     55 H                     0.090255
     56 H                     0.080340
  ----------------------------------------
  Sum of atomic charges =     0.000000

                    Cartesian Multipole Moments
 -----------------------------------------------------------------
    Charge (ESU x 10^10)
                 0.0000
    Dipole Moment (Debye)
         X       2.0973      Y       2.8046      Z       3.6130
       Tot       5.0318
    Quadrupole Moments (Debye-Ang)
        XX    -162.9045     XY     -10.6718     YY    -151.2945
        XZ      -1.5992     YZ       2.8169     ZZ    -166.3103

 Total job time:  69.62s(wall), 3307.92s(cpu)
        *  Thank you very much for using Q-Chem.  Have a nice day.  *
