 Q-Chem 5.0, Q-Chem, Inc., Pleasanton, CA (2017)
 Q-Chem 5.0.1 for Intel X86 EM64T Linux

User input:
--------------------------------------------------------------
$molecule
0  1
O -3.6273128054 -2.7352438962 1.3180080823
C -3.3548818842 -1.6522681891 0.7587080383
C -4.0252765 -0.2584560266 1.0352742425
C -4.0717313082 0.7428171332 -0.1947914348
C -3.4327176874 0.206490925 -1.545097701
O -2.200399325 0.8270436203 -1.9759325848
C -1.2588379243 1.1342833014 -0.8754978688
C 0.1445940424 0.5720724904 -1.2892530326
O 1.1495045903 1.2501115155 -0.431956935
C 2.4014436516 0.5581478777 -0.5056842083
C 3.4489475804 1.3419518213 0.3548717838
C 4.5584294008 0.4082854143 0.993333213
C 4.1886881351 -1.1204780446 0.9722266373
O 3.0857445238 -1.6214879505 1.2823743218
O -2.3223999534 -1.4977203235 -0.2186137177
O 5.3276916458 -1.8863505846 0.5713051094
O 2.5993939785 -0.4606227359 -1.2024948006
C 4.9789391374 -3.3250093739 0.5325855145
C 4.3519765336 2.2216870113 -0.6184312076
C 5.2636168355 3.1785514817 0.2484670207
C 6.3781759376 2.1814829657 0.73940597
C 5.8396408292 0.8201902892 0.1501069342
O 5.293475596 1.2209971233 -1.167783834
H 2.9217753656 1.9534537832 1.1075674294
H 4.7019154833 0.6827735868 2.0555655984
H 3.7912224525 2.7183984203 -1.4342412779
H 5.682168287 3.9846582252 -0.3745507667
H 4.7028394147 3.6314794378 1.0817777094
H 7.357877601 2.4268474613 0.2992929189
H 6.4783781066 2.1558265757 1.8361534832
H 6.5860114288 0.0114706977 0.0339516627
O -4.0352231823 -0.5212968005 -2.3618992956
C -1.7205677456 -2.8058046369 -0.5621892576
C -5.5693899316 -0.4541749311 1.3389592711
C -6.1260765892 0.8585042084 2.0157062394
C -6.1864399554 1.832444849 0.7810915477
C -5.6472599223 0.8971953554 -0.3725129273
O -6.175115762 -0.4373971286 -0.0119186095
H -3.5004581164 0.1998297047 1.8950964128
H -3.6133182581 1.710579753 0.0689471627
H -2.4977858028 -3.5506656408 -0.8258526936
H -5.7992083168 -1.4031954379 1.862093752
H -7.1277883035 0.6773595507 2.4366104348
H -5.466596683 1.2250772805 2.8185574643
H -7.2195085599 2.1491288238 0.5666287262
H -5.5628645193 2.731038082 0.9149834937
H -5.9656320554 1.1723476633 -1.396562241
H -1.115137209 -3.2014409065 0.279127065
H -1.06769406 -2.6217212645 -1.4351797339
H 5.8872171652 -3.8490790349 0.1824489961
H 4.1422547043 -3.519795957 -0.1687575077
H 4.69453351 -3.704492151 1.5355591805
H 0.1864088893 -0.5288607267 -1.1542376718
H 0.334406054 0.7950210392 -2.3625630922
H -1.5627101392 0.6798700381 0.086155993
H -1.1827868467 2.2378206049 -0.7469430853
$end

$rem
JOBTYPE                   OPT
METHOD                    B3LYP
DFT_D                     d3_op
BASIS                     STO-3G
GEOM_OPT_MAX_CYCLES       100
GEOM_OPT_TOL_GRADIENT     300
GEOM_OPT_TOL_DISPLACEMENT 1200
GEOM_OPT_TOL_ENERGY       100
SYMMETRY                  False
THRESH                    12
SCF_CONVERGENCE           8
MAX_SUB_FILE_NUM          128
MEM_STATIC                400
MEM_TOTAL                 4000
$end
--------------------------------------------------------------

   16   -1510.2683747086      4.37E-09 Convergence criterion met
 Total energy in the final basis set = -1510.26837471
   14   -1510.2691303577      8.28E-09 Convergence criterion met
 Total energy in the final basis set = -1510.26913036
   13   -1510.2696427977      5.15E-09 Convergence criterion met
 Total energy in the final basis set = -1510.26964280
   13   -1510.2699995683      4.31E-09 Convergence criterion met
 Total energy in the final basis set = -1510.26999957
   13   -1510.2708104349      6.29E-09 Convergence criterion met
 Total energy in the final basis set = -1510.27081043
   14   -1510.2715833440      8.82E-09 Convergence criterion met
 Total energy in the final basis set = -1510.27158334
   13   -1510.2722954596      6.03E-09 Convergence criterion met
 Total energy in the final basis set = -1510.27229546
   13   -1510.2733471802      6.11E-09 Convergence criterion met
   11   -1510.2851315198      5.87E-09 Convergence criterion met
 Total energy in the final basis set = -1510.28513152
   11   -1510.2851356058      7.11E-09 Convergence criterion met
 Total energy in the final basis set = -1510.28513561
   11   -1510.2851401992      1.71E-09 Convergence criterion met
 Total energy in the final basis set = -1510.28514020
    9   -1510.2851412212      9.05E-09 Convergence criterion met
 Total energy in the final basis set = -1510.28514122
    9   -1510.2851380196      7.01E-09 Convergence criterion met
 Total energy in the final basis set = -1510.28513802
    9   -1510.2851398573      8.66E-09 Convergence criterion met
 Total energy in the final basis set = -1510.28513986

             Standard Nuclear Orientation (Angstroms)
    I     Atom           X                Y                Z
 ----------------------------------------------------------------
    1      O       3.1105081850    -2.4381619384     0.0541811373
    2      C       2.5899010007    -1.3993076736    -0.4012087869
    3      C       3.3089691697    -0.1213641774    -0.9554019154
    4      C       3.8188513030     0.8807522654     0.1714012298
    5      C       3.4722192760     0.4797179498     1.6624769915
    6      O       2.1543498925     0.7412776373     2.1747296612
    7      C       1.1479479273     1.1712281974     1.1725181551
    8      C      -0.1580605651     1.4687646939     1.9909973020
    9      O      -1.2556903392     1.8591427369     1.0688952567
   10      C      -1.9707093714     0.7038898416     0.6316333226
   11      C      -3.0729147042     1.1437831251    -0.3853657994
   12      C      -3.7700618816    -0.0858958430    -1.1034884982
   13      C      -3.1735423242    -1.4825447006    -0.6875448011
   14      O      -2.2391002562    -2.0809115324    -1.2736053704
   15      O       1.1714018711    -1.1991295705    -0.5329124503
   16      O      -3.9508081698    -2.0417849985     0.3716923970
   17      O      -1.7425336266    -0.4606573726     1.0326672829
   18      C      -3.3607597253    -3.3264715447     0.8099432501
   19      C      -4.3203913169     1.8103616092     0.3484863161
   20      C      -5.1925475580     2.5487500361    -0.7418408715
   21      C      -5.8807186120     1.3278322886    -1.4564120387
   22      C      -5.2757642800     0.1157291234    -0.6441167995
   23      O      -5.1486968884     0.6475035779     0.7336019639
   24      H      -2.6219531505     1.8442484668    -1.1109502840
   25      H      -3.6633539118    -0.0002639077    -2.1995915598
   26      H      -4.0561381796     2.4172229573     1.2363902649
   27      H      -5.9331110232     3.2056564121    -0.2585314635
   28      H      -4.5766647330     3.1536777560    -1.4264772276
   29      H      -6.9760068295     1.3587402874    -1.3430518683
   30      H      -5.6379899388     1.2697476349    -2.5295046449
   31      H      -5.8830340057    -0.8092576898    -0.6466442644
   32      O       4.3050595430     0.0044315576     2.4650696846
   33      C       0.4182851222    -2.3764254888    -0.0308740877
   34      C       4.6847752068    -0.5126954981    -1.6441304336
   35      C       5.1985034686     0.7235702258    -2.4830675763
   36      C       5.7355819702     1.6647131404    -1.3415125278
   37      C       5.3889675126     0.8112626938    -0.0593846244
   38      O       5.6212838652    -0.5820379488    -0.5009759108
   39      H       2.6195935206     0.3882551321    -1.6515235275
   40      H       3.4409434237     1.8989791076    -0.0265723039
   41      H       0.9466752156    -3.3142304525    -0.2899402492
   42      H       4.6621868564    -1.4784589413    -2.1850496111
   43      H       6.0042207367     0.4170798349    -3.1687612641
   44      H       4.3911967257     1.1878578377    -3.0718218851
   45      H       6.8244288617     1.8125222605    -1.4204719680
   46      H       5.2450458505     2.6511162458    -1.3338624041
   47      H       5.9849564952     1.0311433718     0.8472868889
   48      H      -0.5874292104    -2.3384866831    -0.5111250025
   49      H       0.3108825014    -2.3198315886     1.0712740587
   50      H      -4.0879234608    -3.7749414725     1.5113519549
   51      H      -2.3966460186    -3.1593073207     1.3319971598
   52      H      -3.1894620610    -4.0109428380    -0.0456188797
   53      H      -0.4431988338     0.5683162853     2.5747192341
   54      H      -0.0049208010     2.3278435716     2.6743762182
   55      H       0.9610754534     0.3498091428     0.4327590835
   56      H       1.4597960163     2.0934348337     0.6383272313
 ----------------------------------------------------------------

    9   -1510.2851395489      2.37E-09 Convergence criterion met
 Total energy in the final basis set = -1510.28513955
 Final energy is   -1510.28513954893
 **  OPTIMIZATION CONVERGED  **

                    Orbital Energies (a.u.)
 --------------------------------------------------------------

 Alpha MOs
 -- Occupied --
-18.948 -18.937 -18.936 -18.927 -18.894 -18.893 -18.887 -18.882
-18.871 -18.870 -10.114 -10.104 -10.100 -10.096 -10.077 -10.068
-10.064 -10.062 -10.062 -10.060 -10.057 -10.047 -10.042 -10.041
-10.041 -10.038 -10.026 -10.025 -10.021 -10.020  -1.027  -1.011
 -1.010  -1.000  -0.976  -0.969  -0.951  -0.938  -0.935  -0.932
 -0.770  -0.763  -0.730  -0.723  -0.719  -0.705  -0.702  -0.661
 -0.653  -0.617  -0.598  -0.586  -0.552  -0.548  -0.543  -0.538
 -0.519  -0.509  -0.491  -0.474  -0.472  -0.459  -0.457  -0.453
 -0.439  -0.438  -0.430  -0.420  -0.413  -0.410  -0.409  -0.402
 -0.396  -0.386  -0.379  -0.371  -0.365  -0.360  -0.358  -0.350
 -0.342  -0.339  -0.337  -0.334  -0.331  -0.327  -0.320  -0.315
 -0.310  -0.309  -0.308  -0.302  -0.298  -0.287  -0.286  -0.279
 -0.276  -0.263  -0.255  -0.250  -0.241  -0.239  -0.233  -0.191
 -0.183  -0.174  -0.169  -0.161  -0.157  -0.154  -0.149  -0.144
 -0.142

          Ground-State Mulliken Net Atomic Charges

     Atom                 Charge (a.u.)
  ----------------------------------------
      1 O                    -0.199196
      2 C                     0.206567
      3 C                    -0.081302
      4 C                    -0.084444
      5 C                     0.204467
      6 O                    -0.174387
      7 C                    -0.067552
      8 C                    -0.049486
      9 O                    -0.171096
     10 C                     0.215092
     11 C                    -0.078489
     12 C                    -0.080856
     13 C                     0.222078
     14 O                    -0.227988
     15 O                    -0.175084
     16 O                    -0.163635
     17 O                    -0.208318
     18 C                    -0.127760
     19 C                     0.025821
     20 C                    -0.143465
     21 C                    -0.144350
     22 C                     0.026290
     23 O                    -0.186229
     24 H                     0.087467
     25 H                     0.084601
     26 H                     0.085931
     27 H                     0.079347
     28 H                     0.074092
     29 H                     0.078920
     30 H                     0.073872
     31 H                     0.089378
     32 O                    -0.197156
     33 C                    -0.146259
     34 C                     0.026688
     35 C                    -0.144538
     36 C                    -0.144206
     37 C                     0.026172
     38 O                    -0.182915
     39 H                     0.083529
     40 H                     0.077521
     41 H                     0.088685
     42 H                     0.085892
     43 H                     0.078780
     44 H                     0.072143
     45 H                     0.078937
     46 H                     0.071462
     47 H                     0.091620
     48 H                     0.115782
     49 H                     0.082668
     50 H                     0.091117
     51 H                     0.092814
     52 H                     0.089658
     53 H                     0.100876
     54 H                     0.091386
     55 H                     0.106591
     56 H                     0.072469
  ----------------------------------------
  Sum of atomic charges =     0.000000

                    Cartesian Multipole Moments
 -----------------------------------------------------------------
    Charge (ESU x 10^10)
                 0.0000
    Dipole Moment (Debye)
         X      -3.3879      Y       3.4542      Z      -3.5258
       Tot       5.9867
    Quadrupole Moments (Debye-Ang)
        XX    -168.7266     XY      11.3239     YY    -154.1229
        XZ      -6.9587     YZ      -1.1153     ZZ    -162.9783

 Total job time:  142.76s(wall), 6813.13s(cpu)
        *  Thank you very much for using Q-Chem.  Have a nice day.  *
