 Q-Chem 5.0, Q-Chem, Inc., Pleasanton, CA (2017)
 Q-Chem 5.0.1 for Intel X86 EM64T Linux

User input:
--------------------------------------------------------------
$molecule
0  1
O -3.94934 -3.66094 2.70899
C -3.26408 -4.56952 2.26188
C -3.36658 -6.02376 2.66595
C -3.12231 -6.36065 4.14605
C -2.97824 -5.1874 5.08988
O -3.29611 -4.02828 4.44117
C -4.70658 -3.83651 4.28934
C -5.43133 -5.17575 4.37476
O -5.39353 -5.66753 5.72369
C -6.31079 -6.62058 6.02281
C -6.17845 -7.14231 7.43381
C -7.49264 -7.6074 8.07792
C -8.65488 -7.81958 7.12877
O -9.66789 -8.45626 7.3798
O -2.29997 -4.24233 1.35347
O -8.89707 -6.76197 6.30033
O -6.81393 -7.3073 5.14077
C -9.95952 -6.61339 5.42458
C -5.32634 -8.4117 7.67981
C -4.86411 -8.46285 9.14027
C -6.15464 -8.81449 9.83893
C -7.07557 -8.97979 8.63087
O -6.23824 -9.47733 7.6173
H -5.71418 -6.32176 8.02808
H -7.85515 -6.91298 8.86801
H -4.4208 -8.50398 7.07938
H -4.16824 -9.32741 9.24051
H -4.35569 -7.54633 9.50987
H -6.02153 -9.78924 10.35935
H -6.53456 -8.05065 10.55163
H -7.94418 -9.61951 8.90212
O -2.46832 -5.2251 6.19941
C -2.06346 -2.96398 0.89247
C -4.28245 -7.20043 2.20091
C -3.44218 -8.45577 1.92885
C -3.00608 -8.80563 3.35405
C -3.80418 -7.76313 4.17458
O -4.94207 -7.64119 3.36761
H -2.42457 -6.32773 2.15301
H -2.04448 -6.63548 4.22683
H -1.78425 -2.29838 1.73708
H -4.93265 -6.9329 1.34119
H -4.14221 -9.24224 1.56505
H -2.61732 -8.34756 1.19191
H -3.36421 -9.83556 3.57632
H -1.91231 -8.75408 3.54212
H -3.94247 -8.12955 5.18081
H -2.96842 -2.56727 0.3845
H -1.22677 -2.9886 0.16462
H -9.56309 -6.47056 4.39814
H -10.54382 -5.71428 5.70887
H -10.63542 -7.49489 5.41331
H -6.46511 -4.75382 4.34682
H -5.75612 -5.69374 3.4803
H -5.27237 -2.86069 4.03347
H -4.93714 -3.44201 5.30933
$end

$opt
CONSTRAINT
tors           1           2           3           4     -59.826
tors           3           4           5           6      +8.940
tors           4           5           6           7     +77.324
tors           5           6           7           8     -22.598
tors           6           7           8           9     +70.896
tors           7           8           9          10    +161.371
tors           8           9          10          11    +177.310
tors           9          10          11          12    +149.547
tors          11          12          13          14    +162.726
ENDCONSTRAINT
$end

$rem
JOBTYPE                   OPT
METHOD                    B3LYP
DFT_D                     d3_op
BASIS                     STO-3G
GEOM_OPT_MAX_CYCLES       100
GEOM_OPT_TOL_GRADIENT     300
GEOM_OPT_TOL_DISPLACEMENT 1200
GEOM_OPT_TOL_ENERGY       100
SYMMETRY                  False
THRESH                    12
SCF_CONVERGENCE           8
MAX_SUB_FILE_NUM          128
MEM_STATIC                400
MEM_TOTAL                 4000
$end
--------------------------------------------------------------

   16   -1509.8247634976      4.31E-09 Convergence criterion met
 Total energy in the final basis set = -1509.82476350
   14   -1509.9271726686      7.30E-09 Convergence criterion met
 Total energy in the final basis set = -1509.92717267
   14   -1509.9979403596      7.13E-09 Convergence criterion met
 Total energy in the final basis set = -1509.99794036
   14   -1510.0522551396      2.27E-09 Convergence criterion met
 Total energy in the final basis set = -1510.05225514
   14   -1510.0929928843      3.43E-09 Convergence criterion met
 Total energy in the final basis set = -1510.09299288
   14   -1510.1252927809      4.47E-09 Convergence criterion met
 Total energy in the final basis set = -1510.12529278
   13   -1510.1513920851      8.00E-09 Convergence criterion met
 Total energy in the final basis set = -1510.15139209
   13   -1510.1728621998      6.32E-09 Convergence criterion met
   11   -1510.2470449084      9.39E-09 Convergence criterion met
 Total energy in the final basis set = -1510.24704491
   11   -1510.2471013303      7.78E-09 Convergence criterion met
 Total energy in the final basis set = -1510.24710133
   11   -1510.2471514070      6.46E-09 Convergence criterion met
 Total energy in the final basis set = -1510.24715141
   11   -1510.2471683069      3.87E-09 Convergence criterion met
 Total energy in the final basis set = -1510.24716831
   10   -1510.2471731166      5.32E-09 Convergence criterion met
 Total energy in the final basis set = -1510.24717312
    9   -1510.2471746925      6.07E-09 Convergence criterion met
 Total energy in the final basis set = -1510.24717469

             Standard Nuclear Orientation (Angstroms)
    I     Atom           X                Y                Z
 ----------------------------------------------------------------
    1      O      -3.4837758265    -1.6796237634    -0.3537568380
    2      C      -4.0243338148    -0.5682252093    -0.5340418326
    3      C      -3.4063135220     0.8695229697    -0.5881723794
    4      C      -2.6177655080     1.4670545713     0.6600267854
    5      C      -2.4099971310     0.7730350154     2.0872832899
    6      O      -2.7588612474    -0.5863499077     2.3895537230
    7      C      -1.8668340943    -1.6754147937     1.9218154870
    8      C      -0.8847550397    -1.4958646582     0.7217147961
    9      O       0.2276612099    -0.5922878285     1.1184333521
   10      C       1.3181732687    -0.7762075799     0.2047886953
   11      C       2.4660419127     0.2264421527     0.5812539701
   12      C       3.9104226019    -0.3145236638     0.2394068293
   13      C       4.0792573534    -1.8704333705     0.1440264162
   14      O       5.0300861875    -2.4763975152    -0.3981116941
   15      O      -5.4329547068    -0.4143225164    -0.7566036686
   16      O       3.1012066544    -2.5024393103     0.9811125325
   17      O       1.2857364275    -1.5515390153    -0.7745771704
   18      C       3.2401663092    -3.9747526441     0.9249669845
   19      C       2.3830146519     1.4140145303    -0.4831965973
   20      C       3.4304510804     2.5413058888    -0.1182575219
   21      C       4.7685805119     1.9083915500    -0.6561483807
   22      C       4.2601722591     0.4794084377    -1.0904387980
   23      O       2.9429149712     0.7756027801    -1.6968429996
   24      H       2.3600861226     0.5612307892     1.6271317238
   25      H       4.6070211911     0.0001269196     1.0407352520
   26      H       1.3567594530     1.7700635348    -0.6892546605
   27      H       3.1869135693     3.4815347613    -0.6377110397
   28      H       3.4604840813     2.7351892188     0.9660849340
   29      H       5.1511958756     2.4605557964    -1.5295090080
   30      H       5.5598766240     1.8609864080     0.1091333532
   31      H       4.9088559482    -0.0740131300    -1.7969814402
   32      O      -2.1067739726     1.5274954265     3.0419990812
   33      C      -6.0991149326    -1.7374500463    -0.7330368300
   34      C      -2.3059664719     1.0150379919    -1.7346829781
   35      C      -2.1854141690     2.5402718763    -2.1270018123
   36      C      -1.3841137251     3.1083673193    -0.8961486619
   37      C      -1.2168517667     1.8085373096    -0.0173047567
   38      O      -1.0338130779     0.7452051962    -1.0323285453
   39      H      -4.2616975880     1.5325106687    -0.8085061589
   40      H      -3.1101187693     2.4180494484     0.9331746520
   41      H      -5.9807415669    -2.2352967433     0.2510550969
   42      H      -2.4316055394     0.3166096984    -2.5849454424
   43      H      -1.6159411368     2.6488363267    -3.0638413847
   44      H      -3.1699088895     3.0179819502    -2.2545086614
   45      H      -0.3986755154     3.4948256329    -1.2024048591
   46      H      -1.9248133794     3.9050931209    -0.3611714939
   47      H      -0.3697905422     1.8128054791     0.6941445446
   48      H      -5.6984618931    -2.4105876463    -1.5182148013
   49      H      -7.1705621885    -1.5424249392    -0.9227536202
   50      H       2.3765926036    -4.4032109590     0.3775533257
   51      H       3.2489196908    -4.3637939487     1.9613568048
   52      H       4.1832397106    -4.2378889300     0.4043863441
   53      H      -0.4886857157    -2.4996541217     0.4580859564
   54      H      -1.3903451730    -1.0711384292    -0.1690723673
   55      H      -2.5470719225    -2.5145812379     1.6624803176
   56      H      -1.2604142079    -1.9899522197     2.8038923647
 ----------------------------------------------------------------

    9   -1510.2471752561      5.80E-09 Convergence criterion met
 Total energy in the final basis set = -1510.24717526
 Final energy is   -1510.24717525615
 **  OPTIMIZATION CONVERGED  **

                    Orbital Energies (a.u.)
 --------------------------------------------------------------

 Alpha MOs
 -- Occupied --
-18.941 -18.929 -18.916 -18.907 -18.903 -18.885 -18.884 -18.884
-18.871 -18.857 -10.108 -10.105 -10.097 -10.087 -10.070 -10.069
-10.067 -10.066 -10.056 -10.055 -10.054 -10.050 -10.044 -10.040
-10.034 -10.032 -10.027 -10.026 -10.019 -10.017  -1.019  -1.008
 -1.001  -0.995  -0.983  -0.967  -0.944  -0.933  -0.930  -0.919
 -0.768  -0.759  -0.727  -0.721  -0.713  -0.706  -0.694  -0.669
 -0.656  -0.610  -0.602  -0.578  -0.550  -0.547  -0.540  -0.533
 -0.517  -0.506  -0.475  -0.470  -0.468  -0.455  -0.450  -0.446
 -0.438  -0.429  -0.422  -0.417  -0.415  -0.410  -0.406  -0.399
 -0.393  -0.379  -0.376  -0.367  -0.360  -0.356  -0.351  -0.347
 -0.345  -0.343  -0.338  -0.333  -0.325  -0.325  -0.318  -0.317
 -0.310  -0.309  -0.303  -0.299  -0.295  -0.288  -0.285  -0.276
 -0.266  -0.263  -0.245  -0.244  -0.241  -0.230  -0.222  -0.185
 -0.174  -0.167  -0.161  -0.159  -0.154  -0.149  -0.147  -0.142
 -0.135

          Ground-State Mulliken Net Atomic Charges

     Atom                 Charge (a.u.)
  ----------------------------------------
      1 O                    -0.214203
      2 C                     0.209077
      3 C                    -0.085049
      4 C                    -0.083481
      5 C                     0.217263
      6 O                    -0.192017
      7 C                    -0.043799
      8 C                    -0.059956
      9 O                    -0.182971
     10 C                     0.218353
     11 C                    -0.078428
     12 C                    -0.078269
     13 C                     0.215808
     14 O                    -0.216331
     15 O                    -0.168157
     16 O                    -0.170859
     17 O                    -0.214772
     18 C                    -0.135001
     19 C                     0.023163
     20 C                    -0.146049
     21 C                    -0.142033
     22 C                     0.025282
     23 O                    -0.187028
     24 H                     0.085370
     25 H                     0.083713
     26 H                     0.083865
     27 H                     0.076042
     28 H                     0.073157
     29 H                     0.077460
     30 H                     0.073116
     31 H                     0.089650
     32 O                    -0.188750
     33 C                    -0.129200
     34 C                     0.025596
     35 C                    -0.143461
     36 C                    -0.143781
     37 C                     0.022778
     38 O                    -0.187718
     39 H                     0.089255
     40 H                     0.087655
     41 H                     0.090938
     42 H                     0.086451
     43 H                     0.081353
     44 H                     0.075817
     45 H                     0.078030
     46 H                     0.076840
     47 H                     0.091395
     48 H                     0.089467
     49 H                     0.091721
     50 H                     0.087189
     51 H                     0.085016
     52 H                     0.101950
     53 H                     0.091411
     54 H                     0.110584
     55 H                     0.094983
     56 H                     0.081565
  ----------------------------------------
  Sum of atomic charges =     0.000000

                    Cartesian Multipole Moments
 -----------------------------------------------------------------
    Charge (ESU x 10^10)
                -0.0000
    Dipole Moment (Debye)
         X      -1.7787      Y       1.2791      Z      -0.4783
       Tot       2.2425
    Quadrupole Moments (Debye-Ang)
        XX    -149.9687     XY       7.5767     YY    -150.1241
        XZ      15.0861     YZ      -7.7772     ZZ    -169.4215

 Total job time:  89.09s(wall), 4250.16s(cpu)
        *  Thank you very much for using Q-Chem.  Have a nice day.  *
