 Q-Chem 5.0, Q-Chem, Inc., Pleasanton, CA (2017)
 Q-Chem 5.0.1 for Intel X86 EM64T Linux

User input:
--------------------------------------------------------------
$molecule
0  1
O -3.4837758265 -1.6796237634 -0.353756838
C -4.0243338148 -0.5682252093 -0.5340418326
C -3.406313522 0.8695229697 -0.5881723794
C -2.617765508 1.4670545713 0.6600267854
C -2.409997131 0.7730350154 2.0872832899
O -2.7588612474 -0.5863499077 2.389553723
C -1.8668340943 -1.6754147937 1.921815487
C -0.8847550397 -1.4958646582 0.7217147961
O 0.2276612099 -0.5922878285 1.1184333521
C 1.3181732687 -0.7762075799 0.2047886953
C 2.4660419127 0.2264421527 0.5812539701
C 3.9104226019 -0.3145236638 0.2394068293
C 4.0792573534 -1.8704333705 0.1440264162
O 5.0300861875 -2.4763975152 -0.3981116941
O -5.4329547068 -0.4143225164 -0.7566036686
O 3.1012066544 -2.5024393103 0.9811125325
O 1.2857364275 -1.5515390153 -0.7745771704
C 3.2401663092 -3.9747526441 0.9249669845
C 2.3830146519 1.4140145303 -0.4831965973
C 3.4304510804 2.5413058888 -0.1182575219
C 4.7685805119 1.90839155 -0.6561483807
C 4.2601722591 0.4794084377 -1.090438798
O 2.9429149712 0.7756027801 -1.6968429996
H 2.3600861226 0.5612307892 1.6271317238
H 4.6070211911 0.0001269196 1.040735252
H 1.356759453 1.7700635348 -0.6892546605
H 3.1869135693 3.4815347613 -0.6377110397
H 3.4604840813 2.7351892188 0.966084934
H 5.1511958756 2.4605557964 -1.529509008
H 5.559876624 1.860986408 0.1091333532
H 4.9088559482 -0.07401313 -1.7969814402
O -2.1067739726 1.5274954265 3.0419990812
C -6.0991149326 -1.7374500463 -0.73303683
C -2.3059664719 1.0150379919 -1.7346829781
C -2.185414169 2.5402718763 -2.1270018123
C -1.3841137251 3.1083673193 -0.8961486619
C -1.2168517667 1.8085373096 -0.0173047567
O -1.0338130779 0.7452051962 -1.0323285453
H -4.261697588 1.5325106687 -0.8085061589
H -3.1101187693 2.4180494484 0.933174652
H -5.9807415669 -2.2352967433 0.2510550969
H -2.4316055394 0.3166096984 -2.5849454424
H -1.6159411368 2.6488363267 -3.0638413847
H -3.1699088895 3.0179819502 -2.2545086614
H -0.3986755154 3.4948256329 -1.2024048591
H -1.9248133794 3.9050931209 -0.3611714939
H -0.3697905422 1.8128054791 0.6941445446
H -5.6984618931 -2.4105876463 -1.5182148013
H -7.1705621885 -1.5424249392 -0.9227536202
H 2.3765926036 -4.403210959 0.3775533257
H 3.2489196908 -4.3637939487 1.9613568048
H 4.1832397106 -4.23788893 0.4043863441
H -0.4886857157 -2.4996541217 0.4580859564
H -1.390345173 -1.0711384292 -0.1690723673
H -2.5470719225 -2.5145812379 1.6624803176
H -1.2604142079 -1.9899522197 2.8038923647
$end

$rem
JOBTYPE                   OPT
METHOD                    B3LYP
DFT_D                     d3_op
BASIS                     STO-3G
GEOM_OPT_MAX_CYCLES       100
GEOM_OPT_TOL_GRADIENT     300
GEOM_OPT_TOL_DISPLACEMENT 1200
GEOM_OPT_TOL_ENERGY       100
SYMMETRY                  False
THRESH                    12
SCF_CONVERGENCE           8
MAX_SUB_FILE_NUM          128
MEM_STATIC                400
MEM_TOTAL                 4000
$end
--------------------------------------------------------------

   16   -1510.2472709404      4.42E-09 Convergence criterion met
 Total energy in the final basis set = -1510.24727094
   15   -1510.2478877966      6.06E-09 Convergence criterion met
 Total energy in the final basis set = -1510.24788780
   15   -1510.2549817382      3.03E-09 Convergence criterion met
 Total energy in the final basis set = -1510.25498174
   13   -1510.2598440220      7.95E-09 Convergence criterion met
 Total energy in the final basis set = -1510.25984402
   13   -1510.2625480947      8.01E-09 Convergence criterion met
 Total energy in the final basis set = -1510.26254809
   13   -1510.2658641540      7.11E-09 Convergence criterion met
 Total energy in the final basis set = -1510.26586415
   13   -1510.2688623378      6.39E-09 Convergence criterion met
 Total energy in the final basis set = -1510.26886234
   13   -1510.2719227140      7.05E-09 Convergence criterion met
   12   -1510.2965661209      1.88E-09 Convergence criterion met
 Total energy in the final basis set = -1510.29656612
   11   -1510.2965779858      4.49E-09 Convergence criterion met
 Total energy in the final basis set = -1510.29657799
   10   -1510.2965897163      7.42E-09 Convergence criterion met
 Total energy in the final basis set = -1510.29658972
    9   -1510.2965844369      6.24E-09 Convergence criterion met
 Total energy in the final basis set = -1510.29658444
    9   -1510.2965921960      3.52E-09 Convergence criterion met
 Total energy in the final basis set = -1510.29659220
    9   -1510.2965911626      4.48E-09 Convergence criterion met
 Total energy in the final basis set = -1510.29659116

             Standard Nuclear Orientation (Angstroms)
    I     Atom           X                Y                Z
 ----------------------------------------------------------------
    1      O       3.3886011188    -0.4693076762     2.4718790241
    2      C       3.7484781359     0.0050937525     1.3748164448
    3      C       3.2809914059     1.3541924859     0.7207271751
    4      C       2.7928690035     1.2116288207    -0.7805102504
    5      C       2.7031964242    -0.2628059229    -1.2962664003
    6      O       2.0758910071    -1.0553736532    -0.2793531382
    7      C       1.7732854999    -2.4134942584    -0.7902494533
    8      C       0.2537946083    -2.6971649908    -0.5374654699
    9      O      -0.5555506785    -1.5833548049    -1.0858348123
   10      C      -1.3026899352    -0.9646876539    -0.0206065747
   11      C      -2.1374511838     0.2194490956    -0.6110262917
   12      C      -3.7066984395     0.0127246593    -0.4822231306
   13      C      -4.1115814112    -1.3346153339     0.2090865587
   14      O      -4.9000445413    -1.4923350196     1.1652838133
   15      O       4.7285228541    -0.5910708558     0.5127147337
   16      O      -3.4258698027    -2.4031755954    -0.4608851876
   17      O      -1.2471648491    -1.3326714475     1.1734457709
   18      C      -3.6877109751    -3.6941321238     0.2152465509
   19      C      -1.9392576079     1.5324297891     0.2653734442
   20      C      -2.4743861391     2.7624797269    -0.5674130725
   21      C      -4.0318175011     2.5596865679    -0.4529809882
   22      C      -4.1021811616     1.2494086005     0.4253085087
   23      O      -2.9443637504     1.3778412975     1.3396206744
   24      H      -1.8376506157     0.3664716904    -1.6633160006
   25      H      -4.1906655682     0.0542649722    -1.4757398217
   26      H      -0.9016037468     1.6178760867     0.6714872118
   27      H      -2.1581046406     3.7097692224    -0.1022278331
   28      H      -2.1198420433     2.7469407076    -1.6105175733
   29      H      -4.5120617925     3.4010764521     0.0714927675
   30      H      -4.5183026953     2.4306906501    -1.4331588477
   31      H      -5.0374686912     1.0994558345     0.9993498179
   32      O       3.0363285097    -0.6900869322    -2.4231208931
   33      C       5.1724286655    -1.8865461301     1.0737430286
   34      C       1.9780024642     1.9145785302     1.4255869248
   35      C       1.8338895366     3.4448971146     1.0773132485
   36      C       1.4179078363     3.3719182256    -0.4398744092
   37      C       1.3275703355     1.8118231897    -0.6642935227
   38      O       0.8795653361     1.2902758787     0.6477768235
   39      H       4.1144154512     2.0778012766     0.7864805058
   40      H       3.4240109922     1.7858886489    -1.4806334261
   41      H       4.3155150504    -2.5662315569     1.2558343699
   42      H       1.8925821988     1.6421617660     2.4957456213
   43      H       1.0414166363     3.9041059509     1.6896243883
   44      H       2.7725365837     3.9993989586     1.2364759306
   45      H       0.4382191600     3.8433569424    -0.6167933549
   46      H       2.1601455191     3.8388489470    -1.1067192815
   47      H       0.6329833378     1.4879562341    -1.4633945357
   48      H       5.7213455821    -1.7517584230     2.0284533565
   49      H       5.8475718987    -2.3320095724     0.3200563008
   50      H      -2.7489620257    -4.0562912950     0.6800812465
   51      H      -4.0309390915    -4.4265101205    -0.5408601154
   52      H      -4.4618767660    -3.5527808909     0.9962489749
   53      H      -0.0429732486    -3.6410401834    -1.0422358745
   54      H       0.0395112954    -2.7623076611     0.5528255525
   55      H       2.3921292171    -3.1575398503    -0.2440672229
   56      H       2.0309726757    -2.4471596604    -1.8713383879
 ----------------------------------------------------------------

    9   -1510.2965913633      2.28E-09 Convergence criterion met
 Total energy in the final basis set = -1510.29659136
 Final energy is   -1510.29659136328
 **  OPTIMIZATION CONVERGED  **

                    Orbital Energies (a.u.)
 --------------------------------------------------------------

 Alpha MOs
 -- Occupied --
-18.934 -18.934 -18.929 -18.920 -18.908 -18.879 -18.877 -18.876
-18.874 -18.863 -10.103 -10.102 -10.096 -10.089 -10.071 -10.068
-10.067 -10.066 -10.061 -10.055 -10.048 -10.045 -10.043 -10.033
-10.032 -10.028 -10.027 -10.026 -10.012 -10.011  -1.018  -1.009
 -1.007  -0.997  -0.984  -0.957  -0.940  -0.937  -0.933  -0.923
 -0.771  -0.754  -0.733  -0.717  -0.715  -0.703  -0.690  -0.665
 -0.655  -0.614  -0.599  -0.575  -0.552  -0.546  -0.536  -0.527
 -0.516  -0.499  -0.489  -0.472  -0.470  -0.456  -0.445  -0.442
 -0.438  -0.424  -0.422  -0.418  -0.413  -0.410  -0.408  -0.402
 -0.397  -0.377  -0.373  -0.366  -0.363  -0.357  -0.351  -0.348
 -0.344  -0.343  -0.341  -0.332  -0.330  -0.324  -0.319  -0.315
 -0.311  -0.302  -0.299  -0.296  -0.295  -0.288  -0.279  -0.278
 -0.262  -0.256  -0.247  -0.244  -0.240  -0.236  -0.220  -0.180
 -0.177  -0.171  -0.163  -0.160  -0.158  -0.155  -0.152  -0.144
 -0.132

          Ground-State Mulliken Net Atomic Charges

     Atom                 Charge (a.u.)
  ----------------------------------------
      1 O                    -0.209612
      2 C                     0.217866
      3 C                    -0.077655
      4 C                    -0.076814
      5 C                     0.216547
      6 O                    -0.171700
      7 C                    -0.053538
      8 C                    -0.056762
      9 O                    -0.175299
     10 C                     0.218718
     11 C                    -0.079629
     12 C                    -0.077955
     13 C                     0.215450
     14 O                    -0.209079
     15 O                    -0.174225
     16 O                    -0.173229
     17 O                    -0.214468
     18 C                    -0.135778
     19 C                     0.006426
     20 C                    -0.146423
     21 C                    -0.144489
     22 C                     0.024226
     23 O                    -0.189791
     24 H                     0.080104
     25 H                     0.083361
     26 H                     0.108798
     27 H                     0.071844
     28 H                     0.067422
     29 H                     0.075783
     30 H                     0.070446
     31 H                     0.087730
     32 O                    -0.212981
     33 C                    -0.128023
     34 C                     0.027211
     35 C                    -0.143972
     36 C                    -0.145041
     37 C                     0.026434
     38 O                    -0.181946
     39 H                     0.085818
     40 H                     0.087829
     41 H                     0.088773
     42 H                     0.097702
     43 H                     0.081456
     44 H                     0.076002
     45 H                     0.080153
     46 H                     0.076323
     47 H                     0.085969
     48 H                     0.088175
     49 H                     0.090796
     50 H                     0.086121
     51 H                     0.084464
     52 H                     0.102990
     53 H                     0.081952
     54 H                     0.103981
     55 H                     0.081451
     56 H                     0.100087
  ----------------------------------------
  Sum of atomic charges =     0.000000

                    Cartesian Multipole Moments
 -----------------------------------------------------------------
    Charge (ESU x 10^10)
                -0.0000
    Dipole Moment (Debye)
         X       1.9936      Y       0.8486      Z      -2.3203
       Tot       3.1747
    Quadrupole Moments (Debye-Ang)
        XX    -155.6090     XY       0.8333     YY    -140.2463
        XZ      12.7793     YZ      -0.6635     ZZ    -172.1584

 Total job time:  188.20s(wall), 8984.79s(cpu)
        *  Thank you very much for using Q-Chem.  Have a nice day.  *
