 Q-Chem 5.0, Q-Chem, Inc., Pleasanton, CA (2017)
 Q-Chem 5.0.1 for Intel X86 EM64T Linux

User input:
--------------------------------------------------------------
$molecule
0  1
O -3.7580623739 -1.6472545618 1.4098176011
C -3.5088367773 -1.0960605098 0.3472368018
C -2.1329233174 -0.6727686022 -0.1178211562
C -1.8417858941 0.8360346681 -0.1687647987
C -2.8968035376 1.7466978331 0.4192177878
O -2.5419865271 3.0517265793 0.2283373715
C -1.1451500439 3.2229465315 -0.0339280348
C -0.3193776328 2.5816468825 1.0764662488
O -0.013048812 1.2206411554 0.7348347949
C 1.2965624826 0.8787759743 0.8196229857
C 1.5453810837 -0.5785084893 0.5113039639
C 2.4422404332 -0.8382431883 -0.7079081896
C 3.2335211872 0.3520349024 -1.2116951518
O 3.8189533609 0.411771093 -2.2832670251
O -4.6758044906 -0.9470069934 -0.4216660471
O 3.5895230151 1.3335936247 -0.3419297362
O 2.062221678 1.5229153725 1.5350090847
C 4.3842254631 2.4236431309 -0.6389871663
C 2.5001532756 -1.1042465169 1.6706584385
C 2.5283690506 -2.6360156903 1.8286564698
C 3.1864643949 -3.0135959478 0.5199970745
C 3.5999145309 -1.6178177358 0.0168325644
O 3.7933406189 -0.8788776029 1.1923747308
H 1.0628473253 -1.5678572547 0.4481119838
H 2.1989162104 -1.5824582272 -1.4917124609
H 2.2803409544 -0.6616259849 2.6683451437
H 3.2283037821 -2.855373604 2.6677449443
H 1.5557552467 -3.1353629358 2.0292065286
H 4.0651913079 -3.6560179823 0.7493450522
H 2.5256925038 -3.5175318032 -0.2180417877
H 4.5058090407 -1.7259663836 -0.6249803349
O -3.9897824279 1.4418374666 0.8672523141
C -5.9478320296 -1.332317434 -0.0463957971
C -1.8873377548 -1.5567497152 -1.3572771801
C -1.3134214283 -0.7902005092 -2.5778671745
C -0.1803016584 -0.1510168212 -1.8184535563
C -0.7458404833 -0.5596118311 -0.3545767324
O -0.8923257496 -1.9409520479 -0.6861775046
H -2.8614422261 -0.3033250338 -0.8991683288
H -1.9241440455 1.2920516313 -1.2112994707
H -6.2543351606 -0.7909898817 0.873804851
H -2.6002353472 -2.3907630833 -1.581230455
H -0.9700137755 -1.4656293908 -3.3957058007
H -2.0716773529 -0.0796750682 -2.9727989485
H 0.048161729 0.9129235046 -2.0451555759
H 0.6382260035 -0.7063127379 -2.2385176807
H -0.4837881957 -0.7521903514 0.9673580344
H -5.9777457577 -2.42814679 0.1323341856
H -6.6582134269 -1.0833935948 -0.8610783436
H 4.4919545604 3.0520429712 0.2686625737
H 3.9132220348 3.0313579882 -1.440870495
H 5.3926040586 2.0876282393 -0.9619683328
H 0.5965486401 3.2111258668 1.1529378351
H -0.8381875613 2.6522573455 2.0573468384
H -0.9999711925 4.3207535896 0.0628665822
H -0.7913737573 3.0275646952 -1.0701255934
$end

$rem
JOBTYPE                   OPT
METHOD                    B3LYP
DFT_D                     d3_op
BASIS                     STO-3G
GEOM_OPT_MAX_CYCLES       100
GEOM_OPT_TOL_GRADIENT     300
GEOM_OPT_TOL_DISPLACEMENT 1200
GEOM_OPT_TOL_ENERGY       100
SYMMETRY                  False
THRESH                    12
SCF_CONVERGENCE           8
MAX_SUB_FILE_NUM          128
MEM_STATIC                400
MEM_TOTAL                 4000
$end
--------------------------------------------------------------

   19   -1509.2772026014      3.67E-09 Convergence criterion met
 Total energy in the final basis set = -1509.27720260
   16   -1509.4144321557      8.55E-09 Convergence criterion met
 Total energy in the final basis set = -1509.41443216
   14   -1509.5284620618      7.97E-09 Convergence criterion met
 Total energy in the final basis set = -1509.52846206
   14   -1509.6173814508      6.01E-09 Convergence criterion met
 Total energy in the final basis set = -1509.61738145
   15   -1509.6882247930      2.91E-09 Convergence criterion met
 Total energy in the final basis set = -1509.68822479
   15   -1509.7437189948      2.51E-09 Convergence criterion met
 Total energy in the final basis set = -1509.74371899
   14   -1509.7869753544      8.47E-09 Convergence criterion met
 Total energy in the final basis set = -1509.78697535
   14   -1509.8210761924      6.01E-09 Convergence criterion met
   11   -1510.2407588631      6.88E-09 Convergence criterion met
 Total energy in the final basis set = -1510.24075886
    9   -1510.2407634778      9.94E-09 Convergence criterion met
 Total energy in the final basis set = -1510.24076348
    9   -1510.2407602756      8.37E-09 Convergence criterion met
 Total energy in the final basis set = -1510.24076028
    9   -1510.2407543112      9.21E-09 Convergence criterion met
 Total energy in the final basis set = -1510.24075431
    9   -1510.2407508950      5.20E-09 Convergence criterion met
 Total energy in the final basis set = -1510.24075090
    9   -1510.2407520912      3.64E-09 Convergence criterion met
 Total energy in the final basis set = -1510.24075209

             Standard Nuclear Orientation (Angstroms)
    I     Atom           X                Y                Z
 ----------------------------------------------------------------
    1      O      -2.9562173558    -2.5418322150     0.4703577775
    2      C      -3.0252606699    -1.4256659763    -0.0838659978
    3      C      -2.0907878640    -0.8406712230    -1.2088708531
    4      C      -1.6479309420     0.6269627634    -0.8845526122
    5      C      -1.5582535383     0.8428134608     0.6812872220
    6      O      -1.8244563553     2.1596027545     1.2194826843
    7      C      -1.2322863425     3.2392467260     0.4091614662
    8      C       0.3390456163     3.1969385899     0.5574129015
    9      O       0.7280820822     1.7760304490     0.4486743929
   10      C       1.4493206964     1.3263756159     1.6194641551
   11      C       1.5427859509    -0.2286533576     1.5098553471
   12      C       2.0023456429    -0.7405516952     0.0814166301
   13      C       2.3099242149     0.4126005912    -0.9290687397
   14      O       1.7734983767     0.6117283147    -2.0465948645
   15      O      -4.0462483338    -0.4516862351     0.1855945298
   16      O       3.3587674545     1.2253591120    -0.4012341880
   17      O       1.8250428954     2.0835667044     2.5348899686
   18      C       3.6647870170     2.3326824853    -1.3352767182
   19      C       2.6648830462    -0.8415673580     2.4397036633
   20      C       2.3923285576    -2.3892452280     2.5850798331
   21      C       2.8393995457    -2.9095371245     1.1676114811
   22      C       3.3030724396    -1.5649049624     0.4790474061
   23      O       3.8806524306    -0.7805728455     1.5929288070
   24      H       0.5251227221    -0.6081881907     1.7454337191
   25      H       1.2343734941    -1.3856854344    -0.3750411189
   26      H       2.8210433381    -0.2862148795     3.3850351860
   27      H       3.0154247891    -2.8166706302     3.3865925319
   28      H       1.3342740950    -2.6050867171     2.8038759764
   29      H       3.6837938956    -3.6129734844     1.2427618492
   30      H       2.0199926576    -3.3984336232     0.6165354937
   31      H       4.0413415343    -1.6824340324    -0.3377108070
   32      O      -1.4532297657    -0.1012843354     1.4997075403
   33      C      -4.9290763232    -0.9377098090     1.2683967389
   34      C      -2.6774077979    -1.1798000957    -2.6431983970
   35      C      -1.5553254286    -0.6787016515    -3.6335392960
   36      C      -0.3128844670    -1.3197742236    -2.9010162577
   37      C      -1.0911838831    -1.9699305702    -1.6960390086
   38      O      -2.2700445665    -2.6143511918    -2.3967835686
   39      H      -2.3944932143     1.3228861946    -1.3049851584
   40      H      -0.6678956660     0.8471886781    -1.3409011534
   41      H      -4.3768519460    -1.0353663352     2.2257298761
   42      H      -3.7398921028    -1.0112339906    -2.9074036151
   43      H      -1.7096265769    -1.0855674790    -4.6458196522
   44      H      -1.5023931173     0.4206137009    -3.6954798762
   45      H       0.4561272724    -0.5787363161    -2.5927241433
   46      H       0.1636580953    -2.1025843700    -3.5122850806
   47      H      -0.5516053914    -2.6246517769    -0.9844315978
   48      H      -5.3788086601    -1.9205584986     1.0197694936
   49      H      -5.7271618871    -0.1805846199     1.3781940836
   50      H       4.4349693892     2.9475814073    -0.8346865831
   51      H       2.7676639355     2.9508916509    -1.5411205392
   52      H       4.0599079426     1.9540848217    -2.3000248202
   53      H       0.8266383926     3.7782860685    -0.2528740222
   54      H       0.6693666161     3.5805334602     1.5465482462
   55      H      -1.6282111016     4.1888382672     0.8231289897
   56      H      -1.5174056041     3.1747054014    -0.6618353961
 ----------------------------------------------------------------

    8   -1510.2407511897      9.83E-09 Convergence criterion met
 Total energy in the final basis set = -1510.24075119
 Final energy is   -1510.24075118972
 **  OPTIMIZATION CONVERGED  **

                    Orbital Energies (a.u.)
 --------------------------------------------------------------

 Alpha MOs
 -- Occupied --
-18.949 -18.948 -18.933 -18.921 -18.899 -18.890 -18.888 -18.879
-18.867 -18.865 -10.116 -10.114 -10.108 -10.089 -10.087 -10.083
-10.074 -10.064 -10.060 -10.056 -10.048 -10.045 -10.043 -10.039
-10.036 -10.033 -10.021 -10.019 -10.008  -9.993  -1.033  -1.021
 -1.009  -1.000  -0.972  -0.962  -0.956  -0.947  -0.941  -0.925
 -0.769  -0.755  -0.730  -0.717  -0.711  -0.706  -0.670  -0.660
 -0.653  -0.633  -0.621  -0.594  -0.550  -0.539  -0.529  -0.528
 -0.519  -0.506  -0.494  -0.479  -0.477  -0.457  -0.449  -0.442
 -0.435  -0.434  -0.426  -0.421  -0.416  -0.412  -0.408  -0.405
 -0.395  -0.386  -0.383  -0.379  -0.377  -0.364  -0.357  -0.356
 -0.352  -0.342  -0.334  -0.330  -0.324  -0.319  -0.313  -0.310
 -0.307  -0.304  -0.302  -0.297  -0.293  -0.288  -0.287  -0.280
 -0.261  -0.260  -0.255  -0.251  -0.243  -0.235  -0.220  -0.197
 -0.189  -0.176  -0.174  -0.168  -0.161  -0.154  -0.146  -0.143
 -0.124

          Ground-State Mulliken Net Atomic Charges

     Atom                 Charge (a.u.)
  ----------------------------------------
      1 O                    -0.209820
      2 C                     0.213945
      3 C                    -0.001842
      4 C                    -0.163876
      5 C                     0.223036
      6 O                    -0.174056
      7 C                    -0.046948
      8 C                    -0.057008
      9 O                    -0.181795
     10 C                     0.224298
     11 C                    -0.083955
     12 C                    -0.080825
     13 C                     0.220419
     14 O                    -0.218365
     15 O                    -0.179287
     16 O                    -0.163668
     17 O                    -0.199617
     18 C                    -0.126938
     19 C                     0.024618
     20 C                    -0.143538
     21 C                    -0.143456
     22 C                     0.026223
     23 O                    -0.186623
     24 H                     0.107719
     25 H                     0.089347
     26 H                     0.090576
     27 H                     0.078755
     28 H                     0.079501
     29 H                     0.078659
     30 H                     0.075916
     31 H                     0.082823
     32 O                    -0.213901
     33 C                    -0.128710
     34 C                     0.012037
     35 C                    -0.143712
     36 C                    -0.162718
     37 C                     0.012196
     38 O                    -0.186093
     39 H                     0.086326
     40 H                     0.099114
     41 H                     0.090131
     42 H                     0.077962
     43 H                     0.074506
     44 H                     0.068344
     45 H                     0.096775
     46 H                     0.069598
     47 H                     0.078159
     48 H                     0.088909
     49 H                     0.087341
     50 H                     0.094979
     51 H                     0.085915
     52 H                     0.090693
     53 H                     0.084771
     54 H                     0.104721
     55 H                     0.094584
     56 H                     0.083855
  ----------------------------------------
  Sum of atomic charges =     0.000000

                    Cartesian Multipole Moments
 -----------------------------------------------------------------
    Charge (ESU x 10^10)
                 0.0000
    Dipole Moment (Debye)
         X       0.6360      Y       3.2794      Z      -1.4962
       Tot       3.6603
    Quadrupole Moments (Debye-Ang)
        XX    -159.1496     XY      -7.8631     YY    -155.4286
        XZ      -5.1953     YZ      -8.5732     ZZ    -165.6751

 Total job time:  277.73s(wall), 13261.62s(cpu)
        *  Thank you very much for using Q-Chem.  Have a nice day.  *
