 Q-Chem 5.0, Q-Chem, Inc., Pleasanton, CA (2017)
 Q-Chem 5.0.1 for Intel X86 EM64T Linux

User input:
--------------------------------------------------------------
$molecule
0  1
O -7.0213914437 1.4622954581 -0.2199797377
C -5.8342060918 1.1487858935 -0.4617768677
C -5.2692577389 -0.3168240321 -0.4428243815
C -3.7303052809 -0.5709362863 -0.676250954
C -2.7698732816 0.5497378974 -0.1276250899
O -1.4303746736 0.1448611231 -0.4567801866
C -0.4490593703 0.8216343152 0.4241042899
C 0.5309628961 -0.248560107 1.012466477
O 1.573031033 -0.5846773895 0.0126548132
C 2.8766878113 -0.2805168476 0.5247305693
C 3.9303520377 -0.8403529197 -0.4841917362
C 5.1028721758 0.1795279194 -0.8024484797
C 4.9499825028 1.5455104501 -0.0427509114
O 5.7389768738 2.0570077419 0.7779002874
O -4.891495337 2.0435750758 -1.0572582018
O 3.7210093675 2.147470928 -0.4755047846
O 3.0882546491 0.2875720668 1.6200696555
C 3.4481321933 3.3689451177 0.3137551103
C 4.7565940929 -2.0428889659 0.1543000702
C 5.5099127218 -2.7922189842 -1.0155023887
C 6.6745060868 -1.779722388 -1.3254770517
C 6.362866634 -0.630836027 -0.2895754797
O 5.8415464439 -1.3601124208 0.8913748711
H 3.398278784 -1.1530991176 -1.3992834207
H 5.1556633063 0.3842814878 -1.8873377693
H 4.17312957 -2.6937004818 0.8343195098
H 5.8983375223 -3.7614461327 -0.664250296
H 4.8547570905 -2.9669646493 -1.8839372464
H 7.6610782895 -2.2249635075 -1.1211872957
H 6.6582889204 -1.4173677254 -2.3658438498
H 7.2204540748 0.0067870662 0.0002272722
O -3.0355277856 1.4967783839 0.6422158229
C -5.4869095859 3.3926613703 -1.1887573295
C -5.5432984393 -1.1690333161 0.8779299328
C -5.8134458369 -2.6498654458 0.4083474962
C -4.3853641372 -3.0407923888 -0.1286267769
C -3.5254610994 -1.7933773152 0.3256325621
O -4.2203203707 -1.2857426635 1.535121825
H -5.8101205769 -0.8098194259 -1.2742974525
H -3.4858874769 -0.8147518159 -1.7249819079
H -5.7260268427 3.82980215 -0.1981661012
H -6.2927690255 -0.7336129466 1.5670462301
H -6.1036500024 -3.2768081486 1.266944608
H -6.5971104924 -2.7153777108 -0.3633007524
H -4.008644719 -3.9633400191 0.3402877603
H -4.3670999234 -3.1696002001 -1.2229743365
H -2.462512313 -2.0109161562 0.5471875433
H -6.4131212906 3.3727820088 -1.7990107465
H -4.7222600505 4.0131478185 -1.6910445889
H 2.5387166476 3.8207453739 -0.1236744649
H 4.2873106684 4.0916423931 0.2586851213
H 3.2633846725 3.119633177 1.3791983437
H 1.0395135899 0.1547527432 1.9170957925
H -0.0247982458 -1.1752729677 1.2683511891
H -1.0001303519 1.3543614579 1.2306333368
H 0.1294996431 1.5683497464 -0.1623747434
$end

$rem
JOBTYPE                   OPT
METHOD                    B3LYP
DFT_D                     d3_op
BASIS                     STO-3G
GEOM_OPT_MAX_CYCLES       100
GEOM_OPT_TOL_GRADIENT     300
GEOM_OPT_TOL_DISPLACEMENT 1200
GEOM_OPT_TOL_ENERGY       100
SYMMETRY                  False
THRESH                    12
SCF_CONVERGENCE           8
MAX_SUB_FILE_NUM          128
MEM_STATIC                400
MEM_TOTAL                 4000
$end
--------------------------------------------------------------

   16   -1510.2712776092      5.18E-09 Convergence criterion met
 Total energy in the final basis set = -1510.27127761
   14   -1510.2748812218      5.31E-09 Convergence criterion met
 Total energy in the final basis set = -1510.27488122
   13   -1510.2771901544      3.10E-09 Convergence criterion met
 Total energy in the final basis set = -1510.27719015
   13   -1510.2793279546      4.33E-09 Convergence criterion met
 Total energy in the final basis set = -1510.27932795
   13   -1510.2811600615      5.62E-09 Convergence criterion met
 Total energy in the final basis set = -1510.28116006
   13   -1510.2828542522      8.05E-09 Convergence criterion met
 Total energy in the final basis set = -1510.28285425
   13   -1510.2841948623      6.45E-09 Convergence criterion met
 Total energy in the final basis set = -1510.28419486
   13   -1510.2852368270      4.50E-09 Convergence criterion met
   13   -1510.2891908079      6.37E-09 Convergence criterion met
 Total energy in the final basis set = -1510.28919081
   13   -1510.2893559773      2.93E-09 Convergence criterion met
 Total energy in the final basis set = -1510.28935598
   12   -1510.2893988271      6.86E-09 Convergence criterion met
 Total energy in the final basis set = -1510.28939883
   12   -1510.2894050959      2.70E-09 Convergence criterion met
 Total energy in the final basis set = -1510.28940510
   10   -1510.2894097744      6.47E-09 Convergence criterion met
 Total energy in the final basis set = -1510.28940977
   10   -1510.2894201951      7.27E-09 Convergence criterion met
 Total energy in the final basis set = -1510.28942020

             Standard Nuclear Orientation (Angstroms)
    I     Atom           X                Y                Z
 ----------------------------------------------------------------
    1      O      -5.7974785669     0.6378054203     1.6158740781
    2      C      -5.1860103460     0.8331519823     0.5446791201
    3      C      -4.6937409354    -0.2509547770    -0.4852985268
    4      C      -3.1210768574    -0.3760283222    -0.6090589341
    5      C      -2.3614683206     0.5044283266     0.4343759600
    6      O      -0.9855774020     0.5815631141     0.0536749113
    7      C      -0.2077268177     1.3146778955     1.0814657304
    8      C       0.5474975900     0.3014555420     2.0146907775
    9      O       1.3995979477    -0.6296446799     1.2347670998
   10      C       2.5757404451     0.0429356765     0.7753860479
   11      C       3.4142960971    -0.9440737432    -0.0995010087
   12      C       4.3043746767    -0.1916162970    -1.1716245082
   13      C       4.0745517169     1.3635972926    -1.2161326039
   14      O       4.9013398886     2.2636101392    -0.9618890428
   15      O      -4.9331411149     2.1268993587    -0.0245260512
   16      O       2.7424504939     1.5946715986    -1.7014765087
   17      O       2.8639297767     1.2276311153     1.0597754454
   18      C       2.4476092593     3.0441557037    -1.6883851934
   19      C       4.5446290714    -1.6475281364     0.7742008733
   20      C       5.1660056028    -2.8312916747    -0.0690160508
   21      C       6.0715133006    -2.0413272465    -1.0859563057
   22      C       5.7631657882    -0.5510973537    -0.6682117007
   23      O       5.6177053728    -0.6303933067     0.8051072492
   24      H       2.7337351984    -1.6815211340    -0.5596449689
   25      H       4.1127556761    -0.5967830837    -2.1817064244
   26      H       4.2287367059    -1.9165105332     1.8011086905
   27      H       5.7634013547    -3.4919013139     0.5794509070
   28      H       4.3907134462    -3.4341817311    -0.5686864872
   29      H       7.1386530302    -2.2719822013    -0.9386689840
   30      H       5.8068356384    -2.2404993491    -2.1365512652
   31      H       6.5303853523     0.1998809828    -0.9391841948
   32      O      -2.8417405946     1.0466559752     1.4563392954
   33      C      -5.3321029206     3.1788772103     0.9357272855
   34      C      -5.0814063064    -1.7158693964    -0.0171447217
   35      C      -5.0097044029    -2.6716395891    -1.2712850663
   36      C      -3.4527174319    -2.7806363954    -1.4761531783
   37      C      -2.9214911177    -1.9178510115    -0.2632518797
   38      O      -3.9222711824    -2.1436835789     0.8020855171
   39      H      -5.1372475812    -0.0111635998    -1.4683699929
   40      H      -2.7533418895    -0.1344632265    -1.6219813651
   41      H      -4.7285620436     3.1228226371     1.8648201215
   42      H      -6.0123293758    -1.7661357460     0.5802420960
   43      H      -5.4536642000    -3.6517427945    -1.0344058020
   44      H      -5.5275688174    -2.2508304827    -2.1479731238
   45      H      -3.1035219854    -3.8217978402    -1.3891617209
   46      H      -3.1220496226    -2.3766384265    -2.4462349327
   47      H      -1.9039857745    -2.1761505500     0.0902409674
   48      H      -6.4049486266     3.1019613178     1.2070416064
   49      H      -5.1460065317     4.1442907365     0.4300352228
   50      H       1.4207282722     3.1518827347    -2.0841169306
   51      H       3.1533288026     3.6145651116    -2.3263045628
   52      H       2.4949184679     3.4535192183    -0.6581667551
   53      H       1.1512280942     0.8728411263     2.7529722948
   54      H      -0.1828346170    -0.3397254558     2.5478651459
   55      H      -0.8952302861     1.9371433050     1.6942644015
   56      H       0.5245354487     1.9514486842     0.5463076262
 ----------------------------------------------------------------

   10   -1510.2894196429      8.65E-09 Convergence criterion met
 Total energy in the final basis set = -1510.28941964
 Final energy is   -1510.28941964286
 **  OPTIMIZATION CONVERGED  **

                    Orbital Energies (a.u.)
 --------------------------------------------------------------

 Alpha MOs
 -- Occupied --
-18.942 -18.942 -18.924 -18.921 -18.888 -18.888 -18.886 -18.881
-18.869 -18.863 -10.107 -10.105 -10.094 -10.091 -10.079 -10.075
-10.063 -10.063 -10.059 -10.057 -10.057 -10.056 -10.042 -10.040
-10.035 -10.034 -10.022 -10.022 -10.020 -10.020  -1.024  -1.017
 -1.003  -0.999  -0.971  -0.971  -0.947  -0.940  -0.930  -0.926
 -0.765  -0.763  -0.730  -0.723  -0.715  -0.706  -0.698  -0.659
 -0.656  -0.624  -0.599  -0.582  -0.547  -0.545  -0.539  -0.537
 -0.516  -0.507  -0.484  -0.468  -0.459  -0.457  -0.454  -0.454
 -0.441  -0.432  -0.431  -0.419  -0.410  -0.408  -0.406  -0.403
 -0.396  -0.383  -0.374  -0.365  -0.362  -0.356  -0.354  -0.347
 -0.343  -0.343  -0.341  -0.334  -0.333  -0.327  -0.326  -0.313
 -0.311  -0.305  -0.304  -0.303  -0.297  -0.282  -0.279  -0.277
 -0.271  -0.262  -0.251  -0.248  -0.246  -0.235  -0.235  -0.195
 -0.175  -0.170  -0.166  -0.163  -0.159  -0.147  -0.146  -0.145
 -0.143

          Ground-State Mulliken Net Atomic Charges

     Atom                 Charge (a.u.)
  ----------------------------------------
      1 O                    -0.214741
      2 C                     0.215861
      3 C                    -0.081043
      4 C                    -0.077495
      5 C                     0.214660
      6 O                    -0.170066
      7 C                    -0.056304
      8 C                    -0.049912
      9 O                    -0.169120
     10 C                     0.213944
     11 C                    -0.078289
     12 C                    -0.079949
     13 C                     0.215316
     14 O                    -0.210934
     15 O                    -0.177432
     16 O                    -0.177511
     17 O                    -0.213451
     18 C                    -0.129629
     19 C                     0.025567
     20 C                    -0.143738
     21 C                    -0.143755
     22 C                     0.024613
     23 O                    -0.187582
     24 H                     0.087693
     25 H                     0.083901
     26 H                     0.083006
     27 H                     0.078482
     28 H                     0.073728
     29 H                     0.078400
     30 H                     0.073161
     31 H                     0.090747
     32 O                    -0.209931
     33 C                    -0.128626
     34 C                     0.024660
     35 C                    -0.143731
     36 C                    -0.143853
     37 C                     0.025047
     38 O                    -0.189493
     39 H                     0.083704
     40 H                     0.088219
     41 H                     0.091290
     42 H                     0.090478
     43 H                     0.078206
     44 H                     0.073364
     45 H                     0.078141
     46 H                     0.073855
     47 H                     0.084526
     48 H                     0.087100
     49 H                     0.086154
     50 H                     0.087096
     51 H                     0.088130
     52 H                     0.090460
     53 H                     0.095492
     54 H                     0.093533
     55 H                     0.101664
     56 H                     0.096387
  ----------------------------------------
  Sum of atomic charges =    -0.000000

                    Cartesian Multipole Moments
 -----------------------------------------------------------------
    Charge (ESU x 10^10)
                -0.0000
    Dipole Moment (Debye)
         X      -0.5459      Y      -1.3129      Z      -3.0130
       Tot       3.3317
    Quadrupole Moments (Debye-Ang)
        XX    -174.2996     XY     -13.3672     YY    -152.8515
        XZ       5.3170     YZ       3.2287     ZZ    -159.1327

 Total job time:  71.66s(wall), 3408.97s(cpu)
        *  Thank you very much for using Q-Chem.  Have a nice day.  *
