 Q-Chem 5.0, Q-Chem, Inc., Pleasanton, CA (2017)
 Q-Chem 5.0.1 for Intel X86 EM64T Linux

User input:
--------------------------------------------------------------
$molecule
0  1
O -3.94934 -3.66094 2.70899
C -3.26408 -4.56952 2.26188
C -3.36658 -6.02376 2.66595
C -2.34848 -6.99752 2.05024
C -1.23128 -6.38077 1.23809
O -0.423 -7.36266 0.74009
C 0.88362 -6.89339 0.39113
C 1.94783 -7.80215 0.99755
O 2.10484 -8.97899 0.18929
C 3.34377 -9.16999 -0.32812
C 3.49792 -10.51051 -1.00628
C 4.19903 -10.46828 -2.37191
C 4.94661 -9.18936 -2.6916
O 6.14481 -9.1069 -2.91983
O -2.8542 -4.33836 0.98125
O 4.17966 -8.07672 -2.84546
O 4.31342 -8.46117 -0.07992
C 4.67106 -6.83041 -3.17249
C 4.43007 -11.47976 -0.24774
C 4.06969 -12.9191 -0.61036
C 4.53517 -12.97028 -2.05207
C 5.22241 -11.60258 -2.1661
O 5.68622 -11.33745 -0.86468
H 2.49057 -10.98449 -1.06929
H 3.49511 -10.65228 -3.21293
H 4.40714 -11.34104 0.8554
H 4.73106 -13.57413 0.00147
H 3.01194 -13.21639 -0.44398
H 5.26474 -13.80376 -2.15479
H 3.72689 -13.07122 -2.80865
H 5.99548 -11.62756 -2.96543
O -0.75629 -5.30863 1.6052
C -2.87139 -3.11553 0.33819
C -3.05282 -6.20143 4.16408
C -3.66886 -7.50265 4.67661
C -2.75156 -8.51975 4.03285
C -1.74821 -7.59036 3.34334
O -1.67563 -6.47745 4.19939
H -4.41786 -6.3315 2.46861
H -2.82963 -7.77919 1.42064
H -2.23828 -2.38721 0.88868
H -3.39552 -5.34697 4.78831
H -3.51369 -7.5349 5.7789
H -4.75025 -7.62748 4.45315
H -2.2451 -9.09557 4.83942
H -3.23936 -9.21714 3.31795
H -0.79143 -8.12941 3.16768
H -3.91154 -2.73211 0.2652
H -2.46578 -3.23907 -0.68672
H 3.82851 -6.11109 -3.22886
H 5.17892 -6.86561 -4.15995
H 5.38468 -6.48513 -2.39412
H 2.87319 -7.18908 1.06574
H 1.6833 -8.0656 2.04377
H 1.14151 -5.86489 0.72213
H 1.00763 -6.87789 -0.71319
$end

$opt
CONSTRAINT
tors           1           2           3           4    -176.113
tors           3           4           5           6    -179.040
tors           4           5           6           7    -158.591
tors           5           6           7           8    +130.521
tors           6           7           8           9     +80.275
tors           7           8           9          10    +119.903
tors           8           9          10          11    +172.125
tors           9          10          11          12    +134.779
tors          11          12          13          14    +119.632
ENDCONSTRAINT
$end

$rem
JOBTYPE                   OPT
METHOD                    B3LYP
DFT_D                     d3_op
BASIS                     STO-3G
GEOM_OPT_MAX_CYCLES       100
GEOM_OPT_TOL_GRADIENT     300
GEOM_OPT_TOL_DISPLACEMENT 1200
GEOM_OPT_TOL_ENERGY       100
SYMMETRY                  False
THRESH                    12
SCF_CONVERGENCE           8
MAX_SUB_FILE_NUM          128
MEM_STATIC                400
MEM_TOTAL                 4000
$end
--------------------------------------------------------------

   15   -1510.1187843478      7.38E-09 Convergence criterion met
 Total energy in the final basis set = -1510.11878435
   14   -1510.1916788389      6.71E-09 Convergence criterion met
 Total energy in the final basis set = -1510.19167884
   14   -1510.2321874033      6.80E-09 Convergence criterion met
 Total energy in the final basis set = -1510.23218740
   14   -1510.2519333396      7.54E-09 Convergence criterion met
 Total energy in the final basis set = -1510.25193334
   14   -1510.2606718071      5.09E-09 Convergence criterion met
 Total energy in the final basis set = -1510.26067181
    2   -1510.2606718070      2.43E-09 Convergence criterion met
 Total energy in the final basis set = -1510.26067181
   13   -1510.2650873548      5.23E-09 Convergence criterion met
 Total energy in the final basis set = -1510.26508735
   13   -1510.2674063904      2.15E-09 Convergence criterion met
   12   -1510.2710800637      4.43E-09 Convergence criterion met
 Total energy in the final basis set = -1510.27108006
   11   -1510.2711476974      8.60E-09 Convergence criterion met
 Total energy in the final basis set = -1510.27114770
   11   -1510.2711911147      4.27E-09 Convergence criterion met
 Total energy in the final basis set = -1510.27119111
   11   -1510.2712287190      3.38E-09 Convergence criterion met
 Total energy in the final basis set = -1510.27122872
   11   -1510.2712497477      4.18E-09 Convergence criterion met
 Total energy in the final basis set = -1510.27124975
   11   -1510.2712572417      3.07E-09 Convergence criterion met
 Total energy in the final basis set = -1510.27125724

             Standard Nuclear Orientation (Angstroms)
    I     Atom           X                Y                Z
 ----------------------------------------------------------------
    1      O      -7.0213914437     1.4622954581    -0.2199797377
    2      C      -5.8342060918     1.1487858935    -0.4617768677
    3      C      -5.2692577389    -0.3168240321    -0.4428243815
    4      C      -3.7303052809    -0.5709362863    -0.6762509540
    5      C      -2.7698732816     0.5497378974    -0.1276250899
    6      O      -1.4303746736     0.1448611231    -0.4567801866
    7      C      -0.4490593703     0.8216343152     0.4241042899
    8      C       0.5309628961    -0.2485601070     1.0124664770
    9      O       1.5730310330    -0.5846773895     0.0126548132
   10      C       2.8766878113    -0.2805168476     0.5247305693
   11      C       3.9303520377    -0.8403529197    -0.4841917362
   12      C       5.1028721758     0.1795279194    -0.8024484797
   13      C       4.9499825028     1.5455104501    -0.0427509114
   14      O       5.7389768738     2.0570077419     0.7779002874
   15      O      -4.8914953370     2.0435750758    -1.0572582018
   16      O       3.7210093675     2.1474709280    -0.4755047846
   17      O       3.0882546491     0.2875720668     1.6200696555
   18      C       3.4481321933     3.3689451177     0.3137551103
   19      C       4.7565940929    -2.0428889659     0.1543000702
   20      C       5.5099127218    -2.7922189842    -1.0155023887
   21      C       6.6745060868    -1.7797223880    -1.3254770517
   22      C       6.3628666340    -0.6308360270    -0.2895754797
   23      O       5.8415464439    -1.3601124208     0.8913748711
   24      H       3.3982787840    -1.1530991176    -1.3992834207
   25      H       5.1556633063     0.3842814878    -1.8873377693
   26      H       4.1731295700    -2.6937004818     0.8343195098
   27      H       5.8983375223    -3.7614461327    -0.6642502960
   28      H       4.8547570905    -2.9669646493    -1.8839372464
   29      H       7.6610782895    -2.2249635075    -1.1211872957
   30      H       6.6582889204    -1.4173677254    -2.3658438498
   31      H       7.2204540748     0.0067870662     0.0002272722
   32      O      -3.0355277856     1.4967783839     0.6422158229
   33      C      -5.4869095859     3.3926613703    -1.1887573295
   34      C      -5.5432984393    -1.1690333161     0.8779299328
   35      C      -5.8134458369    -2.6498654458     0.4083474962
   36      C      -4.3853641372    -3.0407923888    -0.1286267769
   37      C      -3.5254610994    -1.7933773152     0.3256325621
   38      O      -4.2203203707    -1.2857426635     1.5351218250
   39      H      -5.8101205769    -0.8098194259    -1.2742974525
   40      H      -3.4858874769    -0.8147518159    -1.7249819079
   41      H      -5.7260268427     3.8298021500    -0.1981661012
   42      H      -6.2927690255    -0.7336129466     1.5670462301
   43      H      -6.1036500024    -3.2768081486     1.2669446080
   44      H      -6.5971104924    -2.7153777108    -0.3633007524
   45      H      -4.0086447190    -3.9633400191     0.3402877603
   46      H      -4.3670999234    -3.1696002001    -1.2229743365
   47      H      -2.4625123130    -2.0109161562     0.5471875433
   48      H      -6.4131212906     3.3727820088    -1.7990107465
   49      H      -4.7222600505     4.0131478185    -1.6910445889
   50      H       2.5387166476     3.8207453739    -0.1236744649
   51      H       4.2873106684     4.0916423931     0.2586851213
   52      H       3.2633846725     3.1196331770     1.3791983437
   53      H       1.0395135899     0.1547527432     1.9170957925
   54      H      -0.0247982458    -1.1752729677     1.2683511891
   55      H      -1.0001303519     1.3543614579     1.2306333368
   56      H       0.1294996431     1.5683497464    -0.1623747434
 ----------------------------------------------------------------

    9   -1510.2712612534      8.32E-09 Convergence criterion met
 Total energy in the final basis set = -1510.27126125
 Final energy is   -1510.27126125339
 **  OPTIMIZATION CONVERGED  **

                    Orbital Energies (a.u.)
 --------------------------------------------------------------

 Alpha MOs
 -- Occupied --
-18.934 -18.933 -18.930 -18.925 -18.889 -18.888 -18.878 -18.877
-18.876 -18.869 -10.101 -10.099 -10.098 -10.098 -10.070 -10.068
-10.062 -10.062 -10.062 -10.061 -10.061 -10.058 -10.041 -10.039
-10.037 -10.037 -10.023 -10.022 -10.021 -10.020  -1.016  -1.012
 -1.007  -1.005  -0.973  -0.971  -0.941  -0.935  -0.934  -0.930
 -0.765  -0.764  -0.729  -0.724  -0.714  -0.706  -0.697  -0.660
 -0.660  -0.619  -0.599  -0.578  -0.547  -0.545  -0.540  -0.538
 -0.515  -0.509  -0.486  -0.472  -0.463  -0.458  -0.453  -0.449
 -0.435  -0.431  -0.429  -0.416  -0.411  -0.410  -0.407  -0.406
 -0.387  -0.385  -0.372  -0.368  -0.361  -0.358  -0.354  -0.348
 -0.346  -0.342  -0.340  -0.333  -0.331  -0.327  -0.319  -0.315
 -0.310  -0.308  -0.305  -0.297  -0.294  -0.288  -0.283  -0.273
 -0.272  -0.254  -0.252  -0.250  -0.241  -0.236  -0.235  -0.182
 -0.177  -0.174  -0.167  -0.161  -0.153  -0.151  -0.149  -0.146
 -0.145

          Ground-State Mulliken Net Atomic Charges

     Atom                 Charge (a.u.)
  ----------------------------------------
      1 O                    -0.218149
      2 C                     0.211215
      3 C                    -0.080400
      4 C                    -0.074283
      5 C                     0.217082
      6 O                    -0.179687
      7 C                    -0.053912
      8 C                    -0.055719
      9 O                    -0.171884
     10 C                     0.212387
     11 C                    -0.078525
     12 C                    -0.078890
     13 C                     0.214463
     14 O                    -0.206478
     15 O                    -0.165372
     16 O                    -0.175871
     17 O                    -0.216098
     18 C                    -0.129606
     19 C                     0.025872
     20 C                    -0.143544
     21 C                    -0.144051
     22 C                     0.024701
     23 O                    -0.186075
     24 H                     0.087975
     25 H                     0.084798
     26 H                     0.082720
     27 H                     0.078301
     28 H                     0.073914
     29 H                     0.078586
     30 H                     0.073325
     31 H                     0.090586
     32 O                    -0.206159
     33 C                    -0.126672
     34 C                     0.025360
     35 C                    -0.141211
     36 C                    -0.145609
     37 C                     0.023770
     38 O                    -0.191796
     39 H                     0.083589
     40 H                     0.087726
     41 H                     0.091175
     42 H                     0.089148
     43 H                     0.078447
     44 H                     0.074618
     45 H                     0.078524
     46 H                     0.074113
     47 H                     0.082678
     48 H                     0.088313
     49 H                     0.090328
     50 H                     0.087730
     51 H                     0.090187
     52 H                     0.092653
     53 H                     0.102801
     54 H                     0.085839
     55 H                     0.100128
     56 H                     0.086940
  ----------------------------------------
  Sum of atomic charges =    -0.000000

                    Cartesian Multipole Moments
 -----------------------------------------------------------------
    Charge (ESU x 10^10)
                -0.0000
    Dipole Moment (Debye)
         X      -0.5316      Y      -1.5183      Z      -3.5038
       Tot       3.8555
    Quadrupole Moments (Debye-Ang)
        XX    -173.4280     XY       0.9898     YY    -148.0212
        XZ      -6.8107     YZ      -1.1608     ZZ    -162.6782

 Total job time:  54.11s(wall), 2564.94s(cpu)
        *  Thank you very much for using Q-Chem.  Have a nice day.  *
