 Q-Chem 5.0, Q-Chem, Inc., Pleasanton, CA (2017)
 Q-Chem 5.0.1 for Intel X86 EM64T Linux

User input:
--------------------------------------------------------------
$molecule
0  1
O -3.94934 -3.66094 2.70899
C -3.26408 -4.56952 2.26188
C -3.36658 -6.02376 2.66595
C -2.19431 -6.61502 3.46598
C -1.13231 -5.64095 3.92581
O 0.1021 -6.08909 3.55057
C 1.16511 -5.52858 4.32844
C 2.38999 -6.43578 4.27558
O 2.66172 -6.96778 5.58173
C 3.14734 -8.23377 5.60625
C 3.46642 -8.7146 7.00183
C 4.86863 -8.34666 7.50848
C 5.59589 -7.27559 6.72071
O 6.07694 -6.25428 7.18983
O -2.29513 -4.27661 1.35578
O 5.85646 -7.56863 5.41868
O 3.09401 -9.0038 4.6553
C 6.5411 -6.74018 4.55456
C 2.59263 -8.12601 8.12978
C 2.58012 -9.08254 9.32057
C 4.00219 -8.9286 9.82258
C 4.50033 -7.80557 8.90385
O 3.34503 -7.0473 8.63203
H 3.33207 -9.82099 6.99031
H 5.54269 -9.23114 7.53276
H 1.5531 -7.89619 7.80879
H 1.88744 -8.64517 10.07525
H 2.26589 -10.12534 9.10004
H 3.96446 -8.59193 10.88235
H 4.63894 -9.83524 9.73152
H 5.34158 -7.26184 9.38669
O -1.3453 -4.64484 4.60832
C -2.02719 -3.00749 0.88786
C -4.51787 -6.26841 3.66774
C -4.93675 -7.7391 3.64246
C -3.76826 -8.3769 4.3618
C -2.94306 -7.13427 4.70592
O -3.91231 -6.14032 4.92986
H -3.5775 -6.59217 1.73256
H -1.70681 -7.45342 2.91656
H -1.73128 -2.34457 1.72895
H -5.40589 -5.62522 3.48223
H -5.8431 -7.8448 4.28077
H -5.15052 -8.14213 2.62916
H -4.14523 -8.8471 5.2975
H -3.193 -9.12156 3.77028
H -2.25748 -7.34995 5.55565
H -2.92159 -2.59098 0.37705
H -1.19077 -3.05702 0.16094
H 6.60407 -7.22571 3.55924
H 7.57063 -6.55973 4.93099
H 6.00432 -5.77335 4.44748
H 2.3732 -7.14293 3.41629
H 3.25194 -5.76208 4.07457
H 0.89971 -5.30096 5.38788
H 1.42144 -4.56156 3.83958
$end

$opt
CONSTRAINT
tors           1           2           3           4    -110.863
tors           3           4           5           6    -128.221
tors           4           5           6           7    -158.591
tors           5           6           7           8    +157.090
tors           6           7           8           9    -114.942
tors           7           8           9          10    +145.049
tors           8           9          10          11    +177.607
tors           9          10          11          12     -86.227
tors          11          12          13          14    +126.220
ENDCONSTRAINT
$end

$rem
JOBTYPE                   OPT
METHOD                    B3LYP
DFT_D                     d3_op
BASIS                     STO-3G
GEOM_OPT_MAX_CYCLES       100
GEOM_OPT_TOL_GRADIENT     300
GEOM_OPT_TOL_DISPLACEMENT 1200
GEOM_OPT_TOL_ENERGY       100
SYMMETRY                  False
THRESH                    12
SCF_CONVERGENCE           8
MAX_SUB_FILE_NUM          128
MEM_STATIC                400
MEM_TOTAL                 4000
$end
--------------------------------------------------------------

   15   -1510.1483629212      5.67E-09 Convergence criterion met
 Total energy in the final basis set = -1510.14836292
   14   -1510.2170175004      6.46E-09 Convergence criterion met
 Total energy in the final basis set = -1510.21701750
   14   -1510.2534049516      8.58E-09 Convergence criterion met
 Total energy in the final basis set = -1510.25340495
   14   -1510.2691691882      7.25E-09 Convergence criterion met
 Total energy in the final basis set = -1510.26916919
   14   -1510.2744635438      4.75E-09 Convergence criterion met
 Total energy in the final basis set = -1510.27446354
   13   -1510.2762987907      2.80E-09 Convergence criterion met
 Total energy in the final basis set = -1510.27629879
   12   -1510.2768990731      5.56E-09 Convergence criterion met
 Total energy in the final basis set = -1510.27689907
   12   -1510.2771052655      4.56E-09 Convergence criterion met
   11   -1510.2774599672      6.79E-09 Convergence criterion met
 Total energy in the final basis set = -1510.27745997
   10   -1510.2774784010      7.54E-09 Convergence criterion met
 Total energy in the final basis set = -1510.27747840
    9   -1510.2774872749      8.25E-09 Convergence criterion met
 Total energy in the final basis set = -1510.27748727
    9   -1510.2774931072      8.27E-09 Convergence criterion met
 Total energy in the final basis set = -1510.27749311
    9   -1510.2774968819      6.82E-09 Convergence criterion met
 Total energy in the final basis set = -1510.27749688
    9   -1510.2774981510      4.71E-09 Convergence criterion met
 Total energy in the final basis set = -1510.27749815

             Standard Nuclear Orientation (Angstroms)
    I     Atom           X                Y                Z
 ----------------------------------------------------------------
    1      O      -5.8502516551     0.7409151430     1.5759134622
    2      C      -5.2565816181     0.9264396030     0.4936273687
    3      C      -4.9174063332    -0.1352593676    -0.6125921915
    4      C      -3.3594701106    -0.4267464618    -0.7110242763
    5      C      -2.4967065120     0.4646171412     0.2450488628
    6      O      -1.4576958540     1.0847042113    -0.5257516993
    7      C      -0.3371660241     1.5045312952     0.3538457400
    8      C       0.9474214888     1.6085002942    -0.5403501026
    9      O       1.9130021151     0.5788969448    -0.0881242377
   10      C       2.6484750769     0.0560877908    -1.2040097763
   11      C       3.6967542925    -0.9813465587    -0.6723142373
   12      C       5.0809130760    -0.3481700617    -0.2133422757
   13      C       5.0499016630     1.2159999213    -0.0543182964
   14      O       5.3832304499     1.8817739639     0.9485002887
   15      O      -4.7181177462     2.1867252275     0.0708747674
   16      O       4.5477636885     1.7908114208    -1.2650552607
   17      O       2.3901146018     0.3173077775    -2.3994262559
   18      C       4.4443488295     3.2617066832    -1.1322582319
   19      C       3.2689224495    -1.7544567448     0.6493906215
   20      C       4.1020141260    -3.0948942336     0.7048357610
   21      C       5.5317051563    -2.5444174961     1.0666829077
   22      C       5.2377553226    -1.0004485854     1.2217630267
   23      O       3.8516541065    -0.9492941463     1.7459881325
   24      H       3.8749675874    -1.6919686474    -1.4991678177
   25      H       5.8964958067    -0.6267417433    -0.9057002816
   26      H       2.1763123293    -1.8665987751     0.7863968080
   27      H       3.7124932817    -3.7542472177     1.4969540703
   28      H       4.0822710101    -3.6414938316    -0.2514313506
   29      H       5.9008276839    -2.9650885836     2.0153490993
   30      H       6.2754511775    -2.7451560071     0.2788484047
   31      H       5.9217849316    -0.4416115787     1.8895922831
   32      O      -2.6086647193     0.5755443738     1.4858000734
   33      C      -4.8775481130     3.1876570377     1.1500057384
   34      C      -5.4650294246    -1.5618792298    -0.1991651487
   35      C      -5.3808377736    -2.5176061728    -1.4542018497
   36      C      -3.8365346105    -2.8193073419    -1.5050056007
   37      C      -3.3187025501    -1.9598669167    -0.2843864413
   38      O      -4.4097708669    -2.0756620146     0.7065576386
   39      H      -5.3180922269     0.2091221882    -1.5830960324
   40      H      -2.9881365595    -0.2829241950    -1.7405738148
   41      H      -4.3212220324     2.8839878415     2.0607299470
   42      H      -6.4400144218    -1.5371674854     0.3247334678
   43      H      -5.9673823604    -3.4346882769    -1.2856205764
   44      H      -5.7464517956    -2.0274487128    -2.3706152656
   45      H      -3.6283293932    -3.8875767626    -1.3340036014
   46      H      -3.3725002204    -2.5158163924    -2.4569833908
   47      H      -2.3579392467    -2.2922632901     0.1544039584
   48      H      -5.9431586123     3.3357893588     1.4192211876
   49      H      -4.4592390179     4.1322158378     0.7565418326
   50      H       3.9296071132     3.6139102887    -2.0450681417
   51      H       5.4455266887     3.7346580772    -1.0649913692
   52      H       3.8592793953     3.5488869693    -0.2351340163
   53      H       0.6988585421     1.4418239149    -1.6118209987
   54      H       1.4127252644     2.6124956649    -0.4397603028
   55      H      -0.1734680992     0.7654254179     1.1678750699
   56      H      -0.5652518594     2.4849338465     0.8267689403
 ----------------------------------------------------------------

    9   -1510.2774988786      3.73E-09 Convergence criterion met
 Total energy in the final basis set = -1510.27749888
 Final energy is   -1510.27749887862
 **  OPTIMIZATION CONVERGED  **

                    Orbital Energies (a.u.)
 --------------------------------------------------------------

 Alpha MOs
 -- Occupied --
-18.941 -18.931 -18.930 -18.928 -18.887 -18.887 -18.881 -18.874
-18.874 -18.873 -10.103 -10.100 -10.098 -10.095 -10.074 -10.071
-10.069 -10.061 -10.061 -10.059 -10.058 -10.057 -10.041 -10.038
-10.037 -10.035 -10.021 -10.020 -10.020 -10.019  -1.019  -1.013
 -1.008  -1.004  -0.970  -0.969  -0.941  -0.938  -0.933  -0.932
 -0.765  -0.762  -0.728  -0.723  -0.715  -0.705  -0.696  -0.667
 -0.658  -0.615  -0.598  -0.579  -0.548  -0.545  -0.538  -0.537
 -0.517  -0.510  -0.485  -0.474  -0.468  -0.459  -0.450  -0.444
 -0.433  -0.433  -0.430  -0.418  -0.412  -0.410  -0.408  -0.404
 -0.397  -0.381  -0.372  -0.368  -0.361  -0.357  -0.353  -0.350
 -0.346  -0.343  -0.336  -0.332  -0.331  -0.327  -0.326  -0.311
 -0.309  -0.307  -0.305  -0.297  -0.290  -0.288  -0.282  -0.279
 -0.272  -0.257  -0.253  -0.250  -0.248  -0.234  -0.233  -0.183
 -0.178  -0.173  -0.172  -0.160  -0.155  -0.152  -0.147  -0.144
 -0.143

          Ground-State Mulliken Net Atomic Charges

     Atom                 Charge (a.u.)
  ----------------------------------------
      1 O                    -0.205708
      2 C                     0.212475
      3 C                    -0.078706
      4 C                    -0.079298
      5 C                     0.209165
      6 O                    -0.174824
      7 C                    -0.049047
      8 C                    -0.052862
      9 O                    -0.174527
     10 C                     0.212351
     11 C                    -0.080087
     12 C                    -0.077370
     13 C                     0.211471
     14 O                    -0.208356
     15 O                    -0.174512
     16 O                    -0.169120
     17 O                    -0.213989
     18 C                    -0.128256
     19 C                     0.025675
     20 C                    -0.143260
     21 C                    -0.144955
     22 C                     0.024143
     23 O                    -0.187334
     24 H                     0.084183
     25 H                     0.086125
     26 H                     0.085392
     27 H                     0.078271
     28 H                     0.073171
     29 H                     0.078724
     30 H                     0.073089
     31 H                     0.090379
     32 O                    -0.211708
     33 C                    -0.129301
     34 C                     0.025067
     35 C                    -0.144374
     36 C                    -0.143364
     37 C                     0.025958
     38 O                    -0.185189
     39 H                     0.084598
     40 H                     0.086363
     41 H                     0.093418
     42 H                     0.089491
     43 H                     0.078168
     44 H                     0.073135
     45 H                     0.078026
     46 H                     0.073965
     47 H                     0.082152
     48 H                     0.088565
     49 H                     0.088235
     50 H                     0.093342
     51 H                     0.089421
     52 H                     0.090192
     53 H                     0.105364
     54 H                     0.081643
     55 H                     0.098373
     56 H                     0.086057
  ----------------------------------------
  Sum of atomic charges =     0.000000

                    Cartesian Multipole Moments
 -----------------------------------------------------------------
    Charge (ESU x 10^10)
                 0.0000
    Dipole Moment (Debye)
         X       1.3479      Y      -0.0285      Z      -3.0662
       Tot       3.3495
    Quadrupole Moments (Debye-Ang)
        XX    -154.9163     XY      -6.7578     YY    -145.1143
        XZ       8.0338     YZ       2.5755     ZZ    -172.1787

 Total job time:  50.36s(wall), 2393.55s(cpu)
        *  Thank you very much for using Q-Chem.  Have a nice day.  *
