 Q-Chem 5.0, Q-Chem, Inc., Pleasanton, CA (2017)
 Q-Chem 5.0.1 for Intel X86 EM64T Linux

User input:
--------------------------------------------------------------
$molecule
0  1
O -5.8502516551 0.740915143 1.5759134622
C -5.2565816181 0.926439603 0.4936273687
C -4.9174063332 -0.1352593676 -0.6125921915
C -3.3594701106 -0.4267464618 -0.7110242763
C -2.496706512 0.4646171412 0.2450488628
O -1.457695854 1.0847042113 -0.5257516993
C -0.3371660241 1.5045312952 0.35384574
C 0.9474214888 1.6085002942 -0.5403501026
O 1.9130021151 0.5788969448 -0.0881242377
C 2.6484750769 0.0560877908 -1.2040097763
C 3.6967542925 -0.9813465587 -0.6723142373
C 5.080913076 -0.3481700617 -0.2133422757
C 5.049901663 1.2159999213 -0.0543182964
O 5.3832304499 1.8817739639 0.9485002887
O -4.7181177462 2.1867252275 0.0708747674
O 4.5477636885 1.7908114208 -1.2650552607
O 2.3901146018 0.3173077775 -2.3994262559
C 4.4443488295 3.2617066832 -1.1322582319
C 3.2689224495 -1.7544567448 0.6493906215
C 4.102014126 -3.0948942336 0.704835761
C 5.5317051563 -2.5444174961 1.0666829077
C 5.2377553226 -1.0004485854 1.2217630267
O 3.8516541065 -0.9492941463 1.7459881325
H 3.8749675874 -1.6919686474 -1.4991678177
H 5.8964958067 -0.6267417433 -0.9057002816
H 2.1763123293 -1.8665987751 0.786396808
H 3.7124932817 -3.7542472177 1.4969540703
H 4.0822710101 -3.6414938316 -0.2514313506
H 5.9008276839 -2.9650885836 2.0153490993
H 6.2754511775 -2.7451560071 0.2788484047
H 5.9217849316 -0.4416115787 1.8895922831
O -2.6086647193 0.5755443738 1.4858000734
C -4.877548113 3.1876570377 1.1500057384
C -5.4650294246 -1.5618792298 -0.1991651487
C -5.3808377736 -2.5176061728 -1.4542018497
C -3.8365346105 -2.8193073419 -1.5050056007
C -3.3187025501 -1.9598669167 -0.2843864413
O -4.4097708669 -2.0756620146 0.7065576386
H -5.3180922269 0.2091221882 -1.5830960324
H -2.9881365595 -0.282924195 -1.7405738148
H -4.3212220324 2.8839878415 2.060729947
H -6.4400144218 -1.5371674854 0.3247334678
H -5.9673823604 -3.4346882769 -1.2856205764
H -5.7464517956 -2.0274487128 -2.3706152656
H -3.6283293932 -3.8875767626 -1.3340036014
H -3.3725002204 -2.5158163924 -2.4569833908
H -2.3579392467 -2.2922632901 0.1544039584
H -5.9431586123 3.3357893588 1.4192211876
H -4.4592390179 4.1322158378 0.7565418326
H 3.9296071132 3.6139102887 -2.0450681417
H 5.4455266887 3.7346580772 -1.0649913692
H 3.8592793953 3.5488869693 -0.2351340163
H 0.6988585421 1.4418239149 -1.6118209987
H 1.4127252644 2.6124956649 -0.4397603028
H -0.1734680992 0.7654254179 1.1678750699
H -0.5652518594 2.4849338465 0.8267689403
$end

$rem
JOBTYPE                   OPT
METHOD                    B3LYP
DFT_D                     d3_op
BASIS                     STO-3G
GEOM_OPT_MAX_CYCLES       100
GEOM_OPT_TOL_GRADIENT     300
GEOM_OPT_TOL_DISPLACEMENT 1200
GEOM_OPT_TOL_ENERGY       100
SYMMETRY                  False
THRESH                    12
SCF_CONVERGENCE           8
MAX_SUB_FILE_NUM          128
MEM_STATIC                400
MEM_TOTAL                 4000
$end
--------------------------------------------------------------

   16   -1510.2774725172      4.95E-09 Convergence criterion met
 Total energy in the final basis set = -1510.27747252
   14   -1510.2802525356      2.46E-09 Convergence criterion met
 Total energy in the final basis set = -1510.28025254
   13   -1510.2816138841      9.47E-09 Convergence criterion met
 Total energy in the final basis set = -1510.28161388
   13   -1510.2825361156      4.27E-09 Convergence criterion met
 Total energy in the final basis set = -1510.28253612
   13   -1510.2833102093      4.57E-09 Convergence criterion met
 Total energy in the final basis set = -1510.28331021
   12   -1510.2839576284      9.47E-09 Convergence criterion met
 Total energy in the final basis set = -1510.28395763
   13   -1510.2846239297      4.64E-09 Convergence criterion met
 Total energy in the final basis set = -1510.28462393
   13   -1510.2851985679      5.00E-09 Convergence criterion met
   12   -1510.3047968086      9.87E-09 Convergence criterion met
 Total energy in the final basis set = -1510.30479681
   12   -1510.3048071219      6.89E-09 Convergence criterion met
 Total energy in the final basis set = -1510.30480712
   12   -1510.3049124611      5.80E-09 Convergence criterion met
 Total energy in the final basis set = -1510.30491246
   11   -1510.3049057259      2.50E-09 Convergence criterion met
 Total energy in the final basis set = -1510.30490573
   10   -1510.3049033810      8.92E-09 Convergence criterion met
 Total energy in the final basis set = -1510.30490338
    9   -1510.3049086754      8.74E-09 Convergence criterion met
 Total energy in the final basis set = -1510.30490868

             Standard Nuclear Orientation (Angstroms)
    I     Atom           X                Y                Z
 ----------------------------------------------------------------
    1      O      -2.1966034754    -1.0533010457     2.2327636001
    2      C      -2.9183239188    -0.4399534046     1.4179402732
    3      C      -3.1960266053    -0.8200383979    -0.0846242908
    4      C      -2.4702243581     0.1090584814    -1.1435492427
    5      C      -1.6035763793     1.2291362770    -0.4838054823
    6      O      -1.2154781451     2.1762287913    -1.4781874571
    7      C      -0.2907108429     3.1888494901    -0.9074574409
    8      C       1.2115052935     2.8289492225    -1.2144842929
    9      O       1.6569299235     1.6692732686    -0.4089627990
   10      C       1.4239848982     0.4493609998    -1.1283304820
   11      C       1.6832936484    -0.7701859808    -0.1868275925
   12      C       3.1892760127    -0.9362609887     0.2838593029
   13      C       4.1045480267     0.2537481228    -0.1699498557
   14      O       4.8628091599     0.9555897258     0.5300477770
   15      O      -3.7512929251     0.6798955275     1.7511309385
   16      O       3.9335246461     0.4212997193    -1.5866915244
   17      O       0.9928846520     0.4144316496    -2.3062967581
   18      C       4.6966793782     1.5967547770    -2.0603444060
   19      C       0.9491407612    -0.6196776007     1.2213824935
   20      C       0.8479823420    -2.0584395453     1.8544697174
   21      C       2.3411335303    -2.3032738907     2.2913686148
   22      C       3.0153279464    -0.9413251103     1.8571858278
   23      O       1.9512079638     0.0649304560     2.0681158835
   24      H       1.3259867099    -1.6672909319    -0.7210461818
   25      H       3.6204871722    -1.8806500001    -0.0970393708
   26      H       0.0043468757    -0.0360955056     1.1894629777
   27      H       0.1609291735    -2.0427218762     2.7153583736
   28      H       0.4815682623    -2.7979968260     1.1252721306
   29      H       2.4282298598    -2.4447307549     3.3804213377
   30      H       2.7970514353    -3.1696161892     1.7856154965
   31      H       3.9337068549    -0.6582661895     2.4074866556
   32      O      -1.2652625722     1.3026453662     0.7231747592
   33      C      -3.4626353275     1.1197134249     3.1340293026
   34      C      -2.5638117671    -2.2303926174    -0.4378365288
   35      C      -3.2048205261    -2.7439916955    -1.7857919085
   36      C      -2.4818798432    -1.8205628104    -2.8371506185
   37      C      -1.5526704508    -0.9556648073    -1.9006835695
   38      O      -1.1741689687    -1.8932858141    -0.8205645276
   39      H      -4.2889512296    -0.8051239061    -0.2452498358
   40      H      -3.1845698492     0.5822885412    -1.8403123338
   41      H      -2.4169182916     1.4783848628     3.2281078057
   42      H      -2.5676742194    -2.9489724805     0.4045844999
   43      H      -2.9634764709    -3.8066766702    -1.9474374274
   44      H      -4.3001041492    -2.6254646096    -1.7962024462
   45      H      -1.8744969448    -2.4097057441    -3.5427269791
   46      H      -3.1861252895    -1.1979281713    -3.4113560937
   47      H      -0.6360509196    -0.5193834136    -2.3617139187
   48      H      -3.6230886024     0.3026209432     3.8667666065
   49      H      -4.1604944003     1.9506931544     3.3452570528
   50      H       4.5349016589     1.6464991584    -3.1529005612
   51      H       5.7804348419     1.4948069447    -1.8483361208
   52      H       4.3317846884     2.5317047534    -1.5880484311
   53      H       1.3279360724     2.6103006006    -2.2975715236
   54      H       1.8543304229     3.6844712268    -0.9231528400
   55      H      -0.4413667214     3.2516491840     0.1914747095
   56      H      -0.5432068397     4.1558831941    -1.3886845655
 ----------------------------------------------------------------

    9   -1510.3049130799      3.21E-09 Convergence criterion met
 Total energy in the final basis set = -1510.30491308
 Final energy is   -1510.30491307990
 **  OPTIMIZATION CONVERGED  **

                    Orbital Energies (a.u.)
 --------------------------------------------------------------

 Alpha MOs
 -- Occupied --
-18.948 -18.934 -18.932 -18.920 -18.891 -18.882 -18.875 -18.873
-18.869 -18.862 -10.112 -10.100 -10.096 -10.091 -10.078 -10.075
-10.064 -10.055 -10.054 -10.047 -10.045 -10.039 -10.033 -10.032
-10.030 -10.024 -10.017 -10.016 -10.005  -9.997  -1.027  -1.014
 -1.005  -0.999  -0.967  -0.953  -0.948  -0.936  -0.934  -0.925
 -0.761  -0.752  -0.725  -0.715  -0.706  -0.698  -0.687  -0.659
 -0.654  -0.618  -0.592  -0.577  -0.542  -0.536  -0.533  -0.520
 -0.511  -0.504  -0.486  -0.472  -0.458  -0.457  -0.450  -0.439
 -0.431  -0.427  -0.417  -0.414  -0.411  -0.406  -0.402  -0.397
 -0.394  -0.381  -0.372  -0.367  -0.362  -0.355  -0.349  -0.346
 -0.343  -0.341  -0.338  -0.328  -0.321  -0.318  -0.315  -0.308
 -0.302  -0.299  -0.292  -0.291  -0.286  -0.282  -0.275  -0.269
 -0.263  -0.257  -0.249  -0.244  -0.244  -0.231  -0.217  -0.195
 -0.175  -0.171  -0.166  -0.163  -0.155  -0.148  -0.143  -0.142
 -0.127

          Ground-State Mulliken Net Atomic Charges

     Atom                 Charge (a.u.)
  ----------------------------------------
      1 O                    -0.217966
      2 C                     0.214696
      3 C                    -0.081786
      4 C                    -0.079572
      5 C                     0.216984
      6 O                    -0.165901
      7 C                    -0.054017
      8 C                    -0.052810
      9 O                    -0.168722
     10 C                     0.216621
     11 C                    -0.081076
     12 C                    -0.078252
     13 C                     0.214365
     14 O                    -0.208037
     15 O                    -0.176338
     16 O                    -0.172766
     17 O                    -0.222294
     18 C                    -0.128427
     19 C                     0.019391
     20 C                    -0.143530
     21 C                    -0.145439
     22 C                     0.024167
     23 O                    -0.190998
     24 H                     0.092971
     25 H                     0.084286
     26 H                     0.100757
     27 H                     0.084920
     28 H                     0.076985
     29 H                     0.075057
     30 H                     0.069208
     31 H                     0.085349
     32 O                    -0.210527
     33 C                    -0.128972
     34 C                     0.024610
     35 C                    -0.144511
     36 C                    -0.144157
     37 C                     0.011058
     38 O                    -0.197053
     39 H                     0.083743
     40 H                     0.087786
     41 H                     0.092990
     42 H                     0.086635
     43 H                     0.076582
     44 H                     0.072366
     45 H                     0.077986
     46 H                     0.072829
     47 H                     0.106099
     48 H                     0.087122
     49 H                     0.086180
     50 H                     0.090563
     51 H                     0.090016
     52 H                     0.087033
     53 H                     0.099428
     54 H                     0.089837
     55 H                     0.104149
     56 H                     0.090383
  ----------------------------------------
  Sum of atomic charges =     0.000000

                    Cartesian Multipole Moments
 -----------------------------------------------------------------
    Charge (ESU x 10^10)
                 0.0000
    Dipole Moment (Debye)
         X      -1.4468      Y       0.7380      Z      -2.2226
       Tot       2.7528
    Quadrupole Moments (Debye-Ang)
        XX    -152.9570     XY      -0.3249     YY    -147.9756
        XZ      -5.3454     YZ      -3.4352     ZZ    -161.7705

 Total job time:  146.73s(wall), 6993.85s(cpu)
        *  Thank you very much for using Q-Chem.  Have a nice day.  *
