 Q-Chem 5.0, Q-Chem, Inc., Pleasanton, CA (2017)
 Q-Chem 5.0.1 for Intel X86 EM64T Linux

User input:
--------------------------------------------------------------
$molecule
0  1
O -3.94934 -3.66094 2.70899
C -3.26408 -4.56952 2.26188
C -3.36658 -6.02376 2.66595
C -2.08593 -6.70239 3.17903
C -0.88853 -5.80458 3.39874
O -1.19178 -4.52668 3.02401
C -0.09364 -3.62051 3.1731
C 0.40937 -3.17449 1.80409
O 0.73322 -1.77552 1.83365
C 1.75273 -1.39577 1.02399
C 1.3123 -0.46188 -0.07807
C 0.7887 -1.15589 -1.34396
C 0.44859 -2.6256 -1.19913
O -0.17304 -3.29286 -2.01332
O -2.69991 -4.36995 1.03641
O 1.50557 -3.32645 -0.69719
O 2.91932 -1.51963 1.36477
C 1.72947 -4.68452 -0.86112
C 0.1145 0.44545 0.26905
C 0.12355 1.68011 -0.63123
C -0.26406 1.06421 -1.96053
C -0.53025 -0.38207 -1.5281
O -1.00411 -0.26091 -0.20778
H 2.19058 0.18076 -0.31662
H 1.48285 -1.06131 -2.20828
H 0.08842 0.74851 1.33853
H -0.70736 2.3383 -0.28957
H 1.07113 2.26058 -0.63566
H -1.20284 1.54841 -2.31029
H 0.51204 1.11792 -2.75455
H -1.21825 -0.87857 -2.24749
O 0.18893 -6.19304 3.83421
C -2.90695 -3.23352 0.27678
C -4.27682 -6.22531 3.89931
C -4.78755 -7.66588 3.94821
C -3.52992 -8.39765 4.36388
C -2.57016 -7.21862 4.54304
O -3.39649 -6.17429 4.99479
H -3.81522 -6.56381 1.80176
H -1.74842 -7.51928 2.50364
H -2.55816 -2.33109 0.82266
H -5.14042 -5.52587 3.93235
H -5.52424 -7.73178 4.78079
H -5.26091 -8.02648 3.00971
H -3.71655 -8.88893 5.34489
H -3.14882 -9.14315 3.63274
H -1.73133 -7.50389 5.21578
H -3.987 -3.12558 0.04042
H -2.35258 -3.3237 -0.67563
H 2.65809 -4.96756 -0.32453
H 1.85446 -4.92705 -1.93781
H 0.88051 -5.26719 -0.44272
H 1.25933 -3.84153 1.5617
H -0.41852 -3.28947 1.09215
H 0.74615 -3.91942 3.84066
H -0.54756 -2.73744 3.67234
$end

$opt
CONSTRAINT
tors           1           2           3           4    -124.257
tors           3           4           5           6      -2.678
tors           4           5           6           7    -178.592
tors           5           6           7           8    +111.129
tors           6           7           8           9    +139.815
tors           7           8           9          10    +147.921
tors           8           9          10          11    +115.200
tors           9          10          11          12     -86.227
tors          11          12          13          14    +167.634
ENDCONSTRAINT
$end

$rem
JOBTYPE                   OPT
METHOD                    B3LYP
DFT_D                     d3_op
BASIS                     STO-3G
GEOM_OPT_MAX_CYCLES       100
GEOM_OPT_TOL_GRADIENT     300
GEOM_OPT_TOL_DISPLACEMENT 1200
GEOM_OPT_TOL_ENERGY       100
SYMMETRY                  False
THRESH                    12
SCF_CONVERGENCE           8
MAX_SUB_FILE_NUM          128
MEM_STATIC                400
MEM_TOTAL                 4000
$end
--------------------------------------------------------------

   15   -1510.1051678875      7.01E-09 Convergence criterion met
 Total energy in the final basis set = -1510.10516789
   14   -1510.1791180254      5.33E-09 Convergence criterion met
 Total energy in the final basis set = -1510.17911803
   15   -1510.2153176866      1.64E-09 Convergence criterion met
 Total energy in the final basis set = -1510.21531769
   15   -1510.2375896005      1.58E-09 Convergence criterion met
 Total energy in the final basis set = -1510.23758960
   14   -1510.2474784729      5.55E-09 Convergence criterion met
 Total energy in the final basis set = -1510.24747847
   14   -1510.2540674223      3.08E-09 Convergence criterion met
 Total energy in the final basis set = -1510.25406742
   13   -1510.2576936762      3.64E-09 Convergence criterion met
 Total energy in the final basis set = -1510.25769368
   13   -1510.2599175566      5.54E-09 Convergence criterion met
   11   -1510.2623211693      4.93E-09 Convergence criterion met
 Total energy in the final basis set = -1510.26232117
   11   -1510.2623894523      5.52E-09 Convergence criterion met
 Total energy in the final basis set = -1510.26238945
   10   -1510.2624435941      8.65E-09 Convergence criterion met
 Total energy in the final basis set = -1510.26244359
   11   -1510.2624704736      2.90E-09 Convergence criterion met
 Total energy in the final basis set = -1510.26247047
   10   -1510.2624871445      9.55E-09 Convergence criterion met
 Total energy in the final basis set = -1510.26248714
   10   -1510.2624887655      7.62E-09 Convergence criterion met
 Total energy in the final basis set = -1510.26248877

             Standard Nuclear Orientation (Angstroms)
    I     Atom           X                Y                Z
 ----------------------------------------------------------------
    1      O       1.8049695791     2.3789464787    -0.5494504324
    2      C       2.1039827595     1.5077200277     0.2940021455
    3      C       3.5364455877     0.9160341178     0.5716367627
    4      C       3.7450739882    -0.6512666604     0.4817395841
    5      C       2.6846150208    -1.4598464199    -0.3504467974
    6      O       1.6706441142    -0.5825034530    -0.8277876044
    7      C       0.6233587318    -1.3002143458    -1.5935171849
    8      C      -0.6865177871    -1.2483934839    -0.7238388034
    9      O      -1.8492098559    -1.0114507754    -1.5955395501
   10      C      -3.0405887401    -1.6625099118    -1.0741446130
   11      C      -4.1116019942    -0.5698799558    -0.6728473640
   12      C      -3.9996258523     0.0491679490     0.7890271432
   13      C      -2.9721846014    -0.5423205140     1.8179717948
   14      O      -2.6478860615    -0.0033231918     2.9002075536
   15      O       1.2125848570     1.0450999064     1.3244967816
   16      O      -2.5486054541    -1.8484797417     1.4329370056
   17      O      -3.2075990055    -2.8986281514    -1.0784194732
   18      C      -1.6403433485    -2.4161319360     2.4574435740
   19      C      -3.8864605021     0.7440006734    -1.5431579977
   20      C      -5.1728565227     1.6571319210    -1.4410324540
   21      C      -4.9961462854     2.2801913548    -0.0069807946
   22      C      -3.6702171648     1.5702070794     0.4644364308
   23      O      -2.8613445157     1.4874014889    -0.7709908158
   24      H      -5.1177579470    -1.0014130174    -0.8207216855
   25      H      -4.9865304320    -0.0220570886     1.2849468702
   26      H      -3.5273088833     0.5514954241    -2.5718933121
   27      H      -5.1601687350     2.4318277268    -2.2240888502
   28      H      -6.1012855823     1.0718888416    -1.5381588575
   29      H      -4.8486487196     3.3708359220    -0.0558172055
   30      H      -5.8456035053     2.0672381774     0.6614963047
   31      H      -3.1140747806     2.0869438321     1.2704450113
   32      O       2.7159803798    -2.6886362492    -0.5843640605
   33      C      -0.0783136217     1.7701936505     1.2468281824
   34      C       4.6375722961     1.4393455122    -0.4466485466
   35      C       6.0114925857     1.4702516427     0.3251063477
   36      C       6.2824127801    -0.0718619607     0.4924677791
   37      C       5.0994554702    -0.6917706527    -0.3540569646
   38      O       4.8272003765     0.3213010847    -1.4013629736
   39      H       3.7938742005     1.2385399050     1.5982106558
   40      H       3.8453506749    -1.1185093375     1.4779554037
   41      H      -0.5490145713     1.7017186796     0.2433303126
   42      H       4.3502077828     2.3659083452    -0.9811389459
   43      H       6.7882947446     1.9481837392    -0.2931956909
   44      H       5.9451007625     2.0027244968     1.2871906091
   45      H       7.2558349910    -0.3637984215     0.0680660171
   46      H       6.2453487135    -0.3964782787     1.5448354252
   47      H       5.3121371717    -1.6788398043    -0.8095261179
   48      H       0.0478769120     2.8435999360     1.4974415843
   49      H      -0.7408024953     1.2954933506     1.9963317828
   50      H      -1.3861022259    -3.4330926891     2.1062938133
   51      H      -2.1351209453    -2.4746808371     3.4477855238
   52      H      -0.7144247454    -1.8134330042     2.5578766747
   53      H      -0.7909339452    -2.1931266873    -0.1518379289
   54      H      -0.5829974338    -0.4132338463     0.0014909995
   55      H       0.9557792282    -2.3404393064    -1.7924345211
   56      H       0.4676668030    -0.7529530474    -2.5468049007
 ----------------------------------------------------------------

    9   -1510.2624898266      5.06E-09 Convergence criterion met
 Total energy in the final basis set = -1510.26248983
 Final energy is   -1510.26248982659
 **  OPTIMIZATION CONVERGED  **

                    Orbital Energies (a.u.)
 --------------------------------------------------------------

 Alpha MOs
 -- Occupied --
-18.951 -18.941 -18.919 -18.900 -18.896 -18.893 -18.884 -18.884
-18.875 -18.862 -10.112 -10.107 -10.103 -10.093 -10.075 -10.068
-10.067 -10.064 -10.062 -10.058 -10.054 -10.052 -10.047 -10.040
-10.039 -10.032 -10.024 -10.022 -10.019 -10.017  -1.026  -1.017
 -1.003  -0.998  -0.975  -0.968  -0.948  -0.941  -0.933  -0.925
 -0.767  -0.761  -0.728  -0.724  -0.712  -0.703  -0.694  -0.672
 -0.655  -0.612  -0.600  -0.584  -0.550  -0.541  -0.540  -0.535
 -0.520  -0.508  -0.491  -0.487  -0.472  -0.456  -0.449  -0.440
 -0.436  -0.429  -0.425  -0.420  -0.414  -0.406  -0.403  -0.401
 -0.395  -0.385  -0.382  -0.370  -0.364  -0.359  -0.355  -0.349
 -0.342  -0.338  -0.336  -0.334  -0.331  -0.328  -0.318  -0.318
 -0.310  -0.309  -0.307  -0.301  -0.301  -0.292  -0.289  -0.279
 -0.268  -0.265  -0.247  -0.241  -0.235  -0.233  -0.232  -0.191
 -0.180  -0.167  -0.165  -0.159  -0.155  -0.154  -0.148  -0.143
 -0.142

          Ground-State Mulliken Net Atomic Charges

     Atom                 Charge (a.u.)
  ----------------------------------------
      1 O                    -0.217832
      2 C                     0.220467
      3 C                    -0.080651
      4 C                    -0.076335
      5 C                     0.214068
      6 O                    -0.167660
      7 C                    -0.051033
      8 C                    -0.046622
      9 O                    -0.197780
     10 C                     0.226768
     11 C                    -0.081598
     12 C                    -0.080173
     13 C                     0.208417
     14 O                    -0.216358
     15 O                    -0.179838
     16 O                    -0.168280
     17 O                    -0.186119
     18 C                    -0.128557
     19 C                     0.027886
     20 C                    -0.144939
     21 C                    -0.143284
     22 C                     0.023618
     23 O                    -0.189319
     24 H                     0.082752
     25 H                     0.087467
     26 H                     0.089791
     27 H                     0.079226
     28 H                     0.073886
     29 H                     0.079405
     30 H                     0.074076
     31 H                     0.086382
     32 O                    -0.218175
     33 C                    -0.137534
     34 C                     0.023144
     35 C                    -0.142430
     36 C                    -0.145232
     37 C                     0.024298
     38 O                    -0.191595
     39 H                     0.081841
     40 H                     0.086163
     41 H                     0.098627
     42 H                     0.091338
     43 H                     0.077850
     44 H                     0.072886
     45 H                     0.078318
     46 H                     0.073124
     47 H                     0.085723
     48 H                     0.082913
     49 H                     0.087461
     50 H                     0.096027
     51 H                     0.093719
     52 H                     0.092602
     53 H                     0.085862
     54 H                     0.085797
     55 H                     0.102137
     56 H                     0.097300
  ----------------------------------------
  Sum of atomic charges =     0.000000

                    Cartesian Multipole Moments
 -----------------------------------------------------------------
    Charge (ESU x 10^10)
                -0.0000
    Dipole Moment (Debye)
         X      -1.2903      Y       0.5329      Z       2.4955
       Tot       2.8594
    Quadrupole Moments (Debye-Ang)
        XX    -140.4405     XY      -3.8387     YY    -167.5665
        XZ       7.7445     YZ      -2.4979     ZZ    -162.2659

 Total job time:  58.60s(wall), 2790.43s(cpu)
        *  Thank you very much for using Q-Chem.  Have a nice day.  *
