 Q-Chem 5.0, Q-Chem, Inc., Pleasanton, CA (2017)
 Q-Chem 5.0.1 for Intel X86 EM64T Linux

User input:
--------------------------------------------------------------
$molecule
0  1
O 1.8049695791 2.3789464787 -0.5494504324
C 2.1039827595 1.5077200277 0.2940021455
C 3.5364455877 0.9160341178 0.5716367627
C 3.7450739882 -0.6512666604 0.4817395841
C 2.6846150208 -1.4598464199 -0.3504467974
O 1.6706441142 -0.582503453 -0.8277876044
C 0.6233587318 -1.3002143458 -1.5935171849
C -0.6865177871 -1.2483934839 -0.7238388034
O -1.8492098559 -1.0114507754 -1.5955395501
C -3.0405887401 -1.6625099118 -1.074144613
C -4.1116019942 -0.5698799558 -0.672847364
C -3.9996258523 0.049167949 0.7890271432
C -2.9721846014 -0.542320514 1.8179717948
O -2.6478860615 -0.0033231918 2.9002075536
O 1.212584857 1.0450999064 1.3244967816
O -2.5486054541 -1.8484797417 1.4329370056
O -3.2075990055 -2.8986281514 -1.0784194732
C -1.6403433485 -2.416131936 2.457443574
C -3.8864605021 0.7440006734 -1.5431579977
C -5.1728565227 1.657131921 -1.441032454
C -4.9961462854 2.2801913548 -0.0069807946
C -3.6702171648 1.5702070794 0.4644364308
O -2.8613445157 1.4874014889 -0.7709908158
H -5.117757947 -1.0014130174 -0.8207216855
H -4.986530432 -0.0220570886 1.2849468702
H -3.5273088833 0.5514954241 -2.5718933121
H -5.160168735 2.4318277268 -2.2240888502
H -6.1012855823 1.0718888416 -1.5381588575
H -4.8486487196 3.370835922 -0.0558172055
H -5.8456035053 2.0672381774 0.6614963047
H -3.1140747806 2.0869438321 1.2704450113
O 2.7159803798 -2.6886362492 -0.5843640605
C -0.0783136217 1.7701936505 1.2468281824
C 4.6375722961 1.4393455122 -0.4466485466
C 6.0114925857 1.4702516427 0.3251063477
C 6.2824127801 -0.0718619607 0.4924677791
C 5.0994554702 -0.6917706527 -0.3540569646
O 4.8272003765 0.3213010847 -1.4013629736
H 3.7938742005 1.238539905 1.5982106558
H 3.8453506749 -1.1185093375 1.4779554037
H -0.5490145713 1.7017186796 0.2433303126
H 4.3502077828 2.3659083452 -0.9811389459
H 6.7882947446 1.9481837392 -0.2931956909
H 5.9451007625 2.0027244968 1.2871906091
H 7.255834991 -0.3637984215 0.0680660171
H 6.2453487135 -0.3964782787 1.5448354252
H 5.3121371717 -1.6788398043 -0.8095261179
H 0.047876912 2.843599936 1.4974415843
H -0.7408024953 1.2954933506 1.9963317828
H -1.3861022259 -3.4330926891 2.1062938133
H -2.1351209453 -2.4746808371 3.4477855238
H -0.7144247454 -1.8134330042 2.5578766747
H -0.7909339452 -2.1931266873 -0.1518379289
H -0.5829974338 -0.4132338463 0.0014909995
H 0.9557792282 -2.3404393064 -1.7924345211
H 0.467666803 -0.7529530474 -2.5468049007
$end

$rem
JOBTYPE                   OPT
METHOD                    B3LYP
DFT_D                     d3_op
BASIS                     STO-3G
GEOM_OPT_MAX_CYCLES       100
GEOM_OPT_TOL_GRADIENT     300
GEOM_OPT_TOL_DISPLACEMENT 1200
GEOM_OPT_TOL_ENERGY       100
SYMMETRY                  False
THRESH                    12
SCF_CONVERGENCE           8
MAX_SUB_FILE_NUM          128
MEM_STATIC                400
MEM_TOTAL                 4000
$end
--------------------------------------------------------------

   16   -1510.2625075740      7.73E-09 Convergence criterion met
 Total energy in the final basis set = -1510.26250757
   14   -1510.2639816325      8.72E-09 Convergence criterion met
 Total energy in the final basis set = -1510.26398163
   14   -1510.2664137185      5.25E-09 Convergence criterion met
 Total energy in the final basis set = -1510.26641372
   14   -1510.2702730568      6.09E-09 Convergence criterion met
 Total energy in the final basis set = -1510.27027306
   13   -1510.2733436973      8.13E-09 Convergence criterion met
 Total energy in the final basis set = -1510.27334370
   14   -1510.2767086182      4.27E-09 Convergence criterion met
 Total energy in the final basis set = -1510.27670862
   13   -1510.2797771094      4.51E-09 Convergence criterion met
 Total energy in the final basis set = -1510.27977711
   13   -1510.2819103029      3.79E-09 Convergence criterion met
   11   -1510.2978378126      4.92E-09 Convergence criterion met
 Total energy in the final basis set = -1510.29783781
   12   -1510.2978496895      3.71E-09 Convergence criterion met
 Total energy in the final basis set = -1510.29784969
   12   -1510.2978498037      4.85E-09 Convergence criterion met
 Total energy in the final basis set = -1510.29784980
   11   -1510.2978511318      3.76E-09 Convergence criterion met
 Total energy in the final basis set = -1510.29785113
    9   -1510.2978513726      8.47E-09 Convergence criterion met
 Total energy in the final basis set = -1510.29785137
   10   -1510.2978515315      4.39E-09 Convergence criterion met
 Total energy in the final basis set = -1510.29785153

             Standard Nuclear Orientation (Angstroms)
    I     Atom           X                Y                Z
 ----------------------------------------------------------------
    1      O       3.0633128236     2.3772550207    -0.7357458697
    2      C       2.7326777022     1.7580834646     0.2972318124
    3      C       3.4657607070     0.5500208541     0.9797760039
    4      C       3.2022554327    -0.8502639953     0.2767230906
    5      C       2.3712066327    -0.7607610743    -1.0511371268
    6      O       1.2407284264     0.0929767314    -0.8340831228
    7      C       0.5024949370     0.3100550210    -2.0994086208
    8      C      -0.6654621471    -0.7161043672    -2.2819301797
    9      O      -1.8284086062    -0.3012141134    -1.4640317920
   10      C      -2.4218301613    -1.4372572339    -0.8196922109
   11      C      -3.7768629114    -0.9852670747    -0.1786508505
   12      C      -3.6580301227     0.2258024610     0.8361848637
   13      C      -2.1931073217     0.6924890345     1.1592968622
   14      O      -1.7919603802     1.8769411965     1.2108705988
   15      O       1.5947656940     2.0854563802     1.1105713914
   16      O      -1.4262639080    -0.4662442868     1.4652826893
   17      O      -1.9465776800    -2.5936978989    -0.8456500167
   18      C      -0.0973101652    -0.1308257483     2.0330458818
   19      C      -4.7298194064    -0.3384334082    -1.2785456248
   20      C      -6.1876908133    -0.2173441765    -0.6794360353
   21      C      -6.0252468839     1.0231986347     0.2758815667
   22      C      -4.4921417352     1.3465192143     0.0884882678
   23      O      -4.2587901913     1.0624155784    -1.3470500722
   24      H      -4.2336740134    -1.8696369990     0.2990809150
   25      H      -4.1325056787    -0.0410935886     1.7991013805
   26      H      -4.6704188499    -0.8176909902    -2.2750289965
   27      H      -6.9176180458    -0.0191295472    -1.4801723193
   28      H      -6.4916366540    -1.1307075207    -0.1434881378
   29      H      -6.6411657350     1.8725998829    -0.0600071050
   30      H      -6.2801789759     0.7930053475     1.3225451340
   31      H      -4.1762939976     2.3785291410     0.3374929025
   32      O       2.6276750955    -1.3185086753    -2.1391674788
   33      C       0.7835563559     3.1693627075     0.5051169733
   34      C       5.0459872800     0.6502368979     0.8445521047
   35      C       5.6917545220    -0.3051175313     1.9235710224
   36      C       5.4068493527    -1.7166564146     1.2871855003
   37      C       4.6815389057    -1.3070863472    -0.0534930116
   38      O       5.3354806899    -0.0331645019    -0.4363212590
   39      H       3.1476147872     0.5180149468     2.0364718355
   40      H       2.6922832167    -1.5488614990     0.9657816343
   41      H       1.0287027399     3.2768248288    -0.5692030677
   42      H       5.4385320908     1.6852918187     0.8276240249
   43      H       6.7731394006    -0.1124385944     2.0077772140
   44      H       5.2326750929    -0.1836826088     2.9176934776
   45      H       6.3408640522    -2.2585643352     1.0699161764
   46      H       4.7706188684    -2.3506173348     1.9254937746
   47      H       4.7430949096    -2.0385320340    -0.8829117374
   48      H       0.9949772632     4.1265528112     1.0221112950
   49      H      -0.2778864576     2.8730472735     0.6597501688
   50      H       0.4847711153    -1.0692257854     1.9900056718
   51      H      -0.2089252256     0.1730688753     3.0942604200
   52      H       0.4473076479     0.6768844296     1.4852089063
   53      H      -0.9708327828    -0.7256211701    -3.3516123938
   54      H      -0.3540381447    -1.7427664653    -1.9888412987
   55      H       1.1988105793     0.2169380099    -2.9599878071
   56      H       0.0934084387     1.3398196932    -2.0494741713
 ----------------------------------------------------------------

   10   -1510.2978517939      6.49E-09 Convergence criterion met
 Total energy in the final basis set = -1510.29785179
 Final energy is   -1510.29785179391
 **  OPTIMIZATION CONVERGED  **

                    Orbital Energies (a.u.)
 --------------------------------------------------------------

 Alpha MOs
 -- Occupied --
-18.941 -18.936 -18.931 -18.930 -18.889 -18.887 -18.885 -18.880
-18.874 -18.871 -10.106 -10.106 -10.099 -10.099 -10.075 -10.069
-10.062 -10.060 -10.059 -10.058 -10.045 -10.043 -10.040 -10.039
-10.038 -10.038 -10.022 -10.021 -10.021 -10.020  -1.022  -1.014
 -1.007  -1.004  -0.971  -0.970  -0.945  -0.940  -0.934  -0.933
 -0.766  -0.764  -0.730  -0.724  -0.712  -0.706  -0.699  -0.657
 -0.653  -0.617  -0.598  -0.584  -0.548  -0.544  -0.538  -0.537
 -0.515  -0.510  -0.487  -0.478  -0.467  -0.458  -0.452  -0.440
 -0.434  -0.432  -0.427  -0.420  -0.419  -0.410  -0.403  -0.397
 -0.393  -0.381  -0.375  -0.369  -0.363  -0.357  -0.353  -0.351
 -0.342  -0.340  -0.333  -0.332  -0.331  -0.330  -0.323  -0.312
 -0.311  -0.307  -0.305  -0.301  -0.297  -0.291  -0.287  -0.276
 -0.275  -0.258  -0.251  -0.246  -0.237  -0.235  -0.234  -0.188
 -0.179  -0.170  -0.168  -0.163  -0.160  -0.152  -0.150  -0.145
 -0.144

          Ground-State Mulliken Net Atomic Charges

     Atom                 Charge (a.u.)
  ----------------------------------------
      1 O                    -0.215455
      2 C                     0.216340
      3 C                    -0.080553
      4 C                    -0.077810
      5 C                     0.213605
      6 O                    -0.173196
      7 C                    -0.050027
      8 C                    -0.053880
      9 O                    -0.172965
     10 C                     0.214251
     11 C                    -0.077845
     12 C                    -0.078009
     13 C                     0.222035
     14 O                    -0.217306
     15 O                    -0.174290
     16 O                    -0.171340
     17 O                    -0.214922
     18 C                    -0.144918
     19 C                     0.026300
     20 C                    -0.144329
     21 C                    -0.143597
     22 C                     0.023927
     23 O                    -0.186314
     24 H                     0.085612
     25 H                     0.084245
     26 H                     0.081889
     27 H                     0.078177
     28 H                     0.073879
     29 H                     0.078199
     30 H                     0.073089
     31 H                     0.089903
     32 O                    -0.207890
     33 C                    -0.147042
     34 C                     0.025358
     35 C                    -0.143608
     36 C                    -0.144426
     37 C                     0.024116
     38 O                    -0.187152
     39 H                     0.084845
     40 H                     0.084718
     41 H                     0.090398
     42 H                     0.085800
     43 H                     0.078571
     44 H                     0.073176
     45 H                     0.079060
     46 H                     0.072977
     47 H                     0.091317
     48 H                     0.078901
     49 H                     0.113846
     50 H                     0.079559
     51 H                     0.076426
     52 H                     0.119839
     53 H                     0.085536
     54 H                     0.102511
     55 H                     0.100940
     56 H                     0.097532
  ----------------------------------------
  Sum of atomic charges =    -0.000000

                    Cartesian Multipole Moments
 -----------------------------------------------------------------
    Charge (ESU x 10^10)
                -0.0000
    Dipole Moment (Debye)
         X      -1.8804      Y      -0.7360      Z       2.6788
       Tot       3.3546
    Quadrupole Moments (Debye-Ang)
        XX    -150.7503     XY      -2.4356     YY    -166.1206
        XZ       9.5667     YZ       0.1299     ZZ    -157.0269

 Total job time:  140.60s(wall), 6709.58s(cpu)
        *  Thank you very much for using Q-Chem.  Have a nice day.  *
