 Q-Chem 5.0, Q-Chem, Inc., Pleasanton, CA (2017)
 Q-Chem 5.0.1 for Intel X86 EM64T Linux

User input:
--------------------------------------------------------------
$molecule
0  1
O -3.94934 -3.66094 2.70899
C -3.26408 -4.56952 2.26188
C -3.36658 -6.02376 2.66595
C -4.50945 -6.84584 2.04798
C -5.31434 -6.17028 0.95993
O -6.47119 -5.66694 1.48315
C -7.38835 -5.20846 0.48422
C -8.67547 -6.02489 0.538
O -8.69303 -6.83325 1.72507
C -9.92152 -7.0829 2.24241
C -9.87783 -7.98353 3.45387
C -11.2508 -8.37029 4.02278
C -12.43813 -8.11072 3.11749
O -13.27708 -8.93894 2.79378
O -2.27674 -4.24478 1.38316
O -12.83955 -6.80741 3.07468
O -10.91569 -6.6379 1.69652
C -14.00044 -6.35961 2.47659
C -9.27861 -9.3764 3.17309
C -8.72507 -9.95978 4.47088
C -10.01011 -10.2387 5.22381
C -11.04259 -9.89516 4.14165
O -10.39103 -10.20191 2.93309
H -9.25104 -7.46001 4.2112
H -11.46465 -7.88818 5.00231
H -8.4925 -9.37469 2.38682
H -8.24859 -10.93147 4.20726
H -7.98734 -9.32725 5.01
H -10.03861 -11.32161 5.47748
H -10.16797 -9.62646 6.13811
H -11.99139 -10.44154 4.33682
O -4.85247 -5.86223 -0.1332
C -2.03304 -2.96971 0.91721
C -2.16572 -6.87729 2.17867
C -2.02772 -8.13719 3.0355
C -3.20327 -8.94824 2.537
C -3.73081 -8.02148 1.43902
O -2.57572 -7.39664 0.93792
H -3.35272 -6.04148 3.77864
H -5.22133 -7.18894 2.83384
H -1.78255 -2.29387 1.76263
H -1.19935 -6.32738 2.18536
H -1.0898 -8.6511 2.72462
H -2.00137 -7.95935 4.13206
H -2.81685 -9.89034 2.08796
H -3.97813 -9.1818 3.29903
H -4.33724 -8.59573 0.70379
H -2.92445 -2.58357 0.37788
H -1.17486 -2.99718 0.21499
H -14.06442 -5.25779 2.58703
H -14.88652 -6.81924 2.96434
H -13.99348 -6.61143 1.39447
H -9.56415 -5.39395 0.31135
H -8.59102 -6.75966 -0.29209
H -7.02396 -5.11897 -0.56467
H -7.64628 -4.17439 0.79737
$end

$opt
CONSTRAINT
tors           1           2           3           4     +79.134
tors           3           4           5           6     -98.685
tors           4           5           6           7    -170.268
tors           5           6           7           8    +117.273
tors           6           7           8           9     +10.915
tors           7           8           9          10    +149.314
tors           8           9          10          11    +177.607
tors           9          10          11          12    -176.220
tors          11          12          13          14    +126.220
ENDCONSTRAINT
$end

$rem
JOBTYPE                   OPT
METHOD                    B3LYP
DFT_D                     d3_op
BASIS                     STO-3G
GEOM_OPT_MAX_CYCLES       100
GEOM_OPT_TOL_GRADIENT     300
GEOM_OPT_TOL_DISPLACEMENT 1200
GEOM_OPT_TOL_ENERGY       100
SYMMETRY                  False
THRESH                    12
SCF_CONVERGENCE           8
MAX_SUB_FILE_NUM          128
MEM_STATIC                400
MEM_TOTAL                 4000
$end
--------------------------------------------------------------

   15   -1510.1279937958      6.73E-09 Convergence criterion met
 Total energy in the final basis set = -1510.12799380
   14   -1510.1993818787      7.79E-09 Convergence criterion met
 Total energy in the final basis set = -1510.19938188
   14   -1510.2363789461      9.01E-09 Convergence criterion met
 Total energy in the final basis set = -1510.23637895
   15   -1510.2548293338      1.28E-09 Convergence criterion met
 Total energy in the final basis set = -1510.25482933
   13   -1510.2635625654      7.85E-09 Convergence criterion met
 Total energy in the final basis set = -1510.26356257
   13   -1510.2680115595      4.26E-09 Convergence criterion met
 Total energy in the final basis set = -1510.26801156
   13   -1510.2706700325      2.23E-09 Convergence criterion met
 Total energy in the final basis set = -1510.27067003
   13   -1510.2722297864      2.61E-09 Convergence criterion met
   11   -1510.2764728123      6.91E-09 Convergence criterion met
 Total energy in the final basis set = -1510.27647281
   11   -1510.2765327639      5.67E-09 Convergence criterion met
 Total energy in the final basis set = -1510.27653276
   11   -1510.2765717018      4.21E-09 Convergence criterion met
 Total energy in the final basis set = -1510.27657170
   11   -1510.2765925172      2.45E-09 Convergence criterion met
 Total energy in the final basis set = -1510.27659252
   10   -1510.2766005063      9.08E-09 Convergence criterion met
 Total energy in the final basis set = -1510.27660051
    9   -1510.2766039290      8.69E-09 Convergence criterion met
 Total energy in the final basis set = -1510.27660393

             Standard Nuclear Orientation (Angstroms)
    I     Atom           X                Y                Z
 ----------------------------------------------------------------
    1      O      -3.9514446381    -2.0764926841     1.6656260884
    2      C      -4.5070526698    -1.1241995879     1.0739741166
    3      C      -4.0344547841     0.3738059711     1.0658589088
    4      C      -2.8317916580     0.6098953520     0.0461239762
    5      C      -2.4283752368    -0.6857335654    -0.7347373296
    6      O      -1.2840927832    -1.2584267833    -0.0862533608
    7      C      -0.7149600018    -2.3517576478    -0.9106148502
    8      C       0.7520871565    -1.9652925955    -1.3425485445
    9      O       1.1484358753    -0.7686542225    -0.5574126296
   10      C       2.5556416789    -0.7592726861    -0.3213082029
   11      C       2.9118169420     0.5557714063     0.4551817411
   12      C       4.4680811594     0.7001495491     0.6781790728
   13      C       5.2871868098    -0.6279443211     0.4794776071
   14      O       6.2726520495    -0.8038726873    -0.2674650512
   15      O      -5.6652595656    -1.2651168169     0.2485143982
   16      O       4.8597968696    -1.5566391348     1.4908293193
   17      O       3.3498183498    -1.6350990000    -0.7342640953
   18      C       5.5811496417    -2.8370335444     1.3270189045
   19      C       2.6494814005     1.7835767839    -0.5191763884
   20      C       2.8768246912     3.1381389240     0.2630483055
   21      C       4.4489830128     3.2211720105     0.2888429294
   22      C       4.8281802949     1.8378576266    -0.3669779940
   23      O       3.8102603904     1.6919187781    -1.4358139966
   24      H       2.3272704281     0.6132059394     1.3905770056
   25      H       4.6653589197     1.0459721040     1.7094973687
   26      H       1.6975387551     1.7127651317    -1.0807894152
   27      H       2.4327410194     3.9825873216    -0.2874097290
   28      H       2.4381332713     3.1055445362     1.2732507805
   29      H       4.8167471515     4.0540552666    -0.3316598563
   30      H       4.8549264244     3.3309247822     1.3070929937
   31      H       5.8491531706     1.7586644101    -0.7888712359
   32      O      -2.9618348737    -1.1590733681    -1.7625810166
   33      C      -6.0655273048    -2.6890264760     0.1739895937
   34      C      -5.1139439191     1.3813716875     0.4888598717
   35      C      -4.6705987842     2.8526813146     0.8592497589
   36      C      -3.4875588267     3.0794498755    -0.1534970552
   37      C      -3.4719600401     1.6968425597    -0.9168133120
   38      O      -4.8998195040     1.3123490287    -0.9753941151
   39      H      -3.7254454111     0.6378799693     2.0932974675
   40      H      -1.9366653739     0.9878775854     0.5702693370
   41      H      -6.3268120500    -3.0944447787     1.1729867550
   42      H      -6.1603737283     1.1232220089     0.7394267742
   43      H      -5.4971467630     3.5583716345     0.6798746120
   44      H      -4.3543164107     2.9396340001     1.9111336379
   45      H      -3.7057951537     3.9021637503    -0.8528364016
   46      H      -2.5294933423     3.2876981929     0.3492556068
   47      H      -3.0365286979     1.7195840950    -1.9345074471
   48      H      -5.2591610744    -3.3137639416    -0.2613463649
   49      H      -6.9535392810    -2.7201590203    -0.4835788090
   50      H       5.2720488001    -3.4767364406     2.1741677741
   51      H       6.6811118971    -2.6954438222     1.3480767231
   52      H       5.3072205930    -3.3302140730     0.3716477742
   53      H       1.4672409641    -2.7952034794    -1.1614998842
   54      H       0.7856500973    -1.7098736545    -2.4241254240
   55      H      -1.3711751591    -2.5113373242    -1.7938111772
   56      H      -0.7039082721    -3.2698922880    -0.2876538536
 ----------------------------------------------------------------

    9   -1510.2766044529      2.90E-09 Convergence criterion met
 Total energy in the final basis set = -1510.27660445
 Final energy is   -1510.27660445289
 **  OPTIMIZATION CONVERGED  **

                    Orbital Energies (a.u.)
 --------------------------------------------------------------

 Alpha MOs
 -- Occupied --
-18.942 -18.936 -18.936 -18.917 -18.888 -18.886 -18.886 -18.880
-18.873 -18.860 -10.106 -10.102 -10.098 -10.090 -10.075 -10.071
-10.063 -10.061 -10.061 -10.060 -10.056 -10.053 -10.040 -10.040
-10.039 -10.032 -10.022 -10.022 -10.021 -10.019  -1.022  -1.014
 -1.009  -0.996  -0.970  -0.970  -0.947  -0.935  -0.935  -0.923
 -0.765  -0.763  -0.729  -0.724  -0.714  -0.706  -0.697  -0.660
 -0.653  -0.619  -0.599  -0.578  -0.548  -0.544  -0.538  -0.536
 -0.516  -0.507  -0.486  -0.475  -0.466  -0.458  -0.455  -0.449
 -0.435  -0.431  -0.431  -0.415  -0.412  -0.408  -0.404  -0.401
 -0.389  -0.380  -0.376  -0.370  -0.361  -0.357  -0.351  -0.350
 -0.345  -0.341  -0.333  -0.332  -0.331  -0.327  -0.323  -0.312
 -0.310  -0.309  -0.306  -0.301  -0.294  -0.283  -0.279  -0.276
 -0.270  -0.260  -0.253  -0.245  -0.243  -0.234  -0.234  -0.185
 -0.177  -0.175  -0.164  -0.162  -0.158  -0.151  -0.145  -0.143
 -0.141

          Ground-State Mulliken Net Atomic Charges

     Atom                 Charge (a.u.)
  ----------------------------------------
      1 O                    -0.215198
      2 C                     0.204733
      3 C                    -0.077862
      4 C                    -0.077974
      5 C                     0.207620
      6 O                    -0.163968
      7 C                    -0.055864
      8 C                    -0.052108
      9 O                    -0.167261
     10 C                     0.218320
     11 C                    -0.076002
     12 C                    -0.081534
     13 C                     0.216759
     14 O                    -0.218084
     15 O                    -0.163292
     16 O                    -0.177744
     17 O                    -0.207282
     18 C                    -0.128538
     19 C                     0.023873
     20 C                    -0.144917
     21 C                    -0.142666
     22 C                     0.023383
     23 O                    -0.191872
     24 H                     0.088488
     25 H                     0.083186
     26 H                     0.084855
     27 H                     0.077415
     28 H                     0.072921
     29 H                     0.078002
     30 H                     0.073362
     31 H                     0.091293
     32 O                    -0.210993
     33 C                    -0.127061
     34 C                     0.025779
     35 C                    -0.144324
     36 C                    -0.143932
     37 C                     0.025945
     38 O                    -0.183962
     39 H                     0.084904
     40 H                     0.088196
     41 H                     0.087819
     42 H                     0.088854
     43 H                     0.078118
     44 H                     0.072886
     45 H                     0.078269
     46 H                     0.072769
     47 H                     0.085228
     48 H                     0.090676
     49 H                     0.092622
     50 H                     0.085551
     51 H                     0.087147
     52 H                     0.090082
     53 H                     0.098282
     54 H                     0.085413
     55 H                     0.102165
     56 H                     0.087523
  ----------------------------------------
  Sum of atomic charges =    -0.000000

                    Cartesian Multipole Moments
 -----------------------------------------------------------------
    Charge (ESU x 10^10)
                -0.0000
    Dipole Moment (Debye)
         X      -1.4009      Y       1.2469      Z       2.3861
       Tot       3.0349
    Quadrupole Moments (Debye-Ang)
        XX    -171.2780     XY       2.5607     YY    -146.9035
        XZ       3.0631     YZ       4.9959     ZZ    -163.7968

 Total job time:  57.81s(wall), 2749.52s(cpu)
        *  Thank you very much for using Q-Chem.  Have a nice day.  *
