 Q-Chem 5.0, Q-Chem, Inc., Pleasanton, CA (2017)
 Q-Chem 5.0.1 for Intel X86 EM64T Linux

User input:
--------------------------------------------------------------
$molecule
0  1
O -3.9514446381 -2.0764926841 1.6656260884
C -4.5070526698 -1.1241995879 1.0739741166
C -4.0344547841 0.3738059711 1.0658589088
C -2.831791658 0.609895352 0.0461239762
C -2.4283752368 -0.6857335654 -0.7347373296
O -1.2840927832 -1.2584267833 -0.0862533608
C -0.7149600018 -2.3517576478 -0.9106148502
C 0.7520871565 -1.9652925955 -1.3425485445
O 1.1484358753 -0.7686542225 -0.5574126296
C 2.5556416789 -0.7592726861 -0.3213082029
C 2.911816942 0.5557714063 0.4551817411
C 4.4680811594 0.7001495491 0.6781790728
C 5.2871868098 -0.6279443211 0.4794776071
O 6.2726520495 -0.8038726873 -0.2674650512
O -5.6652595656 -1.2651168169 0.2485143982
O 4.8597968696 -1.5566391348 1.4908293193
O 3.3498183498 -1.635099 -0.7342640953
C 5.5811496417 -2.8370335444 1.3270189045
C 2.6494814005 1.7835767839 -0.5191763884
C 2.8768246912 3.138138924 0.2630483055
C 4.4489830128 3.2211720105 0.2888429294
C 4.8281802949 1.8378576266 -0.366977994
O 3.8102603904 1.6919187781 -1.4358139966
H 2.3272704281 0.6132059394 1.3905770056
H 4.6653589197 1.045972104 1.7094973687
H 1.6975387551 1.7127651317 -1.0807894152
H 2.4327410194 3.9825873216 -0.287409729
H 2.4381332713 3.1055445362 1.2732507805
H 4.8167471515 4.0540552666 -0.3316598563
H 4.8549264244 3.3309247822 1.3070929937
H 5.8491531706 1.7586644101 -0.7888712359
O -2.9618348737 -1.1590733681 -1.7625810166
C -6.0655273048 -2.689026476 0.1739895937
C -5.1139439191 1.3813716875 0.4888598717
C -4.6705987842 2.8526813146 0.8592497589
C -3.4875588267 3.0794498755 -0.1534970552
C -3.4719600401 1.6968425597 -0.916813312
O -4.899819504 1.3123490287 -0.9753941151
H -3.7254454111 0.6378799693 2.0932974675
H -1.9366653739 0.9878775854 0.570269337
H -6.32681205 -3.0944447787 1.172986755
H -6.1603737283 1.1232220089 0.7394267742
H -5.497146763 3.5583716345 0.679874612
H -4.3543164107 2.9396340001 1.9111336379
H -3.7057951537 3.9021637503 -0.8528364016
H -2.5294933423 3.2876981929 0.3492556068
H -3.0365286979 1.719584095 -1.9345074471
H -5.2591610744 -3.3137639416 -0.2613463649
H -6.953539281 -2.7201590203 -0.483578809
H 5.2720488001 -3.4767364406 2.1741677741
H 6.6811118971 -2.6954438222 1.3480767231
H 5.307220593 -3.330214073 0.3716477742
H 1.4672409641 -2.7952034794 -1.1614998842
H 0.7856500973 -1.7098736545 -2.424125424
H -1.3711751591 -2.5113373242 -1.7938111772
H -0.7039082721 -3.269892288 -0.2876538536
$end

$rem
JOBTYPE                   OPT
METHOD                    B3LYP
DFT_D                     d3_op
BASIS                     STO-3G
GEOM_OPT_MAX_CYCLES       100
GEOM_OPT_TOL_GRADIENT     300
GEOM_OPT_TOL_DISPLACEMENT 1200
GEOM_OPT_TOL_ENERGY       100
SYMMETRY                  False
THRESH                    12
SCF_CONVERGENCE           8
MAX_SUB_FILE_NUM          128
MEM_STATIC                400
MEM_TOTAL                 4000
$end
--------------------------------------------------------------

   16   -1510.2765434053      6.07E-09 Convergence criterion met
 Total energy in the final basis set = -1510.27654341
   14   -1510.2781970028      6.71E-09 Convergence criterion met
 Total energy in the final basis set = -1510.27819700
   14   -1510.2788228339      3.34E-09 Convergence criterion met
 Total energy in the final basis set = -1510.27882283
   13   -1510.2795829912      3.66E-09 Convergence criterion met
 Total energy in the final basis set = -1510.27958299
   13   -1510.2803203179      2.71E-09 Convergence criterion met
 Total energy in the final basis set = -1510.28032032
   13   -1510.2809782937      3.78E-09 Convergence criterion met
 Total energy in the final basis set = -1510.28097829
   13   -1510.2816968184      5.13E-09 Convergence criterion met
 Total energy in the final basis set = -1510.28169682
   13   -1510.2824349442      7.05E-09 Convergence criterion met
   12   -1510.3070192494      6.63E-09 Convergence criterion met
 Total energy in the final basis set = -1510.30701925
   12   -1510.3071430513      2.38E-09 Convergence criterion met
 Total energy in the final basis set = -1510.30714305
   12   -1510.3072062624      3.64E-09 Convergence criterion met
 Total energy in the final basis set = -1510.30720626
   10   -1510.3072116118      9.00E-09 Convergence criterion met
 Total energy in the final basis set = -1510.30721161
   10   -1510.3072152060      7.57E-09 Convergence criterion met
 Total energy in the final basis set = -1510.30721521
    9   -1510.3072178202      6.34E-09 Convergence criterion met
 Total energy in the final basis set = -1510.30721782

             Standard Nuclear Orientation (Angstroms)
    I     Atom           X                Y                Z
 ----------------------------------------------------------------
    1      O       4.3862735345     0.1356317834     0.9985052477
    2      C       3.2705445144     0.3713602628     0.4890261754
    3      C       2.9718009498     0.7511557623    -1.0050382820
    4      C       1.9906163408    -0.2626720282    -1.7305004636
    5      C       1.7460279458    -1.5690296682    -0.8965179694
    6      O       0.5097248636    -2.1724608352    -1.2952776240
    7      C       0.3143004356    -3.4673106044    -0.5971648800
    8      C       0.0720395756    -3.2953832777     0.9677692468
    9      O       0.0343804964    -1.8690179611     1.3526655111
   10      C      -1.1321750145    -1.2415949436     0.8037378068
   11      C      -1.0151254618     0.2915724038     1.0349311884
   12      C      -2.0116664100     1.1252303740     0.1352042047
   13      C      -2.8903428035     0.2480779541    -0.8248258256
   14      O      -4.1179306190     0.0346689823    -0.7670961383
   15      O       2.0400092095     0.4060067769     1.2321123773
   16      O      -2.0545301441    -0.2076175579    -1.9117978301
   17      O      -2.0611936793    -1.8690493350     0.2461763607
   18      C      -2.7904358255    -1.1590983538    -2.7678566842
   19      C      -1.5063723779     0.7083635157     2.4870276893
   20      C      -1.0095195851     2.1843072396     2.7543368139
   21      C      -2.0171875216     3.0074527486     1.8688644019
   22      C      -2.8866545333     1.8490277115     1.2381080114
   23      O      -2.9711192696     0.8484747886     2.3290456859
   24      H       0.0384856628     0.5923805086     0.8453213696
   25      H      -1.4273738968     1.8418603954    -0.4721603564
   26      H      -1.2692846443    -0.0229505761     3.2842253508
   27      H      -1.1030562524     2.4408019866     3.8216845453
   28      H       0.0382467229     2.3219030026     2.4430770067
   29      H      -2.6457664619     3.6723528512     2.4827082108
   30      H      -1.5088098693     3.6095369031     1.0988184688
   31      H      -3.9016904442     2.1358339733     0.9011724888
   32      O       2.5299769938    -2.0700580327    -0.0596417245
   33      C       2.2737112414    -0.0740064089     2.6113189211
   34      C       2.1264760961     2.0900769567    -1.1073185938
   35      C       2.1000923477     2.5634481117    -2.6148252343
   36      C       1.0464242142     1.5690590080    -3.2317447000
   37      C       0.7178382842     0.6540183489    -1.9879807609
   38      O       0.7453241408     1.6228812832    -0.8656469138
   39      H       3.9394607657     0.8281360600    -1.5307231020
   40      H       2.4221537143    -0.5843808316    -2.6972613366
   41      H       3.0135095920     0.5576079740     3.1443215148
   42      H       2.4094487273     2.8685751072    -0.3724806496
   43      H       1.7621767447     3.6095864670    -2.6859203141
   44      H       3.0915593759     2.4813728453    -3.0882422787
   45      H       0.1394818926     2.1003649402    -3.5618159197
   46      H       1.4471925309     0.9952218706    -4.0821661050
   47      H      -0.2737545995     0.1372499390    -2.0125288973
   48      H       2.6325930297    -1.1231538379     2.6106324092
   49      H       1.2970225918    -0.0202731114     3.1243847857
   50      H      -2.0737768575    -1.4961770808    -3.5393664914
   51      H      -3.6650180168    -0.6807861568    -3.2551894363
   52      H      -3.1420540314    -2.0304130665    -2.1785543310
   53      H      -0.8699490852    -3.8105521396     1.2526925878
   54      H       0.9187325105    -3.7261139222     1.5361087670
   55      H       1.1868527119    -4.1337330608    -0.7642318545
   56      H      -0.5826879056    -3.9065402765    -1.0753348112
 ----------------------------------------------------------------

    9   -1510.3072176378      4.59E-09 Convergence criterion met
 Total energy in the final basis set = -1510.30721764
 Final energy is   -1510.30721763780
 **  OPTIMIZATION CONVERGED  **

                    Orbital Energies (a.u.)
 --------------------------------------------------------------

 Alpha MOs
 -- Occupied --
-18.944 -18.935 -18.929 -18.926 -18.890 -18.882 -18.878 -18.876
-18.870 -18.866 -10.107 -10.098 -10.096 -10.092 -10.078 -10.075
-10.063 -10.058 -10.058 -10.052 -10.049 -10.044 -10.039 -10.037
-10.021 -10.021 -10.017 -10.016 -10.012 -10.011  -1.026  -1.009
 -1.004  -0.999  -0.972  -0.961  -0.944  -0.937  -0.930  -0.927
 -0.764  -0.753  -0.726  -0.719  -0.710  -0.702  -0.691  -0.656
 -0.655  -0.621  -0.596  -0.577  -0.545  -0.538  -0.538  -0.530
 -0.513  -0.502  -0.482  -0.476  -0.466  -0.458  -0.444  -0.441
 -0.428  -0.427  -0.421  -0.418  -0.410  -0.407  -0.405  -0.403
 -0.393  -0.378  -0.371  -0.367  -0.361  -0.355  -0.348  -0.343
 -0.343  -0.342  -0.332  -0.329  -0.324  -0.322  -0.317  -0.313
 -0.306  -0.303  -0.299  -0.296  -0.292  -0.285  -0.278  -0.273
 -0.267  -0.260  -0.249  -0.246  -0.244  -0.235  -0.221  -0.195
 -0.173  -0.172  -0.168  -0.161  -0.154  -0.147  -0.146  -0.141
 -0.136

          Ground-State Mulliken Net Atomic Charges

     Atom                 Charge (a.u.)
  ----------------------------------------
      1 O                    -0.211686
      2 C                     0.214184
      3 C                    -0.080271
      4 C                    -0.080184
      5 C                     0.214584
      6 O                    -0.167717
      7 C                    -0.050837
      8 C                    -0.050349
      9 O                    -0.171107
     10 C                     0.212910
     11 C                    -0.093072
     12 C                    -0.085183
     13 C                     0.219692
     14 O                    -0.211010
     15 O                    -0.173265
     16 O                    -0.178172
     17 O                    -0.214480
     18 C                    -0.125770
     19 C                     0.023369
     20 C                    -0.143991
     21 C                    -0.143090
     22 C                     0.024241
     23 O                    -0.190982
     24 H                     0.119939
     25 H                     0.095907
     26 H                     0.077930
     27 H                     0.074139
     28 H                     0.077232
     29 H                     0.075268
     30 H                     0.074391
     31 H                     0.086238
     32 O                    -0.212414
     33 C                    -0.125920
     34 C                     0.026024
     35 C                    -0.144926
     36 C                    -0.144326
     37 C                     0.005602
     38 O                    -0.195979
     39 H                     0.084760
     40 H                     0.084562
     41 H                     0.086041
     42 H                     0.081364
     43 H                     0.076505
     44 H                     0.073410
     45 H                     0.076389
     46 H                     0.071466
     47 H                     0.117325
     48 H                     0.093926
     49 H                     0.089907
     50 H                     0.087038
     51 H                     0.086929
     52 H                     0.095083
     53 H                     0.090780
     54 H                     0.094276
     55 H                     0.088630
     56 H                     0.094690
  ----------------------------------------
  Sum of atomic charges =    -0.000000

                    Cartesian Multipole Moments
 -----------------------------------------------------------------
    Charge (ESU x 10^10)
                -0.0000
    Dipole Moment (Debye)
         X       1.6356      Y       0.0543      Z      -1.9247
       Tot       2.5264
    Quadrupole Moments (Debye-Ang)
        XX    -183.0867     XY       1.6759     YY    -146.3083
        XZ      -0.8207     YZ       0.8474     ZZ    -149.7646

 Total job time:  215.36s(wall), 10265.07s(cpu)
        *  Thank you very much for using Q-Chem.  Have a nice day.  *
