 Q-Chem 5.0, Q-Chem, Inc., Pleasanton, CA (2017)
 Q-Chem 5.0.1 for Intel X86 EM64T Linux

User input:
--------------------------------------------------------------
$molecule
0  1
O -3.94934 -3.66094 2.70899
C -3.26408 -4.56952 2.26188
C -3.36658 -6.02376 2.66595
C -2.05117 -6.80485 2.81908
C -0.77395 -5.99992 2.72477
O 0.29863 -6.84056 2.63358
C 1.53105 -6.22528 3.02322
C 2.49705 -7.27676 3.5593
O 2.20694 -7.54962 4.93925
C 1.63352 -8.75322 5.18761
C 1.36436 -8.98504 6.65542
C 0.78966 -10.36737 6.99772
C 0.90211 -11.41737 5.91073
O 1.13686 -12.60331 6.09238
O -2.54583 -4.32828 1.13197
O 0.00484 -11.20378 4.90095
O 1.46596 -9.5342 4.27096
C -0.29251 -12.06146 3.85503
C 2.63759 -8.96928 7.52252
C 2.26726 -8.62261 8.96264
C 1.54568 -9.88741 9.37851
C 1.76696 -10.75243 8.13101
O 3.00736 -10.32026 7.62785
H 0.68127 -8.16792 6.98107
H -0.26642 -10.34357 7.34727
H 3.42264 -8.27554 7.15043
H 3.22094 -8.55275 9.53369
H 1.69113 -7.68189 9.09716
H 2.07304 -10.31713 10.25899
H 0.46343 -9.76679 9.60196
H 1.70351 -11.82822 8.4055
O -0.69099 -4.83606 3.10476
C -2.41084 -3.08857 0.54263
C -3.96636 -6.20746 4.07368
C -4.52783 -7.62244 4.22689
C -3.24849 -8.42371 4.34286
C -2.21062 -7.30254 4.26918
O -2.84119 -6.22351 4.91648
H -4.02058 -6.50055 1.90195
H -1.97479 -7.65024 2.0979
H -1.93105 -2.37978 1.25102
H -4.75346 -5.46191 4.31929
H -5.06628 -7.67696 5.19995
H -5.21146 -7.93234 3.40738
H -3.21477 -8.88933 5.3534
H -3.09926 -9.20283 3.5643
H -1.2494 -7.64333 4.71459
H -3.40496 -2.69901 0.23571
H -1.77029 -3.18219 -0.3581
H -0.09956 -11.54075 2.89452
H -1.36698 -12.33432 3.90163
H 0.317 -12.98997 3.8732
H 2.55425 -8.1433 2.86382
H 3.51662 -6.8356 3.55255
H 1.44905 -5.41553 3.78445
H 1.97936 -5.79751 2.0999
$end

$opt
CONSTRAINT
tors           1           2           3           4    -140.054
tors           3           4           5           6    -169.018
tors           4           5           6           7    -158.591
tors           5           6           7           8    +152.092
tors           6           7           8           9     -82.744
tors           7           8           9          10    +107.973
tors           8           9          10          11    +179.513
tors           9          10          11          12    -176.634
tors          11          12          13          14    +142.494
ENDCONSTRAINT
$end

$rem
JOBTYPE                   OPT
METHOD                    B3LYP
DFT_D                     d3_op
BASIS                     STO-3G
GEOM_OPT_MAX_CYCLES       100
GEOM_OPT_TOL_GRADIENT     300
GEOM_OPT_TOL_DISPLACEMENT 1200
GEOM_OPT_TOL_ENERGY       100
SYMMETRY                  False
THRESH                    12
SCF_CONVERGENCE           8
MAX_SUB_FILE_NUM          128
MEM_STATIC                400
MEM_TOTAL                 4000
$end
--------------------------------------------------------------

   15   -1510.1266069655      7.70E-09 Convergence criterion met
 Total energy in the final basis set = -1510.12660697
   14   -1510.1988634946      9.18E-09 Convergence criterion met
 Total energy in the final basis set = -1510.19886349
   15   -1510.2359314021      1.60E-09 Convergence criterion met
 Total energy in the final basis set = -1510.23593140
   14   -1510.2571922242      3.70E-09 Convergence criterion met
 Total energy in the final basis set = -1510.25719222
   13   -1510.2665975780      6.37E-09 Convergence criterion met
 Total energy in the final basis set = -1510.26659758
   13   -1510.2714389598      4.01E-09 Convergence criterion met
 Total energy in the final basis set = -1510.27143896
   13   -1510.2742578757      2.63E-09 Convergence criterion met
 Total energy in the final basis set = -1510.27425788
   12   -1510.2759245375      6.31E-09 Convergence criterion met
   12   -1510.2814826184      5.24E-09 Convergence criterion met
 Total energy in the final basis set = -1510.28148262
   11   -1510.2815826157      9.85E-09 Convergence criterion met
 Total energy in the final basis set = -1510.28158262
   11   -1510.2816440854      7.02E-09 Convergence criterion met
 Total energy in the final basis set = -1510.28164409
   10   -1510.2816666324      6.63E-09 Convergence criterion met
 Total energy in the final basis set = -1510.28166663
   10   -1510.2816816559      5.22E-09 Convergence criterion met
 Total energy in the final basis set = -1510.28168166
    9   -1510.2816877439      6.56E-09 Convergence criterion met
 Total energy in the final basis set = -1510.28168774

             Standard Nuclear Orientation (Angstroms)
    I     Atom           X                Y                Z
 ----------------------------------------------------------------
    1      O      -5.8123799622    -0.2364046475     0.8529296020
    2      C      -4.9480973030    -0.2715776033    -0.0483777472
    3      C      -3.7459744103    -1.2756386983    -0.1626894618
    4      C      -2.3882881309    -0.6422530637    -0.6568571985
    5      C      -2.3965341045     0.9106316072    -0.4382502103
    6      O      -1.2833220440     1.5018916838    -1.1146204970
    7      C      -0.9794423748     2.8284789830    -0.5181115756
    8      C       0.5464498163     3.0942515881    -0.7324465556
    9      O       1.3022610182     2.4044617401     0.3428162074
   10      C       1.9880526792     1.2686897122    -0.1898264784
   11      C       2.7862593327     0.5689697799     0.9655816694
   12      C       3.6301296672    -0.6422569455     0.4116500977
   13      C       3.1268256449    -1.2527172143    -0.9436496853
   14      O       3.8451894833    -1.6816472491    -1.8731095044
   15      O      -5.0485543373     0.4478149143    -1.2885195364
   16      O       1.7210837874    -1.5473322697    -0.8193546988
   17      O       2.0336220624     0.9836403364    -1.4087564090
   18      C       1.2224098448    -2.1373450941    -2.0812993951
   19      C       3.9629777988     1.5563676841     1.3756515283
   20      C       4.7947458368     0.9401954549     2.5699918119
   21      C       5.6829522775    -0.1215710832     1.8183207852
   22      C       5.0877041904    -0.0192237540     0.3614013086
   23      O       4.8639635372     1.4382751348     0.2029129208
   24      H       2.1185255823     0.3026267434     1.8038504583
   25      H       3.6019043813    -1.4719047271     1.1431248992
   26      H       3.6376728606     2.6055653998     1.5158112658
   27      H       5.4083683247     1.7163645637     3.0537552885
   28      H       4.1420865236     0.4824161272     3.3307679020
   29      H       6.7457015485     0.1693233608     1.8213744768
   30      H       5.5894170443    -1.1348682139     2.2403816136
   31      H       5.7218759771    -0.4126910115    -0.4569099082
   32      O      -3.1642873045     1.5401861490     0.3250257776
   33      C      -6.1912820747     1.3846772568    -1.2328875107
   34      C      -3.3091411615    -1.9108769153     1.2260083258
   35      C      -2.6510745062    -3.3073151575     0.9155703109
   36      C      -1.3268439575    -2.8452550135     0.2016259597
   37      C      -1.3859429807    -1.2766790736     0.4011669148
   38      O      -2.1451893625    -1.0994959817     1.6628438944
   39      H      -4.0636061490    -2.0721518694    -0.8610172267
   40      H      -2.1350929791    -0.8927423629    -1.7019467584
   41      H      -6.0243152635     2.1788896856    -0.4764304850
   42      H      -4.1043014739    -1.9027983114     1.9971895553
   43      H      -2.4363357668    -3.8471907171     1.8518283237
   44      H      -3.2837125254    -3.9424539526     0.2750217305
   45      H      -0.4288027007    -3.2607051120     0.6849170031
   46      H      -1.3121294343    -3.1208256810    -0.8642949554
   47      H      -0.3954061979    -0.7808354910     0.4470778382
   48      H      -7.1392089481     0.8617561034    -0.9911742388
   49      H      -6.2639581922     1.8416511585    -2.2370008839
   50      H       0.4562640365    -1.4653601302    -2.5162342938
   51      H       0.7680979491    -3.1232197378    -1.8651500950
   52      H       2.0684840527    -2.2613980930    -2.7870211159
   53      H       0.8762135791     2.7054216948    -1.7203506654
   54      H       0.7608240867     4.1796934693    -0.6487695845
   55      H      -1.2353842406     2.8429114694     0.5628280950
   56      H      -1.5759592706     3.6210231711    -1.0235852514
 ----------------------------------------------------------------

    9   -1510.2816887177      4.08E-09 Convergence criterion met
 Total energy in the final basis set = -1510.28168872
 Final energy is   -1510.28168871771
 **  OPTIMIZATION CONVERGED  **

                    Orbital Energies (a.u.)
 --------------------------------------------------------------

 Alpha MOs
 -- Occupied --
-18.941 -18.937 -18.921 -18.921 -18.888 -18.887 -18.884 -18.880
-18.869 -18.864 -10.107 -10.102 -10.097 -10.092 -10.078 -10.077
-10.063 -10.059 -10.059 -10.057 -10.055 -10.052 -10.043 -10.039
-10.038 -10.033 -10.023 -10.021 -10.020 -10.018  -1.023  -1.015
 -1.003  -1.000  -0.972  -0.968  -0.947  -0.938  -0.929  -0.926
 -0.766  -0.762  -0.732  -0.723  -0.716  -0.704  -0.698  -0.656
 -0.654  -0.619  -0.598  -0.578  -0.547  -0.544  -0.539  -0.536
 -0.514  -0.510  -0.490  -0.476  -0.460  -0.458  -0.455  -0.453
 -0.434  -0.431  -0.427  -0.416  -0.408  -0.407  -0.406  -0.404
 -0.400  -0.377  -0.373  -0.367  -0.361  -0.358  -0.355  -0.349
 -0.345  -0.343  -0.338  -0.334  -0.330  -0.326  -0.323  -0.314
 -0.311  -0.307  -0.302  -0.301  -0.291  -0.284  -0.280  -0.274
 -0.270  -0.257  -0.254  -0.246  -0.244  -0.236  -0.233  -0.190
 -0.177  -0.169  -0.166  -0.160  -0.157  -0.153  -0.147  -0.145
 -0.142

          Ground-State Mulliken Net Atomic Charges

     Atom                 Charge (a.u.)
  ----------------------------------------
      1 O                    -0.216645
      2 C                     0.216291
      3 C                    -0.080504
      4 C                    -0.075592
      5 C                     0.217601
      6 O                    -0.173834
      7 C                    -0.049385
      8 C                    -0.053874
      9 O                    -0.173139
     10 C                     0.218285
     11 C                    -0.076360
     12 C                    -0.080192
     13 C                     0.219195
     14 O                    -0.217728
     15 O                    -0.177218
     16 O                    -0.179436
     17 O                    -0.205261
     18 C                    -0.136214
     19 C                     0.024031
     20 C                    -0.145027
     21 C                    -0.142056
     22 C                     0.023517
     23 O                    -0.191784
     24 H                     0.089233
     25 H                     0.084310
     26 H                     0.086413
     27 H                     0.078958
     28 H                     0.074543
     29 H                     0.078631
     30 H                     0.073724
     31 H                     0.092028
     32 O                    -0.208524
     33 C                    -0.128498
     34 C                     0.023646
     35 C                    -0.142631
     36 C                    -0.143797
     37 C                     0.022725
     38 O                    -0.192387
     39 H                     0.082888
     40 H                     0.086523
     41 H                     0.089940
     42 H                     0.091182
     43 H                     0.077479
     44 H                     0.072843
     45 H                     0.079101
     46 H                     0.072142
     47 H                     0.088630
     48 H                     0.088006
     49 H                     0.086804
     50 H                     0.083886
     51 H                     0.079894
     52 H                     0.102612
     53 H                     0.109666
     54 H                     0.089819
     55 H                     0.099304
     56 H                     0.086238
  ----------------------------------------
  Sum of atomic charges =     0.000000

                    Cartesian Multipole Moments
 -----------------------------------------------------------------
    Charge (ESU x 10^10)
                 0.0000
    Dipole Moment (Debye)
         X       0.2497      Y      -0.3040      Z       0.1415
       Tot       0.4181
    Quadrupole Moments (Debye-Ang)
        XX    -169.7493     XY       0.2784     YY    -147.8016
        XZ      21.1140     YZ      -1.7066     ZZ    -162.9258

 Total job time:  61.33s(wall), 2917.63s(cpu)
        *  Thank you very much for using Q-Chem.  Have a nice day.  *
