 Q-Chem 5.0, Q-Chem, Inc., Pleasanton, CA (2017)
 Q-Chem 5.0.1 for Intel X86 EM64T Linux

User input:
--------------------------------------------------------------
$molecule
0  1
O -5.8123799622 -0.2364046475 0.852929602
C -4.948097303 -0.2715776033 -0.0483777472
C -3.7459744103 -1.2756386983 -0.1626894618
C -2.3882881309 -0.6422530637 -0.6568571985
C -2.3965341045 0.9106316072 -0.4382502103
O -1.283322044 1.5018916838 -1.114620497
C -0.9794423748 2.828478983 -0.5181115756
C 0.5464498163 3.0942515881 -0.7324465556
O 1.3022610182 2.4044617401 0.3428162074
C 1.9880526792 1.2686897122 -0.1898264784
C 2.7862593327 0.5689697799 0.9655816694
C 3.6301296672 -0.6422569455 0.4116500977
C 3.1268256449 -1.2527172143 -0.9436496853
O 3.8451894833 -1.6816472491 -1.8731095044
O -5.0485543373 0.4478149143 -1.2885195364
O 1.7210837874 -1.5473322697 -0.8193546988
O 2.0336220624 0.9836403364 -1.408756409
C 1.2224098448 -2.1373450941 -2.0812993951
C 3.9629777988 1.5563676841 1.3756515283
C 4.7947458368 0.9401954549 2.5699918119
C 5.6829522775 -0.1215710832 1.8183207852
C 5.0877041904 -0.019223754 0.3614013086
O 4.8639635372 1.4382751348 0.2029129208
H 2.1185255823 0.3026267434 1.8038504583
H 3.6019043813 -1.4719047271 1.1431248992
H 3.6376728606 2.6055653998 1.5158112658
H 5.4083683247 1.7163645637 3.0537552885
H 4.1420865236 0.4824161272 3.330767902
H 6.7457015485 0.1693233608 1.8213744768
H 5.5894170443 -1.1348682139 2.2403816136
H 5.7218759771 -0.4126910115 -0.4569099082
O -3.1642873045 1.540186149 0.3250257776
C -6.1912820747 1.3846772568 -1.2328875107
C -3.3091411615 -1.9108769153 1.2260083258
C -2.6510745062 -3.3073151575 0.9155703109
C -1.3268439575 -2.8452550135 0.2016259597
C -1.3859429807 -1.2766790736 0.4011669148
O -2.1451893625 -1.0994959817 1.6628438944
H -4.063606149 -2.0721518694 -0.8610172267
H -2.1350929791 -0.8927423629 -1.7019467584
H -6.0243152635 2.1788896856 -0.476430485
H -4.1043014739 -1.9027983114 1.9971895553
H -2.4363357668 -3.8471907171 1.8518283237
H -3.2837125254 -3.9424539526 0.2750217305
H -0.4288027007 -3.260705112 0.6849170031
H -1.3121294343 -3.120825681 -0.8642949554
H -0.3954061979 -0.780835491 0.4470778382
H -7.1392089481 0.8617561034 -0.9911742388
H -6.2639581922 1.8416511585 -2.2370008839
H 0.4562640365 -1.4653601302 -2.5162342938
H 0.7680979491 -3.1232197378 -1.865150095
H 2.0684840527 -2.261398093 -2.7870211159
H 0.8762135791 2.7054216948 -1.7203506654
H 0.7608240867 4.1796934693 -0.6487695845
H -1.2353842406 2.8429114694 0.562828095
H -1.5759592706 3.6210231711 -1.0235852514
$end

$rem
JOBTYPE                   OPT
METHOD                    B3LYP
DFT_D                     d3_op
BASIS                     STO-3G
GEOM_OPT_MAX_CYCLES       100
GEOM_OPT_TOL_GRADIENT     300
GEOM_OPT_TOL_DISPLACEMENT 1200
GEOM_OPT_TOL_ENERGY       100
SYMMETRY                  False
THRESH                    12
SCF_CONVERGENCE           8
MAX_SUB_FILE_NUM          128
MEM_STATIC                400
MEM_TOTAL                 4000
$end
--------------------------------------------------------------

   15   -1510.2816247360      8.83E-09 Convergence criterion met
 Total energy in the final basis set = -1510.28162474
   13   -1510.2854959238      5.05E-09 Convergence criterion met
 Total energy in the final basis set = -1510.28549592
   13   -1510.2859345184      9.40E-09 Convergence criterion met
 Total energy in the final basis set = -1510.28593452
   13   -1510.2889933104      9.84E-09 Convergence criterion met
 Total energy in the final basis set = -1510.28899331
   14   -1510.2753312838      2.92E-09 Convergence criterion met
 Total energy in the final basis set = -1510.27533128
   14   -1510.2910091227      2.50E-09 Convergence criterion met
 Total energy in the final basis set = -1510.29100912
   13   -1510.2923124410      5.67E-09 Convergence criterion met
 Total energy in the final basis set = -1510.29231244
   13   -1510.2939879333      9.56E-09 Convergence criterion met
   12   -1510.3058803123      2.50E-09 Convergence criterion met
 Total energy in the final basis set = -1510.30588031
   11   -1510.3058923430      7.84E-09 Convergence criterion met
 Total energy in the final basis set = -1510.30589234
   10   -1510.3058979212      9.05E-09 Convergence criterion met
 Total energy in the final basis set = -1510.30589792
   11   -1510.3059045810      5.97E-09 Convergence criterion met
 Total energy in the final basis set = -1510.30590458
   10   -1510.3059086159      4.82E-09 Convergence criterion met
 Total energy in the final basis set = -1510.30590862
   10   -1510.3059097063      8.64E-09 Convergence criterion met
 Total energy in the final basis set = -1510.30590971

             Standard Nuclear Orientation (Angstroms)
    I     Atom           X                Y                Z
 ----------------------------------------------------------------
    1      O      -1.0966773935     0.6091911512     2.0045242020
    2      C      -2.2412372047     0.2694520855     1.6190956831
    3      C      -2.6048726154    -0.9503146590     0.6929021938
    4      C      -2.0969961234    -0.7409554198    -0.7927867914
    5      C      -1.8290690511     0.7698517670    -1.1044082147
    6      O      -1.2818286117     0.9161900010    -2.4171367793
    7      C      -1.1453416102     2.3588071770    -2.7500290615
    8      C       0.2649108038     2.9067497640    -2.3093230275
    9      O       0.5332937148     2.4602987281    -0.9234204496
   10      C       1.4469757832     1.3525320499    -0.9467427786
   11      C       1.4767940163     0.6773741948     0.4508627423
   12      C       2.2251009114    -0.7172814766     0.4363906012
   13      C       2.8823068951    -1.0871941800    -0.9406092311
   14      O       4.0894211993    -1.0403404826    -1.2534241233
   15      O      -3.4507979504     0.8777328424     2.0745973482
   16      O       1.8661005080    -1.6604471763    -1.7975174494
   17      O       2.0919507478     1.0160166524    -1.9678642927
   18      C       2.4265499551    -1.9434009717    -3.1341741653
   19      C       2.3460307032     1.4780060481     1.5184350987
   20      C       1.9199018403     0.9490431976     2.9436444858
   21      C       2.6139870155    -0.4628693316     2.9561125613
   22      C       3.3253228980    -0.4728543163     1.5455884957
   23      O       3.7130303965     0.9436748993     1.3356942806
   24      H       0.4360104431     0.5627824144     0.8318275910
   25      H       1.4914926083    -1.5045432813     0.7031680536
   26      H       2.3326298918     2.5783584026     1.3946843479
   27      H       2.3160418485     1.6038370337     3.7359203291
   28      H       0.8224716196     0.8849173507     3.0321987794
   29      H       3.3565464940    -0.5440899177     3.7659979989
   30      H       1.8895105695    -1.2869117964     3.0544591924
   31      H       4.2135672985    -1.1283376673     1.4615885406
   32      O      -2.1431792696     1.7285878094    -0.3602383685
   33      C      -3.1314054586     2.0688941343     2.8951220779
   34      C      -1.7389113100    -2.2061141260     1.1173383356
   35      C      -2.1776847078    -3.4670565831     0.2704347484
   36      C      -1.4605753986    -3.1839720589    -1.1035735572
   37      C      -0.8605387496    -1.7483607020    -0.8434648407
   38      O      -0.4151584158    -1.8501750373     0.5651096153
   39      H      -3.6933235084    -1.1269230693     0.7416873833
   40      H      -2.8678139229    -1.0760477052    -1.5117141150
   41      H      -2.5900605960     2.8292061400     2.2959646265
   42      H      -1.6730899577    -2.3690045464     2.2105637861
   43      H      -1.8110177486    -4.3944043856     0.7380598743
   44      H      -3.2732542183    -3.5318316153     0.1712645634
   45      H      -0.6462409720    -3.9035690693    -1.2851196111
   46      H      -2.1515922677    -3.2069315978    -1.9612554182
   47      H       0.0193181263    -1.4726393034    -1.4717787169
   48      H      -2.5121682386     1.8039257010     3.7762298323
   49      H      -4.1015238184     2.4790876225     3.2305424086
   50      H       2.7541940653    -1.0098039558    -3.6359576985
   51      H       1.6123363347    -2.4115300840    -3.7177198298
   52      H       3.2903314701    -2.6368079833    -3.0776968548
   53      H       1.0639941327     2.5070514232    -2.9703063348
   54      H       0.2630562887     4.0155203037    -2.3276257926
   55      H      -1.9462497825     2.9335352420    -2.2397021151
   56      H      -1.2585355990     2.4375248722    -3.8503226408
 ----------------------------------------------------------------

    9   -1510.3059092406      5.69E-09 Convergence criterion met
 Total energy in the final basis set = -1510.30590924
 Final energy is   -1510.30590924055
 **  OPTIMIZATION CONVERGED  **

                    Orbital Energies (a.u.)
 --------------------------------------------------------------

 Alpha MOs
 -- Occupied --
-18.947 -18.935 -18.931 -18.915 -18.893 -18.889 -18.877 -18.871
-18.868 -18.854 -10.111 -10.103 -10.095 -10.082 -10.078 -10.070
-10.065 -10.062 -10.051 -10.050 -10.043 -10.042 -10.040 -10.040
-10.023 -10.019 -10.011 -10.008 -10.001  -9.996  -1.027  -1.011
 -1.007  -0.991  -0.975  -0.952  -0.948  -0.934  -0.933  -0.918
 -0.767  -0.745  -0.726  -0.719  -0.704  -0.700  -0.684  -0.662
 -0.648  -0.618  -0.593  -0.570  -0.548  -0.541  -0.529  -0.520
 -0.513  -0.498  -0.487  -0.474  -0.461  -0.457  -0.447  -0.438
 -0.431  -0.424  -0.418  -0.414  -0.410  -0.408  -0.401  -0.398
 -0.393  -0.382  -0.370  -0.366  -0.358  -0.355  -0.353  -0.344
 -0.341  -0.337  -0.330  -0.326  -0.322  -0.318  -0.316  -0.309
 -0.306  -0.304  -0.297  -0.288  -0.285  -0.281  -0.277  -0.264
 -0.262  -0.255  -0.251  -0.242  -0.234  -0.233  -0.213  -0.197
 -0.176  -0.170  -0.164  -0.159  -0.156  -0.151  -0.147  -0.133
 -0.126

          Ground-State Mulliken Net Atomic Charges

     Atom                 Charge (a.u.)
  ----------------------------------------
      1 O                    -0.223948
      2 C                     0.222363
      3 C                    -0.079861
      4 C                    -0.081407
      5 C                     0.212816
      6 O                    -0.168614
      7 C                    -0.052018
      8 C                    -0.056585
      9 O                    -0.172003
     10 C                     0.210358
     11 C                    -0.092200
     12 C                    -0.092624
     13 C                     0.216883
     14 O                    -0.215461
     15 O                    -0.166983
     16 O                    -0.181089
     17 O                    -0.212574
     18 C                    -0.127553
     19 C                     0.025621
     20 C                    -0.148246
     21 C                    -0.143964
     22 C                     0.024127
     23 O                    -0.192772
     24 H                     0.111941
     25 H                     0.105951
     26 H                     0.079291
     27 H                     0.070273
     28 H                     0.089718
     29 H                     0.072199
     30 H                     0.073188
     31 H                     0.082829
     32 O                    -0.206612
     33 C                    -0.127753
     34 C                     0.026617
     35 C                    -0.145287
     36 C                    -0.142759
     37 C                     0.012311
     38 O                    -0.193299
     39 H                     0.086553
     40 H                     0.086340
     41 H                     0.095281
     42 H                     0.082901
     43 H                     0.078107
     44 H                     0.073388
     45 H                     0.079105
     46 H                     0.072145
     47 H                     0.114577
     48 H                     0.088203
     49 H                     0.089369
     50 H                     0.092415
     51 H                     0.083281
     52 H                     0.087084
     53 H                     0.102503
     54 H                     0.088654
     55 H                     0.096546
     56 H                     0.090673
  ----------------------------------------
  Sum of atomic charges =    -0.000000

                    Cartesian Multipole Moments
 -----------------------------------------------------------------
    Charge (ESU x 10^10)
                -0.0000
    Dipole Moment (Debye)
         X      -4.8532      Y      -0.6337      Z      -0.8309
       Tot       4.9644
    Quadrupole Moments (Debye-Ang)
        XX    -172.9601     XY      -0.7573     YY    -148.5872
        XZ       1.9600     YZ      -2.6762     ZZ    -148.6695

 Total job time:  175.08s(wall), 8343.89s(cpu)
        *  Thank you very much for using Q-Chem.  Have a nice day.  *
