 Q-Chem 5.0, Q-Chem, Inc., Pleasanton, CA (2017)
 Q-Chem 5.0.1 for Intel X86 EM64T Linux

User input:
--------------------------------------------------------------
$molecule
0  1
O -6.4800029282 0.9726165022 1.1547919743
C -5.8475778542 0.4055368528 0.2389294405
C -4.8907909112 -0.834650767 0.3772751735
C -3.4914460477 -0.6831488407 -0.3410908171
C -3.1787733694 0.8072821131 -0.737245336
O -2.0230727808 0.8917906165 -1.6147110418
C -0.8864187577 1.508756641 -0.8845243604
C 0.4245049935 0.943512358 -1.5344137438
O 1.5411755311 1.1385821877 -0.5784300166
C 2.3277463636 -0.0619954033 -0.4796248722
C 3.4867332374 0.2293118005 0.5336874903
C 4.7008472977 -0.7779789085 0.5826179794
C 5.1602108192 -1.4539270212 -0.7680731008
O 6.1918031666 -2.1511450652 -0.8973763694
O -6.0607874118 0.6437737067 -1.1609417787
O 4.3972900771 -0.9780317502 -1.8762202376
O 1.9956111244 -1.1501054236 -0.9965631524
C 4.9472809017 -1.5177154527 -3.1402083406
C 4.2341946064 1.6345298715 0.415847027
C 4.5681984669 2.0842757607 1.8895533915
C 5.6303216338 0.989040105 2.2809140624
C 5.8657370218 0.2656455 0.8946354206
O 5.5748189678 1.3083895452 -0.1221002874
H 2.9922336615 0.1952075624 1.5242822855
H 4.5826079328 -1.5493971585 1.3640621727
H 3.7184168824 2.3805022499 -0.2188227348
H 5.013424918 3.0923960285 1.8892780227
H 3.6853879451 2.0845098678 2.5484288374
H 6.5664688346 1.4382575984 2.6478062673
H 5.2528719462 0.2900323235 3.0448267461
H 6.881255181 -0.1506312996 0.7466385753
O -3.7779945022 1.8081943995 -0.2878214313
C -6.9611279729 1.803404741 -1.3417405899
C -4.45158646 -1.1195521944 1.8737623401
C -4.0583784657 -2.6428771759 1.9735497456
C -2.7196680833 -2.6530417879 1.1456701898
C -2.5235947196 -1.1118728192 0.8479761369
O -3.1429612763 -0.4330977377 2.0086390366
H -5.4321630218 -1.7037123502 -0.040450135
H -3.3834711453 -1.3344044668 -1.2264729421
H -6.4885524637 2.7387988315 -0.977618409
H -5.1675625767 -0.7456605026 2.6316999608
H -3.8826685016 -2.9265260858 3.0236141395
H -4.8294212685 -3.3064119691 1.5509496031
H -1.8756310193 -3.0413861633 1.7373069426
H -2.7986044156 -3.2415160316 0.2173846998
H -1.4692426386 -0.8007344819 0.7239821445
H -7.9234856271 1.6630185363 -0.8083828391
H -7.1457986391 1.8827218624 -2.4289444194
H 4.3282418271 -1.0851224212 -3.9474871784
H 4.8805118759 -2.6242312345 -3.1746461244
H 6.0071407182 -1.2229226304 -3.2817640109
H 0.3179958254 -0.1441548016 -1.7428449018
H 0.6537820079 1.4735284554 -2.4828155076
H -0.8931872187 1.2453363836 0.194741657
H -0.9133741663 2.6195159179 -0.9604627018
$end

$rem
JOBTYPE                   OPT
METHOD                    B3LYP
DFT_D                     d3_op
BASIS                     STO-3G
GEOM_OPT_MAX_CYCLES       100
GEOM_OPT_TOL_GRADIENT     300
GEOM_OPT_TOL_DISPLACEMENT 1200
GEOM_OPT_TOL_ENERGY       100
SYMMETRY                  False
THRESH                    12
SCF_CONVERGENCE           8
MAX_SUB_FILE_NUM          128
MEM_STATIC                400
MEM_TOTAL                 4000
$end
--------------------------------------------------------------

   16   -1510.2511251716      5.65E-09 Convergence criterion met
 Total energy in the final basis set = -1510.25112517
   14   -1510.2561775403      7.76E-09 Convergence criterion met
 Total energy in the final basis set = -1510.25617754
   13   -1510.2607896230      9.73E-09 Convergence criterion met
 Total energy in the final basis set = -1510.26078962
   14   -1510.2656251007      2.53E-09 Convergence criterion met
 Total energy in the final basis set = -1510.26562510
   14   -1510.2700872850      1.79E-09 Convergence criterion met
 Total energy in the final basis set = -1510.27008729
   13   -1510.2736402275      9.01E-09 Convergence criterion met
 Total energy in the final basis set = -1510.27364023
   14   -1510.2761563824      1.55E-09 Convergence criterion met
 Total energy in the final basis set = -1510.27615638
   13   -1510.2783209320      6.80E-09 Convergence criterion met
   13   -1510.2863033649      3.77E-09 Convergence criterion met
 Total energy in the final basis set = -1510.28630336
   12   -1510.2863228035      7.33E-09 Convergence criterion met
 Total energy in the final basis set = -1510.28632280
   13   -1510.2862178010      4.99E-09 Convergence criterion met
 Total energy in the final basis set = -1510.28621780
   13   -1510.2863252825      5.70E-09 Convergence criterion met
 Total energy in the final basis set = -1510.28632528
   11   -1510.2863290513      8.62E-09 Convergence criterion met
 Total energy in the final basis set = -1510.28632905
   11   -1510.2863412859      8.16E-09 Convergence criterion met
 Total energy in the final basis set = -1510.28634129

             Standard Nuclear Orientation (Angstroms)
    I     Atom           X                Y                Z
 ----------------------------------------------------------------
    1      O      -3.6752325391    -2.1515646855     1.5166997232
    2      C      -4.2159595833    -1.1779827948     0.9513067716
    3      C      -4.6119365330    -1.0618849250    -0.5689671580
    4      C      -3.7269017466    -0.0565311894    -1.4105501113
    5      C      -2.5138159122     0.5040433140    -0.5951098413
    6      O      -1.7861232476     1.4148227656    -1.4241360958
    7      C      -0.5587700791     1.8766821804    -0.7268562229
    8      C       0.5593049529     0.7705929428    -0.7732851669
    9      O       1.8081165984     1.2902324044    -0.1716122715
   10      C       2.0603443542     0.6313330842     1.0789266833
   11      C       3.4224058807     1.1319293673     1.6848830144
   12      C       4.5209997478    -0.0175122225     1.7323672290
   13      C       4.0243821553    -1.3864253312     1.1600324575
   14      O       4.1312126379    -2.5138395155     1.6876282811
   15      O      -4.7230660786    -0.0183165797     1.6298619905
   16      O       3.4132387615    -1.1448139444    -0.1144428452
   17      O       1.2810790171    -0.1964940250     1.6017691987
   18      C       2.7936777871    -2.3857877631    -0.6319365973
   19      C       4.1582801985     2.2149491397     0.7933535467
   20      C       5.2912553487     2.8901364379     1.6638365692
   21      C       6.3796180936     1.7531709706     1.6842339634
   22      C       5.6631181081     0.6331290558     0.8320341349
   23      O       4.9109517421     1.3975097547    -0.1862015805
   24      H       3.2163920733     1.5090354770     2.7034673286
   25      H       4.8738466370    -0.1970911917     2.7629162429
   26      H       3.4767527802     2.9128483407     0.2719115615
   27      H       5.6666696085     3.8002100073     1.1696408513
   28      H       4.9360231516     3.1568064028     2.6721138890
   29      H       7.3098274057     2.0750202772     1.1895368950
   30      H       6.6214973539     1.4106286129     2.7030446992
   31      H       6.3397046910    -0.0978315801     0.3481342385
   32      O      -2.1842807198     0.2028529406     0.5742527296
   33      C      -4.3081973246    -0.0559573165     3.0493672798
   34      C      -4.3449232488    -2.4205539796    -1.3434916489
   35      C      -5.2004213770    -2.4086947857    -2.6692492813
   36      C      -4.4019103272    -1.3615934546    -3.5316301860
   37      C      -3.2011792471    -1.0170946976    -2.5638210192
   38      O      -2.9534237556    -2.2824958149    -1.8377612863
   39      H      -5.6761820665    -0.7699962002    -0.6220858023
   40      H      -4.3142286556     0.7875931256    -1.8141442517
   41      H      -3.2032346436    -0.0238659156     3.1433669588
   42      H      -4.4391924653    -3.3253632868    -0.7123042604
   43      H      -5.1949469433    -3.4046757173    -3.1402099750
   44      H      -6.2449589846    -2.1073016375    -2.4908266560
   45      H      -4.0260826824    -1.8073095280    -4.4662751502
   46      H      -5.0005374192    -0.4708395208    -3.7816694264
   47      H      -2.2787146172    -0.6594889709    -3.0613727113
   48      H      -4.6798643511    -0.9667438041     3.5621076317
   49      H      -4.7476293560     0.8413380954     3.5228518329
   50      H       2.4625410132    -2.1564149320    -1.6613430074
   51      H       1.9171473788    -2.6775630063    -0.0171472084
   52      H       3.5142464420    -3.2280676328    -0.6477127781
   53      H       0.2253501412    -0.1174653240    -0.1943601500
   54      H       0.7772971967     0.4928058988    -1.8248664560
   55      H      -0.7794657332     2.1334707514     0.3311805294
   56      H      -0.2285511684     2.7848954614    -1.2694055434
 ----------------------------------------------------------------

   10   -1510.2863405553      8.81E-09 Convergence criterion met
 Total energy in the final basis set = -1510.28634056
 Final energy is   -1510.28634055531
 **  OPTIMIZATION CONVERGED  **

                    Orbital Energies (a.u.)
 --------------------------------------------------------------

 Alpha MOs
 -- Occupied --
-18.942 -18.933 -18.931 -18.916 -18.888 -18.888 -18.886 -18.875
-18.870 -18.858 -10.107 -10.099 -10.097 -10.087 -10.075 -10.065
-10.061 -10.061 -10.060 -10.058 -10.055 -10.051 -10.041 -10.038
-10.036 -10.031 -10.021 -10.020 -10.019 -10.019  -1.021  -1.013
 -1.004  -0.995  -0.970  -0.969  -0.945  -0.935  -0.933  -0.921
 -0.763  -0.762  -0.727  -0.722  -0.713  -0.705  -0.693  -0.657
 -0.651  -0.618  -0.596  -0.580  -0.546  -0.544  -0.537  -0.536
 -0.513  -0.509  -0.484  -0.479  -0.469  -0.457  -0.453  -0.440
 -0.433  -0.430  -0.422  -0.411  -0.409  -0.405  -0.400  -0.399
 -0.390  -0.379  -0.374  -0.365  -0.361  -0.358  -0.351  -0.345
 -0.342  -0.339  -0.333  -0.331  -0.331  -0.325  -0.322  -0.313
 -0.307  -0.307  -0.304  -0.302  -0.294  -0.292  -0.275  -0.274
 -0.271  -0.259  -0.250  -0.244  -0.242  -0.234  -0.232  -0.191
 -0.175  -0.167  -0.161  -0.160  -0.157  -0.148  -0.144  -0.143
 -0.138

          Ground-State Mulliken Net Atomic Charges

     Atom                 Charge (a.u.)
  ----------------------------------------
      1 O                    -0.216196
      2 C                     0.215948
      3 C                    -0.081698
      4 C                    -0.077594
      5 C                     0.214588
      6 O                    -0.171614
      7 C                    -0.050565
      8 C                    -0.057896
      9 O                    -0.170025
     10 C                     0.214855
     11 C                    -0.077645
     12 C                    -0.079342
     13 C                     0.210400
     14 O                    -0.208247
     15 O                    -0.177336
     16 O                    -0.167770
     17 O                    -0.217254
     18 C                    -0.129311
     19 C                     0.025224
     20 C                    -0.144562
     21 C                    -0.143634
     22 C                     0.026040
     23 O                    -0.185636
     24 H                     0.084495
     25 H                     0.085822
     26 H                     0.090145
     27 H                     0.077494
     28 H                     0.072943
     29 H                     0.077906
     30 H                     0.074226
     31 H                     0.083036
     32 O                    -0.202988
     33 C                    -0.128668
     34 C                     0.024473
     35 C                    -0.143707
     36 C                    -0.144049
     37 C                     0.024515
     38 O                    -0.190656
     39 H                     0.083304
     40 H                     0.087380
     41 H                     0.093333
     42 H                     0.090210
     43 H                     0.077945
     44 H                     0.073377
     45 H                     0.077972
     46 H                     0.073582
     47 H                     0.083800
     48 H                     0.086330
     49 H                     0.084927
     50 H                     0.090462
     51 H                     0.093509
     52 H                     0.091786
     53 H                     0.107076
     54 H                     0.085800
     55 H                     0.092921
     56 H                     0.090570
  ----------------------------------------
  Sum of atomic charges =    -0.000000

                    Cartesian Multipole Moments
 -----------------------------------------------------------------
    Charge (ESU x 10^10)
                -0.0000
    Dipole Moment (Debye)
         X      -0.6087      Y       2.9072      Z      -1.2936
       Tot       3.2398
    Quadrupole Moments (Debye-Ang)
        XX    -143.6243     XY       4.2601     YY    -162.3448
        XZ       9.7899     YZ      11.0163     ZZ    -154.6963

 Total job time:  125.93s(wall), 5999.88s(cpu)
        *  Thank you very much for using Q-Chem.  Have a nice day.  *
