 Q-Chem 5.0, Q-Chem, Inc., Pleasanton, CA (2017)
 Q-Chem 5.0.1 for Intel X86 EM64T Linux

User input:
--------------------------------------------------------------
$molecule
0  1
O -3.94934 -3.66094 2.70899
C -3.26408 -4.56952 2.26188
C -3.36658 -6.02376 2.66595
C -2.05619 -6.75261 3.00583
C -0.80881 -5.89985 3.0761
O 0.29667 -6.69924 3.14168
C 0.94349 -6.66215 4.4182
C 1.66893 -7.97829 4.6783
O 1.92261 -8.12778 6.08407
C 1.62974 -9.34595 6.60313
C 1.92879 -9.44348 8.0802
C 1.94824 -10.87186 8.64379
C 2.02466 -11.98561 7.61889
O 2.19271 -13.1701 7.87052
O -2.45652 -4.30931 1.19955
O 2.21395 -11.72369 6.29598
O 0.61887 -9.917 6.19939
C 2.39548 -12.65738 5.29287
C 3.35528 -8.9863 8.46479
C 3.37779 -8.57008 9.93479
C 3.22391 -9.91656 10.61264
C 3.28924 -10.84495 9.39423
O 4.12081 -10.16589 8.4853
H 1.19086 -8.7922 8.602
H 1.0672 -11.08276 9.28834
H 3.75051 -8.16156 7.83335
H 4.4017 -8.18387 10.14274
H 2.63244 -7.80122 10.23163
H 4.09743 -10.07344 11.28357
H 2.27653 -10.0594 11.17651
H 3.62694 -11.8608 9.69696
O -0.81988 -4.79668 3.61061
C -2.27784 -3.05922 0.64528
C -4.1682 -6.23788 3.96441
C -4.73173 -7.65621 3.9989
C -3.47016 -8.45142 4.24809
C -2.44592 -7.31889 4.38932
O -3.18377 -6.27078 4.96863
H -3.87845 -6.52479 1.8135
H -1.84591 -7.57371 2.28317
H -1.85838 -2.36244 1.4022
H -4.99123 -5.50449 4.10736
H -5.38378 -7.73496 4.8983
H -5.31034 -7.95162 3.09728
H -3.58229 -8.98876 5.21648
H -3.19438 -9.17174 3.44778
H -1.59 -7.70297 4.97331
H -3.24542 -2.66571 0.26678
H -1.56703 -3.13579 -0.20284
H 2.5142 -12.12984 4.3244
H 1.51085 -13.3264 5.22985
H 3.31034 -13.25703 5.48661
H 1.04821 -8.80155 4.25856
H 2.62151 -7.97806 4.10725
H 0.19313 -6.5569 5.23135
H 1.63299 -5.79494 4.509
$end

$opt
CONSTRAINT
tors           1           2           3           4    -131.919
tors           3           4           5           6    -169.018
tors           4           5           6           7    -109.947
tors           5           6           7           8    +152.092
tors           6           7           8           9    -160.602
tors           7           8           9          10    +134.146
tors           8           9          10          11    +179.513
tors           9          10          11          12    -165.623
tors          11          12          13          14    +171.763
ENDCONSTRAINT
$end

$rem
JOBTYPE                   OPT
METHOD                    B3LYP
DFT_D                     d3_op
BASIS                     STO-3G
GEOM_OPT_MAX_CYCLES       100
GEOM_OPT_TOL_GRADIENT     300
GEOM_OPT_TOL_DISPLACEMENT 1200
GEOM_OPT_TOL_ENERGY       100
SYMMETRY                  False
THRESH                    12
SCF_CONVERGENCE           8
MAX_SUB_FILE_NUM          128
MEM_STATIC                400
MEM_TOTAL                 4000
$end
--------------------------------------------------------------

   16   -1510.0859390535      2.72E-09 Convergence criterion met
 Total energy in the final basis set = -1510.08593905
   14   -1510.1624998142      6.40E-09 Convergence criterion met
 Total energy in the final basis set = -1510.16249981
   14   -1510.2063525837      8.14E-09 Convergence criterion met
 Total energy in the final basis set = -1510.20635258
   14   -1510.2289255072      6.75E-09 Convergence criterion met
 Total energy in the final basis set = -1510.22892551
   14   -1510.2399083955      1.79E-09 Convergence criterion met
 Total energy in the final basis set = -1510.23990840
   13   -1510.2458222289      7.53E-09 Convergence criterion met
 Total energy in the final basis set = -1510.24582223
   13   -1510.2487590308      4.22E-09 Convergence criterion met
 Total energy in the final basis set = -1510.24875903
   13   -1510.2502007341      3.35E-09 Convergence criterion met
   12   -1510.2511364456      2.67E-09 Convergence criterion met
 Total energy in the final basis set = -1510.25113645
   11   -1510.2511857918      9.86E-09 Convergence criterion met
 Total energy in the final basis set = -1510.25118579
   11   -1510.2512158339      5.94E-09 Convergence criterion met
 Total energy in the final basis set = -1510.25121583
   11   -1510.2512281576      3.89E-09 Convergence criterion met
 Total energy in the final basis set = -1510.25122816
   11   -1510.2512300872      3.47E-09 Convergence criterion met
 Total energy in the final basis set = -1510.25123009
    9   -1510.2512325068      9.22E-09 Convergence criterion met
 Total energy in the final basis set = -1510.25123251

             Standard Nuclear Orientation (Angstroms)
    I     Atom           X                Y                Z
 ----------------------------------------------------------------
    1      O      -6.4800029282     0.9726165022     1.1547919743
    2      C      -5.8475778542     0.4055368528     0.2389294405
    3      C      -4.8907909112    -0.8346507670     0.3772751735
    4      C      -3.4914460477    -0.6831488407    -0.3410908171
    5      C      -3.1787733694     0.8072821131    -0.7372453360
    6      O      -2.0230727808     0.8917906165    -1.6147110418
    7      C      -0.8864187577     1.5087566410    -0.8845243604
    8      C       0.4245049935     0.9435123580    -1.5344137438
    9      O       1.5411755311     1.1385821877    -0.5784300166
   10      C       2.3277463636    -0.0619954033    -0.4796248722
   11      C       3.4867332374     0.2293118005     0.5336874903
   12      C       4.7008472977    -0.7779789085     0.5826179794
   13      C       5.1602108192    -1.4539270212    -0.7680731008
   14      O       6.1918031666    -2.1511450652    -0.8973763694
   15      O      -6.0607874118     0.6437737067    -1.1609417787
   16      O       4.3972900771    -0.9780317502    -1.8762202376
   17      O       1.9956111244    -1.1501054236    -0.9965631524
   18      C       4.9472809017    -1.5177154527    -3.1402083406
   19      C       4.2341946064     1.6345298715     0.4158470270
   20      C       4.5681984669     2.0842757607     1.8895533915
   21      C       5.6303216338     0.9890401050     2.2809140624
   22      C       5.8657370218     0.2656455000     0.8946354206
   23      O       5.5748189678     1.3083895452    -0.1221002874
   24      H       2.9922336615     0.1952075624     1.5242822855
   25      H       4.5826079328    -1.5493971585     1.3640621727
   26      H       3.7184168824     2.3805022499    -0.2188227348
   27      H       5.0134249180     3.0923960285     1.8892780227
   28      H       3.6853879451     2.0845098678     2.5484288374
   29      H       6.5664688346     1.4382575984     2.6478062673
   30      H       5.2528719462     0.2900323235     3.0448267461
   31      H       6.8812551810    -0.1506312996     0.7466385753
   32      O      -3.7779945022     1.8081943995    -0.2878214313
   33      C      -6.9611279729     1.8034047410    -1.3417405899
   34      C      -4.4515864600    -1.1195521944     1.8737623401
   35      C      -4.0583784657    -2.6428771759     1.9735497456
   36      C      -2.7196680833    -2.6530417879     1.1456701898
   37      C      -2.5235947196    -1.1118728192     0.8479761369
   38      O      -3.1429612763    -0.4330977377     2.0086390366
   39      H      -5.4321630218    -1.7037123502    -0.0404501350
   40      H      -3.3834711453    -1.3344044668    -1.2264729421
   41      H      -6.4885524637     2.7387988315    -0.9776184090
   42      H      -5.1675625767    -0.7456605026     2.6316999608
   43      H      -3.8826685016    -2.9265260858     3.0236141395
   44      H      -4.8294212685    -3.3064119691     1.5509496031
   45      H      -1.8756310193    -3.0413861633     1.7373069426
   46      H      -2.7986044156    -3.2415160316     0.2173846998
   47      H      -1.4692426386    -0.8007344819     0.7239821445
   48      H      -7.9234856271     1.6630185363    -0.8083828391
   49      H      -7.1457986391     1.8827218624    -2.4289444194
   50      H       4.3282418271    -1.0851224212    -3.9474871784
   51      H       4.8805118759    -2.6242312345    -3.1746461244
   52      H       6.0071407182    -1.2229226304    -3.2817640109
   53      H       0.3179958254    -0.1441548016    -1.7428449018
   54      H       0.6537820079     1.4735284554    -2.4828155076
   55      H      -0.8931872187     1.2453363836     0.1947416570
   56      H      -0.9133741663     2.6195159179    -0.9604627018
 ----------------------------------------------------------------

    9   -1510.2512332100      4.83E-09 Convergence criterion met
 Total energy in the final basis set = -1510.25123321
 Final energy is   -1510.25123321003
 **  OPTIMIZATION CONVERGED  **

                    Orbital Energies (a.u.)
 --------------------------------------------------------------

 Alpha MOs
 -- Occupied --
-18.935 -18.933 -18.923 -18.909 -18.907 -18.890 -18.889 -18.882
-18.867 -18.866 -10.112 -10.106 -10.097 -10.094 -10.077 -10.070
-10.066 -10.062 -10.062 -10.061 -10.059 -10.057 -10.042 -10.042
-10.040 -10.035 -10.024 -10.023 -10.022 -10.021  -1.017  -1.014
 -1.008  -1.000  -0.974  -0.972  -0.945  -0.938  -0.931  -0.928
 -0.766  -0.765  -0.727  -0.724  -0.716  -0.707  -0.697  -0.660
 -0.656  -0.616  -0.600  -0.582  -0.548  -0.546  -0.540  -0.539
 -0.520  -0.512  -0.485  -0.476  -0.466  -0.457  -0.451  -0.449
 -0.440  -0.435  -0.432  -0.414  -0.409  -0.408  -0.406  -0.402
 -0.396  -0.382  -0.374  -0.369  -0.362  -0.360  -0.357  -0.351
 -0.344  -0.339  -0.338  -0.335  -0.332  -0.328  -0.318  -0.314
 -0.313  -0.307  -0.305  -0.303  -0.298  -0.293  -0.284  -0.274
 -0.272  -0.256  -0.249  -0.248  -0.245  -0.238  -0.236  -0.183
 -0.174  -0.169  -0.164  -0.162  -0.160  -0.149  -0.149  -0.145
 -0.145

          Ground-State Mulliken Net Atomic Charges

     Atom                 Charge (a.u.)
  ----------------------------------------
      1 O                    -0.215877
      2 C                     0.215591
      3 C                    -0.081583
      4 C                    -0.078157
      5 C                     0.225973
      6 O                    -0.194654
      7 C                    -0.046971
      8 C                    -0.054557
      9 O                    -0.178630
     10 C                     0.216970
     11 C                    -0.079318
     12 C                    -0.076028
     13 C                     0.212246
     14 O                    -0.219317
     15 O                    -0.176787
     16 O                    -0.164071
     17 O                    -0.208539
     18 C                    -0.125735
     19 C                     0.025321
     20 C                    -0.141231
     21 C                    -0.146077
     22 C                     0.023693
     23 O                    -0.192006
     24 H                     0.083994
     25 H                     0.085799
     26 H                     0.090145
     27 H                     0.078470
     28 H                     0.074108
     29 H                     0.079245
     30 H                     0.073829
     31 H                     0.087452
     32 O                    -0.179740
     33 C                    -0.128531
     34 C                     0.023627
     35 C                    -0.142742
     36 C                    -0.143901
     37 C                     0.022957
     38 O                    -0.192082
     39 H                     0.084167
     40 H                     0.088988
     41 H                     0.091002
     42 H                     0.092399
     43 H                     0.078549
     44 H                     0.074429
     45 H                     0.078839
     46 H                     0.075413
     47 H                     0.079288
     48 H                     0.087963
     49 H                     0.087735
     50 H                     0.090562
     51 H                     0.089584
     52 H                     0.090783
     53 H                     0.102980
     54 H                     0.086130
     55 H                     0.083564
     56 H                     0.084739
  ----------------------------------------
  Sum of atomic charges =     0.000000

                    Cartesian Multipole Moments
 -----------------------------------------------------------------
    Charge (ESU x 10^10)
                 0.0000
    Dipole Moment (Debye)
         X       0.0303      Y      -1.0314      Z      -0.0392
       Tot       1.0326
    Quadrupole Moments (Debye-Ang)
        XX    -171.2406     XY      12.8835     YY    -159.8820
        XZ      11.9780     YZ      -3.3858     ZZ    -156.0692

 Total job time:  52.85s(wall), 2511.72s(cpu)
        *  Thank you very much for using Q-Chem.  Have a nice day.  *
