 Q-Chem 5.0, Q-Chem, Inc., Pleasanton, CA (2017)
 Q-Chem 5.0.1 for Intel X86 EM64T Linux

User input:
--------------------------------------------------------------
$molecule
0  1
O -3.3011223454 -0.3240319306 2.6142215875
C -2.612641245 -0.0828735552 1.5987658531
C -3.0584418958 0.7068786258 0.3190383177
C -2.409941603 0.4313974167 -1.1018731057
C -1.9911897741 -1.0441252669 -1.4887836542
O -1.4052006143 -1.8122323691 -0.4284411906
C -0.6105879266 -2.9234518794 -1.0118775761
C 0.8832491053 -3.1438230091 -0.5525338314
O 1.9833106028 -2.1883856674 -0.8245316662
C 1.7641302467 -0.831714732 -0.478834393
C 3.059565208 -0.0077685671 -0.8419332168
C 3.2774532587 1.174778518 0.1930372276
C 2.0242290697 1.4720323919 1.093969858
O 1.8615578723 1.1569616757 2.2959633347
O -1.184859473 -0.1224024679 1.5697225866
O 1.1683538552 2.3506551458 0.3606143268
O 0.7289036535 -0.37421076 0.0470140074
C -0.0841817348 2.5696515181 1.1213179425
C 4.3596409586 -0.8705780693 -0.5656209599
C 5.6372094349 -0.0730051164 -1.0432116123
C 5.8167191879 0.9610044134 0.1305898807
C 4.5367918608 0.6461405521 0.9981771132
O 4.4368132314 -0.8304358878 0.9147576164
H 2.986662585 0.3528047778 -1.8844416753
H 3.51763619 2.1071760018 -0.3482036913
H 4.2848362152 -1.9149179704 -0.9233478969
H 6.5045014038 -0.7464262335 -1.1291904609
H 5.4739033144 0.4170315733 -2.0166412189
H 6.7321769308 0.7572760565 0.7091294171
H 5.8425612658 2.0054168263 -0.2189672404
H 4.5731285939 0.9715789875 2.0558775501
O -2.0572509398 -1.4682563401 -2.6675619516
C -0.5939829232 -0.6316722271 2.8275246422
C -4.6117687422 0.6864164591 -0.0313608092
C -4.9823944613 2.1453141853 -0.5019972466
C -4.1715985565 2.2190766319 -1.8502681956
C -3.6803943407 0.7258962442 -2.0073378294
O -4.7064887561 -0.0810975745 -1.2956563897
H -2.7925992386 1.7504460386 0.5764170573
H -1.5410986544 1.0902436719 -1.2874746499
H -1.247453862 -0.4031663843 3.692646106
H -5.2575875348 0.2461622974 0.7532588548
H -6.0666011194 2.2257230783 -0.6822489953
H -4.683100605 2.9176465736 0.2245836483
H -4.8117702401 2.5093651089 -2.6979087794
H -3.3241253711 2.9214034524 -1.7937261999
H -3.5603018474 0.363899493 -3.0468630497
H 0.3871051509 -0.1153943177 2.915858898
H -0.4457602034 -1.7279500087 2.7605688743
H -0.7121961173 3.2231015137 0.4887787461
H 0.1123076185 3.0749236111 2.0887779683
H -0.588158517 1.5892730777 1.3040216658
H 0.874306379 -3.3473693005 0.5431827787
H 1.2122276926 -4.0722107711 -1.0642943947
H -0.6727973051 -2.8210769257 -2.1188085361
H -1.1184669918 -3.8757002987 -0.7403005038
$end

$rem
JOBTYPE                   OPT
METHOD                    B3LYP
DFT_D                     d3_op
BASIS                     STO-3G
GEOM_OPT_MAX_CYCLES       100
GEOM_OPT_TOL_GRADIENT     300
GEOM_OPT_TOL_DISPLACEMENT 1200
GEOM_OPT_TOL_ENERGY       100
SYMMETRY                  False
THRESH                    12
SCF_CONVERGENCE           8
MAX_SUB_FILE_NUM          128
MEM_STATIC                400
MEM_TOTAL                 4000
$end
--------------------------------------------------------------

   16   -1510.2651052140      4.62E-09 Convergence criterion met
 Total energy in the final basis set = -1510.26510521
   14   -1510.2644746319      4.12E-09 Convergence criterion met
 Total energy in the final basis set = -1510.26447463
   13   -1510.2717105471      9.34E-09 Convergence criterion met
 Total energy in the final basis set = -1510.27171055
   13   -1510.2755568459      9.16E-09 Convergence criterion met
 Total energy in the final basis set = -1510.27555685
   14   -1510.2720705675      3.47E-09 Convergence criterion met
 Total energy in the final basis set = -1510.27207057
   13   -1510.2774103851      7.78E-09 Convergence criterion met
 Total energy in the final basis set = -1510.27741039
   14   -1510.2822424813      7.72E-09 Convergence criterion met
 Total energy in the final basis set = -1510.28224248
   14   -1510.2676051894      5.19E-09 Convergence criterion met
   11   -1510.3012632324      7.48E-09 Convergence criterion met
 Total energy in the final basis set = -1510.30126323
   10   -1510.3012686467      7.91E-09 Convergence criterion met
 Total energy in the final basis set = -1510.30126865
   11   -1510.3012632848      2.31E-09 Convergence criterion met
 Total energy in the final basis set = -1510.30126328
   10   -1510.3012631168      8.46E-09 Convergence criterion met
 Total energy in the final basis set = -1510.30126312
   10   -1510.3012612523      8.74E-09 Convergence criterion met
 Total energy in the final basis set = -1510.30126125
    9   -1510.3012616472      4.35E-09 Convergence criterion met
 Total energy in the final basis set = -1510.30126165

             Standard Nuclear Orientation (Angstroms)
    I     Atom           X                Y                Z
 ----------------------------------------------------------------
    1      O      -3.7268577285    -0.7944346164     1.9271947536
    2      C      -2.9823917313     0.1258471581     1.5323650638
    3      C      -2.6974852737     0.6119575448     0.0739793472
    4      C      -1.4517237577    -0.0812141445    -0.6204605665
    5      C      -0.9993725655    -1.4280489143     0.0370534571
    6      O      -0.8575003492    -1.2437040121     1.4571369197
    7      C      -0.3495080814    -2.4827632228     2.0895179226
    8      C       1.2136348485    -2.3887020781     2.2519777845
    9      O       1.8216051068    -2.1473701869     0.9214024606
   10      C       1.9700927881    -0.7417133353     0.6971635649
   11      C       2.3714458033    -0.5170793034    -0.7975166210
   12      C       2.3821145084     1.0133738250    -1.2051859526
   13      C       1.9212530872     1.9856318175    -0.0580374198
   14      O       2.6296788537     2.7509278972     0.6270933454
   15      O      -2.2516400159     1.0053096282     2.4109436070
   16      O       0.4824707154     1.9515454130    -0.0103505232
   17      O       1.8202466054     0.1358901104     1.5774598516
   18      C      -0.0371024089     2.6929634037     1.1638048298
   19      C       3.8941970339    -0.9030104235    -1.0490663784
   20      C       4.1417990453    -0.9675294397    -2.6073246599
   21      C       4.1819614856     0.5629973371    -2.9744606077
   22      C       3.9127519863     1.2193572455    -1.5642075605
   23      O       4.6169112152     0.3156306128    -0.6236733712
   24      H       1.6920310074    -1.1142151627    -1.4325753099
   25      H       1.7301503827     1.1825678491    -2.0808358629
   26      H       4.2385562139    -1.7866118521    -0.4773744069
   27      H       5.1022862544    -1.4615172213    -2.8237980173
   28      H       3.3388582594    -1.5107039441    -3.1309716421
   29      H       5.1722396451     0.8602138289    -3.3548156329
   30      H       3.4184433971     0.8433407700    -3.7175734259
   31      H       4.2708034296     2.2593215022    -1.4375252057
   32      O      -0.7664956367    -2.5076985845    -0.5478233683
   33      C      -2.3714221168     0.5525171918     3.8125372520
   34      C      -3.8415606977     0.3124544777    -0.9900504752
   35      C      -3.7016532227     1.4004705764    -2.1247727930
   36      C      -2.3643216720     0.9355745877    -2.8140492082
   37      C      -2.0632322393    -0.4083136932    -2.0382874525
   38      O      -3.4070238547    -0.9269007991    -1.6737562412
   39      H      -2.5164407367     1.6986440367     0.1333370457
   40      H      -0.5895185655     0.6302408207    -0.6080722463
   41      H      -3.4322240795     0.4725753399     4.1260067555
   42      H      -4.8553484674     0.1858080384    -0.5633048355
   43      H      -4.5539787456     1.3386919647    -2.8203438646
   44      H      -3.6432012911     2.4250371804    -1.7238962342
   45      H      -2.5050614599     0.7442229425    -3.8895395059
   46      H      -1.5505177424     1.6676710558    -2.6875975373
   47      H      -1.4988376450    -1.1754181907    -2.6031331228
   48      H      -1.8560616514     1.3124083645     4.4282012512
   49      H      -1.8841588446    -0.4330244798     3.9577735229
   50      H      -0.5390413146     3.6185624397     0.8163782028
   51      H       0.8021461793     2.9659119546     1.8319316266
   52      H      -0.7739104256     2.0418356817     1.6902230886
   53      H       1.4782137227    -1.5589470511     2.9411663855
   54      H       1.6180942198    -3.3497958139     2.6289223237
   55      H      -0.6077455957    -3.3556740268     1.4528448222
   56      H      -0.8341533973    -2.5714406842     3.0830732381
 ----------------------------------------------------------------

    9   -1510.3012613640      4.91E-09 Convergence criterion met
 Total energy in the final basis set = -1510.30126136
 Final energy is   -1510.30126136402
 **  OPTIMIZATION CONVERGED  **

                    Orbital Energies (a.u.)
 --------------------------------------------------------------

 Alpha MOs
 -- Occupied --
-18.944 -18.937 -18.935 -18.929 -18.891 -18.890 -18.881 -18.878
-18.874 -18.872 -10.110 -10.100 -10.100 -10.099 -10.078 -10.076
-10.065 -10.064 -10.060 -10.055 -10.053 -10.043 -10.042 -10.039
-10.031 -10.023 -10.021 -10.021 -10.017 -10.016  -1.028  -1.014
 -1.007  -1.003  -0.973  -0.964  -0.948  -0.939  -0.936  -0.932
 -0.767  -0.759  -0.730  -0.722  -0.714  -0.704  -0.698  -0.663
 -0.653  -0.620  -0.599  -0.581  -0.549  -0.544  -0.539  -0.534
 -0.515  -0.507  -0.493  -0.472  -0.469  -0.460  -0.456  -0.446
 -0.432  -0.431  -0.429  -0.420  -0.412  -0.410  -0.407  -0.403
 -0.395  -0.382  -0.375  -0.368  -0.367  -0.358  -0.351  -0.351
 -0.346  -0.339  -0.336  -0.335  -0.329  -0.327  -0.326  -0.315
 -0.308  -0.307  -0.304  -0.303  -0.296  -0.285  -0.283  -0.278
 -0.272  -0.257  -0.252  -0.246  -0.241  -0.237  -0.226  -0.199
 -0.179  -0.171  -0.168  -0.164  -0.159  -0.152  -0.149  -0.147
 -0.139

          Ground-State Mulliken Net Atomic Charges

     Atom                 Charge (a.u.)
  ----------------------------------------
      1 O                    -0.213526
      2 C                     0.217243
      3 C                    -0.082706
      4 C                    -0.096576
      5 C                     0.207562
      6 O                    -0.175786
      7 C                    -0.053164
      8 C                    -0.052947
      9 O                    -0.170148
     10 C                     0.213004
     11 C                    -0.079519
     12 C                    -0.082078
     13 C                     0.222486
     14 O                    -0.210062
     15 O                    -0.172260
     16 O                    -0.182655
     17 O                    -0.204075
     18 C                    -0.145910
     19 C                     0.025878
     20 C                    -0.143661
     21 C                    -0.143907
     22 C                     0.025227
     23 O                    -0.188195
     24 H                     0.090672
     25 H                     0.083177
     26 H                     0.086478
     27 H                     0.079108
     28 H                     0.075315
     29 H                     0.078837
     30 H                     0.073370
     31 H                     0.089699
     32 O                    -0.211678
     33 C                    -0.126085
     34 C                     0.023472
     35 C                    -0.141954
     36 C                    -0.145516
     37 C                     0.021643
     38 O                    -0.190510
     39 H                     0.084253
     40 H                     0.114270
     41 H                     0.090152
     42 H                     0.084689
     43 H                     0.076810
     44 H                     0.072267
     45 H                     0.076058
     46 H                     0.073594
     47 H                     0.085707
     48 H                     0.090543
     49 H                     0.086267
     50 H                     0.074435
     51 H                     0.097995
     52 H                     0.108754
     53 H                     0.100301
     54 H                     0.091806
     55 H                     0.103158
     56 H                     0.088684
  ----------------------------------------
  Sum of atomic charges =    -0.000000

                    Cartesian Multipole Moments
 -----------------------------------------------------------------
    Charge (ESU x 10^10)
                -0.0000
    Dipole Moment (Debye)
         X       0.0483      Y       0.4549      Z      -0.2359
       Tot       0.5147
    Quadrupole Moments (Debye-Ang)
        XX    -171.8065     XY     -15.1156     YY    -161.9391
        XZ      -8.2925     YZ      -8.6589     ZZ    -146.5978

 Total job time:  147.77s(wall), 7049.30s(cpu)
        *  Thank you very much for using Q-Chem.  Have a nice day.  *
