 Q-Chem 5.0, Q-Chem, Inc., Pleasanton, CA (2017)
 Q-Chem 5.0.1 for Intel X86 EM64T Linux

User input:
--------------------------------------------------------------
$molecule
0  1
O -3.94934 -3.66094 2.70899
C -3.26408 -4.56952 2.26188
C -3.36658 -6.02376 2.66595
C -2.09652 -6.8804 2.53568
C -0.82114 -6.1466 2.18491
O -1.08498 -5.1704 1.26684
C 0.07207 -4.76463 0.52803
C -0.21803 -4.80818 -0.96866
O -0.43323 -6.16547 -1.38617
C -1.33535 -6.86475 -0.65382
C -1.52559 -8.27878 -1.1488
C -2.94724 -8.83602 -0.98551
C -4.02839 -7.81408 -0.69661
O -4.84904 -7.40289 -1.50409
O -3.1691 -4.36165 0.91232
O -4.52369 -7.98507 0.55733
O -2.30182 -6.26029 -0.27163
C -5.85803 -7.80362 0.89069
C -1.31286 -8.50086 -2.66622
C -0.9507 -9.96302 -2.92275
C -2.2771 -10.63693 -2.64335
C -3.16247 -9.40958 -2.40053
O -2.60162 -8.41365 -3.22078
H -0.78657 -8.88938 -0.58325
H -2.99512 -9.63513 -0.21032
H -0.54037 -7.84763 -3.12427
H -0.72856 -10.0575 -4.01011
H -0.08811 -10.35145 -2.33961
H -2.59638 -11.17714 -3.56216
H -2.28607 -11.32762 -1.77239
H -4.22804 -9.66252 -2.59601
O 0.2865 -6.62829 2.39909
C -3.45259 -3.20325 0.19045
C -3.5744 -6.11302 4.20193
C -4.21146 -7.44585 4.58491
C -3.05978 -8.38791 4.33005
C -1.95737 -7.37824 3.9891
O -2.28283 -6.23662 4.73537
H -4.28226 -6.40647 2.22248
H -2.19732 -7.74599 1.84828
H -3.82345 -2.36421 0.81528
H -4.1884 -5.28634 4.62225
H -4.39665 -7.40578 5.6828
H -5.16179 -7.69972 4.07463
H -2.83202 -8.92826 5.27573
H -3.21496 -9.11494 3.50335
H -0.96279 -7.82841 4.20137
H -4.2204 -3.43326 -0.5764
H -2.53971 -2.83772 -0.31256
H -6.01001 -8.0439 1.96005
H -6.49636 -8.48978 0.29381
H -6.16524 -6.75172 0.70516
H -1.10233 -4.19533 -1.22063
H 0.64304 -4.39492 -1.53508
H 1.01085 -5.3328 0.7092
H 0.28114 -3.70619 0.79176
$end

$opt
CONSTRAINT
tors           1           2           3           4    -152.513
tors           3           4           5           6     -39.208
tors           4           5           6           7    -158.591
tors           5           6           7           8    +128.766
tors           6           7           8           9     -66.184
tors           7           8           9          10     +50.911
tors           8           9          10          11    +179.513
tors           9          10          11          12    -146.461
tors          11          12          13          14    +103.916
ENDCONSTRAINT
$end

$rem
JOBTYPE                   OPT
METHOD                    B3LYP
DFT_D                     d3_op
BASIS                     STO-3G
GEOM_OPT_MAX_CYCLES       100
GEOM_OPT_TOL_GRADIENT     300
GEOM_OPT_TOL_DISPLACEMENT 1200
GEOM_OPT_TOL_ENERGY       100
SYMMETRY                  False
THRESH                    12
SCF_CONVERGENCE           8
MAX_SUB_FILE_NUM          128
MEM_STATIC                400
MEM_TOTAL                 4000
$end
--------------------------------------------------------------

   16   -1510.0461061491      3.50E-09 Convergence criterion met
 Total energy in the final basis set = -1510.04610615
   15   -1510.1252504051      3.31E-09 Convergence criterion met
 Total energy in the final basis set = -1510.12525041
   15   -1510.1820813911      2.81E-09 Convergence criterion met
 Total energy in the final basis set = -1510.18208139
   14   -1510.2115938118      7.35E-09 Convergence criterion met
 Total energy in the final basis set = -1510.21159381
   15   -1510.2291080612      1.51E-09 Convergence criterion met
 Total energy in the final basis set = -1510.22910806
   14   -1510.2409465651      7.43E-09 Convergence criterion met
 Total energy in the final basis set = -1510.24094657
   13   -1510.2478223804      9.99E-09 Convergence criterion met
 Total energy in the final basis set = -1510.24782238
   13   -1510.2530909715      7.69E-09 Convergence criterion met
   11   -1510.2650255550      2.30E-09 Convergence criterion met
 Total energy in the final basis set = -1510.26502556
   10   -1510.2650311334      8.71E-09 Convergence criterion met
 Total energy in the final basis set = -1510.26503113
    9   -1510.2650336485      8.31E-09 Convergence criterion met
 Total energy in the final basis set = -1510.26503365
    9   -1510.2650359851      4.94E-09 Convergence criterion met
 Total energy in the final basis set = -1510.26503599
    9   -1510.2650376461      2.40E-09 Convergence criterion met
 Total energy in the final basis set = -1510.26503765
    9   -1510.2650386832      4.17E-09 Convergence criterion met
 Total energy in the final basis set = -1510.26503868

             Standard Nuclear Orientation (Angstroms)
    I     Atom           X                Y                Z
 ----------------------------------------------------------------
    1      O      -3.3011223454    -0.3240319306     2.6142215875
    2      C      -2.6126412450    -0.0828735552     1.5987658531
    3      C      -3.0584418958     0.7068786258     0.3190383177
    4      C      -2.4099416030     0.4313974167    -1.1018731057
    5      C      -1.9911897741    -1.0441252669    -1.4887836542
    6      O      -1.4052006143    -1.8122323691    -0.4284411906
    7      C      -0.6105879266    -2.9234518794    -1.0118775761
    8      C       0.8832491053    -3.1438230091    -0.5525338314
    9      O       1.9833106028    -2.1883856674    -0.8245316662
   10      C       1.7641302467    -0.8317147320    -0.4788343930
   11      C       3.0595652080    -0.0077685671    -0.8419332168
   12      C       3.2774532587     1.1747785180     0.1930372276
   13      C       2.0242290697     1.4720323919     1.0939698580
   14      O       1.8615578723     1.1569616757     2.2959633347
   15      O      -1.1848594730    -0.1224024679     1.5697225866
   16      O       1.1683538552     2.3506551458     0.3606143268
   17      O       0.7289036535    -0.3742107600     0.0470140074
   18      C      -0.0841817348     2.5696515181     1.1213179425
   19      C       4.3596409586    -0.8705780693    -0.5656209599
   20      C       5.6372094349    -0.0730051164    -1.0432116123
   21      C       5.8167191879     0.9610044134     0.1305898807
   22      C       4.5367918608     0.6461405521     0.9981771132
   23      O       4.4368132314    -0.8304358878     0.9147576164
   24      H       2.9866625850     0.3528047778    -1.8844416753
   25      H       3.5176361900     2.1071760018    -0.3482036913
   26      H       4.2848362152    -1.9149179704    -0.9233478969
   27      H       6.5045014038    -0.7464262335    -1.1291904609
   28      H       5.4739033144     0.4170315733    -2.0166412189
   29      H       6.7321769308     0.7572760565     0.7091294171
   30      H       5.8425612658     2.0054168263    -0.2189672404
   31      H       4.5731285939     0.9715789875     2.0558775501
   32      O      -2.0572509398    -1.4682563401    -2.6675619516
   33      C      -0.5939829232    -0.6316722271     2.8275246422
   34      C      -4.6117687422     0.6864164591    -0.0313608092
   35      C      -4.9823944613     2.1453141853    -0.5019972466
   36      C      -4.1715985565     2.2190766319    -1.8502681956
   37      C      -3.6803943407     0.7258962442    -2.0073378294
   38      O      -4.7064887561    -0.0810975745    -1.2956563897
   39      H      -2.7925992386     1.7504460386     0.5764170573
   40      H      -1.5410986544     1.0902436719    -1.2874746499
   41      H      -1.2474538620    -0.4031663843     3.6926461060
   42      H      -5.2575875348     0.2461622974     0.7532588548
   43      H      -6.0666011194     2.2257230783    -0.6822489953
   44      H      -4.6831006050     2.9176465736     0.2245836483
   45      H      -4.8117702401     2.5093651089    -2.6979087794
   46      H      -3.3241253711     2.9214034524    -1.7937261999
   47      H      -3.5603018474     0.3638994930    -3.0468630497
   48      H       0.3871051509    -0.1153943177     2.9158588980
   49      H      -0.4457602034    -1.7279500087     2.7605688743
   50      H      -0.7121961173     3.2231015137     0.4887787461
   51      H       0.1123076185     3.0749236111     2.0887779683
   52      H      -0.5881585170     1.5892730777     1.3040216658
   53      H       0.8743063790    -3.3473693005     0.5431827787
   54      H       1.2122276926    -4.0722107711    -1.0642943947
   55      H      -0.6727973051    -2.8210769257    -2.1188085361
   56      H      -1.1184669918    -3.8757002987    -0.7403005038
 ----------------------------------------------------------------

    8   -1510.2650389533      5.76E-09 Convergence criterion met
 Total energy in the final basis set = -1510.26503895
 Final energy is   -1510.26503895328
 **  OPTIMIZATION CONVERGED  **

                    Orbital Energies (a.u.)
 --------------------------------------------------------------

 Alpha MOs
 -- Occupied --
-18.944 -18.937 -18.936 -18.919 -18.886 -18.884 -18.883 -18.875
-18.874 -18.860 -10.108 -10.101 -10.100 -10.092 -10.085 -10.071
-10.058 -10.056 -10.056 -10.055 -10.046 -10.041 -10.040 -10.038
-10.035 -10.032 -10.020 -10.020 -10.019 -10.018  -1.022  -1.012
 -1.007  -0.997  -0.968  -0.967  -0.947  -0.936  -0.933  -0.924
 -0.762  -0.761  -0.731  -0.721  -0.714  -0.702  -0.699  -0.653
 -0.650  -0.621  -0.598  -0.581  -0.545  -0.541  -0.537  -0.535
 -0.511  -0.505  -0.486  -0.477  -0.463  -0.453  -0.451  -0.445
 -0.431  -0.429  -0.423  -0.417  -0.413  -0.405  -0.403  -0.398
 -0.392  -0.386  -0.370  -0.367  -0.361  -0.359  -0.350  -0.345
 -0.343  -0.337  -0.332  -0.328  -0.327  -0.325  -0.318  -0.313
 -0.309  -0.307  -0.307  -0.300  -0.298  -0.286  -0.278  -0.274
 -0.266  -0.254  -0.249  -0.240  -0.234  -0.232  -0.230  -0.192
 -0.177  -0.170  -0.161  -0.156  -0.152  -0.150  -0.144  -0.142
 -0.141

          Ground-State Mulliken Net Atomic Charges

     Atom                 Charge (a.u.)
  ----------------------------------------
      1 O                    -0.212950
      2 C                     0.215014
      3 C                    -0.080297
      4 C                    -0.070896
      5 C                     0.215706
      6 O                    -0.160017
      7 C                    -0.057487
      8 C                    -0.047158
      9 O                    -0.172883
     10 C                     0.216006
     11 C                    -0.076247
     12 C                    -0.082596
     13 C                     0.217222
     14 O                    -0.227827
     15 O                    -0.155385
     16 O                    -0.174619
     17 O                    -0.197181
     18 C                    -0.146706
     19 C                     0.022585
     20 C                    -0.145307
     21 C                    -0.142642
     22 C                     0.023234
     23 O                    -0.192252
     24 H                     0.085496
     25 H                     0.083531
     26 H                     0.090649
     27 H                     0.077657
     28 H                     0.072765
     29 H                     0.077537
     30 H                     0.073083
     31 H                     0.087792
     32 O                    -0.216825
     33 C                    -0.136059
     34 C                     0.021900
     35 C                    -0.141126
     36 C                    -0.146557
     37 C                     0.022389
     38 O                    -0.192514
     39 H                     0.083796
     40 H                     0.092653
     41 H                     0.090614
     42 H                     0.088964
     43 H                     0.077870
     44 H                     0.072565
     45 H                     0.078527
     46 H                     0.072509
     47 H                     0.091230
     48 H                     0.110992
     49 H                     0.081795
     50 H                     0.073708
     51 H                     0.078100
     52 H                     0.110788
     53 H                     0.087508
     54 H                     0.094983
     55 H                     0.100430
     56 H                     0.085933
  ----------------------------------------
  Sum of atomic charges =    -0.000000

                    Cartesian Multipole Moments
 -----------------------------------------------------------------
    Charge (ESU x 10^10)
                 0.0000
    Dipole Moment (Debye)
         X       1.9781      Y       1.0333      Z      -1.6620
       Tot       2.7825
    Quadrupole Moments (Debye-Ang)
        XX    -161.7684     XY      -5.2188     YY    -148.9979
        XZ      -5.7638     YZ      -0.8025     ZZ    -166.8201

 Total job time:  94.36s(wall), 4497.20s(cpu)
        *  Thank you very much for using Q-Chem.  Have a nice day.  *
