 Q-Chem 5.0, Q-Chem, Inc., Pleasanton, CA (2017)
 Q-Chem 5.0.1 for Intel X86 EM64T Linux

User input:
--------------------------------------------------------------
$molecule
0  1
O -3.94934 -3.66094 2.70899
C -3.26408 -4.56952 2.26188
C -3.36658 -6.02376 2.66595
C -2.05117 -6.80485 2.81908
C -0.77395 -5.99992 2.72477
O 0.1865 -6.72732 2.08146
C 1.41662 -6.80435 2.80955
C 2.15494 -8.09213 2.45935
O 2.50789 -8.79604 3.66052
C 1.8615 -8.39445 4.78303
C 2.26786 -9.17825 6.00827
C 1.44816 -8.87616 7.27124
C 0.14792 -8.12913 7.05212
O -0.87727 -8.61056 6.59191
O -2.5027 -4.31672 1.16385
O 0.10408 -6.88821 7.60585
O 0.665 -8.26912 4.6401
C -0.96808 -6.02673 7.54417
C 2.01656 -10.70314 5.89954
C 2.95796 -11.44079 6.85074
C 2.36559 -11.05331 8.19186
C 1.11036 -10.30316 7.72919
O 0.76854 -10.91999 6.51181
H 3.36194 -9.01959 6.14234
H 2.05535 -8.2968 8.00246
H 2.12786 -11.10055 4.86738
H 2.78515 -12.52913 6.6878
H 4.04128 -11.22458 6.73072
H 2.10179 -11.98404 8.74117
H 3.00805 -10.40299 8.82445
H 0.32788 -10.31365 8.52004
O -0.54454 -4.99839 3.39274
C -2.34435 -3.07064 0.59445
C -4.06892 -6.22068 4.00507
C -4.58186 -7.65923 4.12718
C -3.28281 -8.39373 4.36678
C -2.29675 -7.22915 4.27895
O -2.9949 -6.16975 4.88721
H -3.9644 -6.48217 1.8464
H -1.98382 -7.70807 2.16932
H -1.89118 -2.3706 1.32858
H -4.89443 -5.49809 4.18399
H -5.21804 -7.75348 5.03564
H -5.15308 -7.98801 3.23214
H -3.28486 -8.76525 5.41586
H -3.06696 -9.23561 3.67451
H -1.37047 -7.45475 4.75628
H -3.32585 -2.67643 0.25459
H -1.67015 -3.15476 -0.28238
H -0.73266 -5.11463 8.12968
H -1.87584 -6.50384 7.97131
H -1.14352 -5.72264 6.49514
H 1.58432 -8.74855 1.76762
H 3.11643 -7.84231 1.95613
H 1.50469 -6.26341 3.78289
H 2.03236 -6.05248 2.26652
$end

$opt
CONSTRAINT
tors           1           2           3           4    -140.054
tors           3           4           5           6    -143.167
tors           4           5           6           7    -127.935
tors           5           6           7           8    +152.092
tors           6           7           8           9    -128.174
tors           7           8           9          10     +15.651
tors           8           9          10          11    +179.574
tors           9          10          11          12    -173.140
tors          11          12          13          14     +74.800
ENDCONSTRAINT
$end

$rem
JOBTYPE                   OPT
METHOD                    B3LYP
DFT_D                     d3_op
BASIS                     STO-3G
GEOM_OPT_MAX_CYCLES       100
GEOM_OPT_TOL_GRADIENT     300
GEOM_OPT_TOL_DISPLACEMENT 1200
GEOM_OPT_TOL_ENERGY       100
SYMMETRY                  False
THRESH                    12
SCF_CONVERGENCE           8
MAX_SUB_FILE_NUM          128
MEM_STATIC                400
MEM_TOTAL                 4000
$end
--------------------------------------------------------------

   15   -1510.0588747069      7.76E-09 Convergence criterion met
 Total energy in the final basis set = -1510.05887471
   14   -1510.1401136348      7.79E-09 Convergence criterion met
 Total energy in the final basis set = -1510.14011363
   15   -1510.1857805551      2.79E-09 Convergence criterion met
 Total energy in the final basis set = -1510.18578056
   14   -1510.2164384212      4.15E-09 Convergence criterion met
 Total energy in the final basis set = -1510.21643842
   13   -1510.2315735557      7.67E-09 Convergence criterion met
 Total energy in the final basis set = -1510.23157356
   14   -1510.2415789290      1.55E-09 Convergence criterion met
 Total energy in the final basis set = -1510.24157893
   13   -1510.2489072324      6.18E-09 Convergence criterion met
 Total energy in the final basis set = -1510.24890723
   13   -1510.2546016683      3.10E-09 Convergence criterion met
   12   -1510.2636748823      2.80E-09 Convergence criterion met
 Total energy in the final basis set = -1510.26367488
   11   -1510.2637432068      4.35E-09 Convergence criterion met
 Total energy in the final basis set = -1510.26374321
   11   -1510.2637764676      5.87E-09 Convergence criterion met
 Total energy in the final basis set = -1510.26377647
   11   -1510.2637917611      2.31E-09 Convergence criterion met
 Total energy in the final basis set = -1510.26379176
    9   -1510.2637978936      8.38E-09 Convergence criterion met
 Total energy in the final basis set = -1510.26379789
    9   -1510.2638015172      5.55E-09 Convergence criterion met
 Total energy in the final basis set = -1510.26380152

             Standard Nuclear Orientation (Angstroms)
    I     Atom           X                Y                Z
 ----------------------------------------------------------------
    1      O       5.8747293598    -0.4436951114    -0.4960138375
    2      C       5.0108982285     0.1021019545     0.2221089383
    3      C       3.9033235547    -0.6027254301     1.0810793091
    4      C       2.4996283616     0.1190085326     1.0563709885
    5      C       2.3607829196     1.2287273019    -0.0428561106
    6      O       1.5711351858     2.3304009618     0.4770049598
    7      C       0.4883602908     2.5881468728    -0.5069297573
    8      C      -0.7233330005     3.1958082156     0.2966935144
    9      O      -2.0731446047     2.5663151695     0.1276268708
   10      C      -2.1555393749     1.2785771819    -0.4594937385
   11      C      -3.6668825778     0.8635247620    -0.5027509844
   12      C      -3.8761122535    -0.6317104718    -0.9802959855
   13      C      -2.5515002636    -1.4914651987    -0.9909301751
   14      O      -1.9470201431    -1.9640659119    -0.0036379488
   15      O       4.9428212176     1.5127078651     0.4703608634
   16      O      -2.1876671477    -1.7364518594    -2.3559288884
   17      O      -1.2256688804     0.5545155743    -0.9027321485
   18      C      -0.9210743281    -2.5033396063    -2.4036593381
   19      C      -4.3980172940     0.8540714329     0.9084444694
   20      C      -5.9492299535     0.9560900350     0.6342999311
   21      C      -6.2428400178    -0.4799305854     0.0590093983
   22      C      -4.8216650256    -1.1610517478     0.1818463792
   23      O      -4.2295087473    -0.5346837806     1.3884831278
   24      H      -4.1784856961     1.5654371753    -1.1873003851
   25      H      -4.3446773686    -0.6806372906    -1.9782974700
   26      H      -3.9903758658     1.5790413489     1.6394235855
   27      H      -6.4935806484     1.1331604194     1.5757775382
   28      H      -6.1965867697     1.7612046586    -0.0759963674
   29      H      -6.9832882208    -1.0187192718     0.6710218465
   30      H      -6.5987423725    -0.4543523611    -0.9835814733
   31      H      -4.8352553640    -2.2627306516     0.2903079169
   32      O       2.7195338253     1.1326665847    -1.2354760553
   33      C       5.9325278343     2.2241722889    -0.3690555972
   34      C       3.5211038005    -2.0397885927     0.5226844519
   35      C       2.8520680811    -2.8548192207     1.6962609002
   36      C       1.4584189822    -2.1292786825     1.8063186272
   37      C       1.5538151931    -1.0913203117     0.6212827847
   38      O       2.3839870175    -1.7796471114    -0.3934250719
   39      H       4.2801782485    -0.6728885813     2.1185753978
   40      H       2.2212372816     0.5413397318     2.0371125121
   41      H       5.7212290043     2.0812742460    -1.4485953344
   42      H       4.3462090294    -2.5467233118    -0.0152361332
   43      H       2.7331959234    -3.9120371180     1.4101656294
   44      H       3.4357276524    -2.8037609631     2.6292662165
   45      H       0.6188189423    -2.8215159900     1.6344559455
   46      H       1.3128673394    -1.6326746125     2.7789333355
   47      H       0.5782412509    -0.7844707704     0.1901689519
   48      H       6.9667434934     1.8808893709    -0.1619428910
   49      H       5.8375532729     3.2952345300    -0.1125406569
   50      H      -0.7298513407    -2.7142724447    -3.4717463469
   51      H      -0.9999943280    -3.4570050130    -1.8431581655
   52      H      -0.0760411735    -1.9188235382    -1.9849017689
   53      H      -0.4787691338     3.1393386416     1.3816115987
   54      H      -0.8836496675     4.2630496671     0.0377223297
   55      H       0.1328408789     1.6440086132    -0.9743280793
   56      H       0.8178282706     3.3041439996    -1.2907449713
 ----------------------------------------------------------------

    9   -1510.2638017571      4.04E-09 Convergence criterion met
 Total energy in the final basis set = -1510.26380176
 Final energy is   -1510.26380175715
 **  OPTIMIZATION CONVERGED  **

                    Orbital Energies (a.u.)
 --------------------------------------------------------------

 Alpha MOs
 -- Occupied --
-18.957 -18.929 -18.920 -18.906 -18.901 -18.890 -18.880 -18.875
-18.871 -18.855 -10.125 -10.094 -10.093 -10.089 -10.082 -10.064
-10.060 -10.059 -10.052 -10.051 -10.051 -10.050 -10.044 -10.035
-10.031 -10.029 -10.023 -10.022 -10.013 -10.011  -1.028  -1.007
 -0.997  -0.996  -0.972  -0.963  -0.959  -0.932  -0.926  -0.921
 -0.766  -0.756  -0.729  -0.718  -0.713  -0.701  -0.694  -0.656
 -0.652  -0.618  -0.594  -0.583  -0.549  -0.539  -0.538  -0.529
 -0.517  -0.504  -0.478  -0.466  -0.458  -0.454  -0.449  -0.446
 -0.441  -0.433  -0.423  -0.408  -0.406  -0.405  -0.400  -0.394
 -0.393  -0.387  -0.377  -0.366  -0.362  -0.361  -0.350  -0.345
 -0.342  -0.335  -0.334  -0.331  -0.327  -0.324  -0.319  -0.318
 -0.308  -0.304  -0.302  -0.298  -0.287  -0.282  -0.279  -0.273
 -0.266  -0.258  -0.249  -0.243  -0.241  -0.236  -0.227  -0.194
 -0.172  -0.169  -0.163  -0.154  -0.151  -0.147  -0.143  -0.138
 -0.136

          Ground-State Mulliken Net Atomic Charges

     Atom                 Charge (a.u.)
  ----------------------------------------
      1 O                    -0.211446
      2 C                     0.214438
      3 C                    -0.080166
      4 C                    -0.079105
      5 C                     0.219374
      6 O                    -0.188731
      7 C                    -0.075473
      8 C                    -0.051625
      9 O                    -0.166777
     10 C                     0.224553
     11 C                    -0.078336
     12 C                    -0.080813
     13 C                     0.213849
     14 O                    -0.223551
     15 O                    -0.171909
     16 O                    -0.173198
     17 O                    -0.206839
     18 C                    -0.129358
     19 C                     0.025011
     20 C                    -0.142576
     21 C                    -0.145079
     22 C                     0.026021
     23 O                    -0.186195
     24 H                     0.086555
     25 H                     0.085400
     26 H                     0.087046
     27 H                     0.078539
     28 H                     0.073404
     29 H                     0.078496
     30 H                     0.073952
     31 H                     0.085017
     32 O                    -0.201954
     33 C                    -0.127905
     34 C                     0.024180
     35 C                    -0.143438
     36 C                    -0.144219
     37 C                     0.022523
     38 O                    -0.190161
     39 H                     0.083724
     40 H                     0.084619
     41 H                     0.092787
     42 H                     0.089197
     43 H                     0.077297
     44 H                     0.071749
     45 H                     0.085200
     46 H                     0.073110
     47 H                     0.090801
     48 H                     0.088276
     49 H                     0.089745
     50 H                     0.087653
     51 H                     0.086503
     52 H                     0.095687
     53 H                     0.095956
     54 H                     0.091192
     55 H                     0.118975
     56 H                     0.078024
  ----------------------------------------
  Sum of atomic charges =    -0.000000

                    Cartesian Multipole Moments
 -----------------------------------------------------------------
    Charge (ESU x 10^10)
                -0.0000
    Dipole Moment (Debye)
         X      -2.6484      Y       2.0689      Z       0.8939
       Tot       3.4775
    Quadrupole Moments (Debye-Ang)
        XX    -150.5404     XY      -0.1591     YY    -151.7518
        XZ      11.5677     YZ      -1.4859     ZZ    -161.1544

 Total job time:  63.03s(wall), 3003.47s(cpu)
        *  Thank you very much for using Q-Chem.  Have a nice day.  *
