 Q-Chem 5.0, Q-Chem, Inc., Pleasanton, CA (2017)
 Q-Chem 5.0.1 for Intel X86 EM64T Linux

User input:
--------------------------------------------------------------
$molecule
0  1
O 5.8747293598 -0.4436951114 -0.4960138375
C 5.0108982285 0.1021019545 0.2221089383
C 3.9033235547 -0.6027254301 1.0810793091
C 2.4996283616 0.1190085326 1.0563709885
C 2.3607829196 1.2287273019 -0.0428561106
O 1.5711351858 2.3304009618 0.4770049598
C 0.4883602908 2.5881468728 -0.5069297573
C -0.7233330005 3.1958082156 0.2966935144
O -2.0731446047 2.5663151695 0.1276268708
C -2.1555393749 1.2785771819 -0.4594937385
C -3.6668825778 0.863524762 -0.5027509844
C -3.8761122535 -0.6317104718 -0.9802959855
C -2.5515002636 -1.4914651987 -0.9909301751
O -1.9470201431 -1.9640659119 -0.0036379488
O 4.9428212176 1.5127078651 0.4703608634
O -2.1876671477 -1.7364518594 -2.3559288884
O -1.2256688804 0.5545155743 -0.9027321485
C -0.9210743281 -2.5033396063 -2.4036593381
C -4.398017294 0.8540714329 0.9084444694
C -5.9492299535 0.956090035 0.6342999311
C -6.2428400178 -0.4799305854 0.0590093983
C -4.8216650256 -1.1610517478 0.1818463792
O -4.2295087473 -0.5346837806 1.3884831278
H -4.1784856961 1.5654371753 -1.1873003851
H -4.3446773686 -0.6806372906 -1.97829747
H -3.9903758658 1.5790413489 1.6394235855
H -6.4935806484 1.1331604194 1.5757775382
H -6.1965867697 1.7612046586 -0.0759963674
H -6.9832882208 -1.0187192718 0.6710218465
H -6.5987423725 -0.4543523611 -0.9835814733
H -4.835255364 -2.2627306516 0.2903079169
O 2.7195338253 1.1326665847 -1.2354760553
C 5.9325278343 2.2241722889 -0.3690555972
C 3.5211038005 -2.0397885927 0.5226844519
C 2.8520680811 -2.8548192207 1.6962609002
C 1.4584189822 -2.1292786825 1.8063186272
C 1.5538151931 -1.0913203117 0.6212827847
O 2.3839870175 -1.7796471114 -0.3934250719
H 4.2801782485 -0.6728885813 2.1185753978
H 2.2212372816 0.5413397318 2.0371125121
H 5.7212290043 2.081274246 -1.4485953344
H 4.3462090294 -2.5467233118 -0.0152361332
H 2.7331959234 -3.912037118 1.4101656294
H 3.4357276524 -2.8037609631 2.6292662165
H 0.6188189423 -2.82151599 1.6344559455
H 1.3128673394 -1.6326746125 2.7789333355
H 0.5782412509 -0.7844707704 0.1901689519
H 6.9667434934 1.8808893709 -0.161942891
H 5.8375532729 3.29523453 -0.1125406569
H -0.7298513407 -2.7142724447 -3.4717463469
H -0.999994328 -3.457005013 -1.8431581655
H -0.0760411735 -1.9188235382 -1.9849017689
H -0.4787691338 3.1393386416 1.3816115987
H -0.8836496675 4.2630496671 0.0377223297
H 0.1328408789 1.6440086132 -0.9743280793
H 0.8178282706 3.3041439996 -1.2907449713
$end

$rem
JOBTYPE                   OPT
METHOD                    B3LYP
DFT_D                     d3_op
BASIS                     STO-3G
GEOM_OPT_MAX_CYCLES       100
GEOM_OPT_TOL_GRADIENT     300
GEOM_OPT_TOL_DISPLACEMENT 1200
GEOM_OPT_TOL_ENERGY       100
SYMMETRY                  False
THRESH                    12
SCF_CONVERGENCE           8
MAX_SUB_FILE_NUM          128
MEM_STATIC                400
MEM_TOTAL                 4000
$end
--------------------------------------------------------------

   16   -1510.2638225705      5.81E-09 Convergence criterion met
 Total energy in the final basis set = -1510.26382257
   13   -1510.2681236448      9.66E-09 Convergence criterion met
 Total energy in the final basis set = -1510.26812364
   13   -1510.2708395496      8.50E-09 Convergence criterion met
 Total energy in the final basis set = -1510.27083955
   13   -1510.2745477174      5.88E-09 Convergence criterion met
 Total energy in the final basis set = -1510.27454772
   14   -1510.2774112345      3.65E-09 Convergence criterion met
 Total energy in the final basis set = -1510.27741123
   14   -1510.2813744636      3.42E-09 Convergence criterion met
 Total energy in the final basis set = -1510.28137446
   13   -1510.2858633548      4.22E-09 Convergence criterion met
 Total energy in the final basis set = -1510.28586335
   13   -1510.2877777376      6.47E-09 Convergence criterion met
   13   -1510.3002858733      2.44E-09 Convergence criterion met
 Total energy in the final basis set = -1510.30028587
   13   -1510.3005594300      2.67E-09 Convergence criterion met
 Total energy in the final basis set = -1510.30055943
   13   -1510.3007221793      2.34E-09 Convergence criterion met
 Total energy in the final basis set = -1510.30072218
   12   -1510.3007690026      4.58E-09 Convergence criterion met
 Total energy in the final basis set = -1510.30076900
   12   -1510.3007883492      5.16E-09 Convergence criterion met
 Total energy in the final basis set = -1510.30078835
   11   -1510.3008001188      7.59E-09 Convergence criterion met
 Total energy in the final basis set = -1510.30080012

             Standard Nuclear Orientation (Angstroms)
    I     Atom           X                Y                Z
 ----------------------------------------------------------------
    1      O      -3.3296068661    -1.2508362298     1.9992807799
    2      C      -3.6551926310    -0.6299995059     0.9657208529
    3      C      -3.4108100432    -1.0583632993    -0.5269921241
    4      C      -2.3338753714    -0.1695377809    -1.2756061691
    5      C      -1.7660068346     1.0044575903    -0.4177428142
    6      O      -1.4112576345     2.0671201809    -1.3090617985
    7      C      -0.7291158683     3.1563947251    -0.5737996525
    8      C       0.7013759733     3.3904487720    -1.1958589679
    9      O       1.8291163514     2.9181202199    -0.3582477201
   10      C       1.8945636532     1.4886094504    -0.3059672735
   11      C       3.2401105346     1.1065984899     0.3934296867
   12      C       3.2671743480    -0.3605466709     0.9839518444
   13      C       1.8940425008    -1.1315250724     0.9629592002
   14      O       1.6189982313    -2.1434539098     0.2824063957
   15      O      -4.4053594809     0.5921886463     0.9570375928
   16      O       1.0484362964    -0.5316366323     1.9401553442
   17      O       1.0391343155     0.7204535352    -0.7971319955
   18      C      -0.2120659199    -1.3034772355     2.0901963399
   19      C       4.3874876098     0.9954005706    -0.7069642622
   20      C       5.7850741246     0.9000365929     0.0253005939
   21      C       5.7740470835    -0.5961405067     0.5146185360
   22      C       4.3394630220    -1.0527795980     0.0431627382
   23      O       4.1754652268    -0.3599810799    -1.2577244176
   24      H       3.4742841347     1.8726041297     1.1532388569
   25      H       3.6162402826    -0.3328779892     2.0319795679
   26      H       4.3281354975     1.7580431224    -1.5082140053
   27      H       6.6056750426     1.0898118401    -0.6845921271
   28      H       5.8630896804     1.6194425207     0.8559536102
   29      H       6.5538492761    -1.1893739842     0.0107875795
   30      H       5.9057628768    -0.6895396202     1.6043644445
   31      H       4.1890339874    -2.1427999771    -0.0814266244
   32      O      -1.6282623942     1.0530229673     0.8251250421
   33      C      -4.5754365437     1.0815563012     2.3432073807
   34      C      -2.7338370526    -2.4864576536    -0.6083387234
   35      C      -2.8186850033    -3.0072640902    -2.0964265032
   36      C      -1.7048547154    -2.1366542745    -2.7945750411
   37      C      -1.2060276320    -1.2539424115    -1.5886641708
   38      O      -1.2920402413    -2.1862434157    -0.4423999218
   39      H      -4.3770723768    -1.0289757618    -1.0618636304
   40      H      -2.7351545372     0.2558643483    -2.2119310756
   41      H      -3.5954715438     1.3254884619     2.8023301215
   42      H      -3.0696761190    -3.1946401872     0.1737039005
   43      H      -2.5801059979    -4.0815788047    -2.1434331926
   44      H      -3.8180220135    -2.8462649805    -2.5313937937
   45      H      -0.8828948988    -2.7642010420    -3.1743994983
   46      H      -2.0978560031    -1.5261696132    -3.6230288973
   47      H      -0.1831784477    -0.8302694410    -1.6590915293
   48      H      -5.0895241279     0.3347600093     2.9821091761
   49      H      -5.1910311513     1.9970919129     2.2726493686
   50      H      -0.9276357304    -0.6298650346     2.5944140322
   51      H      -0.0374560056    -2.1948218314     2.7268428812
   52      H      -0.6286752239    -1.6288670352     1.1027354395
   53      H       0.7267292511     2.9098557051    -2.1990306585
   54      H       0.8843966280     4.4773502187    -1.3130288061
   55      H      -0.6663690965     2.8804143943     0.5024980543
   56      H      -1.3386743916     4.0779466045    -0.6830412857
 ----------------------------------------------------------------

    9   -1510.3008019683      5.37E-09 Convergence criterion met
 Total energy in the final basis set = -1510.30080197
 Final energy is   -1510.30080196830
 **  OPTIMIZATION CONVERGED  **

                    Orbital Energies (a.u.)
 --------------------------------------------------------------

 Alpha MOs
 -- Occupied --
-18.938 -18.934 -18.925 -18.902 -18.899 -18.883 -18.882 -18.878
-18.868 -18.847 -10.105 -10.102 -10.093 -10.078 -10.075 -10.071
-10.059 -10.058 -10.057 -10.054 -10.050 -10.036 -10.035 -10.035
-10.024 -10.019 -10.018 -10.017 -10.015 -10.008  -1.020  -1.011
 -1.002  -0.982  -0.973  -0.965  -0.943  -0.938  -0.929  -0.908
 -0.763  -0.757  -0.726  -0.719  -0.711  -0.701  -0.694  -0.657
 -0.631  -0.618  -0.592  -0.576  -0.545  -0.539  -0.535  -0.530
 -0.511  -0.504  -0.481  -0.464  -0.459  -0.450  -0.448  -0.444
 -0.435  -0.429  -0.425  -0.412  -0.406  -0.400  -0.397  -0.390
 -0.378  -0.375  -0.374  -0.361  -0.354  -0.353  -0.349  -0.345
 -0.340  -0.334  -0.329  -0.329  -0.325  -0.321  -0.317  -0.307
 -0.306  -0.302  -0.296  -0.295  -0.295  -0.280  -0.271  -0.269
 -0.264  -0.257  -0.250  -0.246  -0.239  -0.230  -0.216  -0.189
 -0.172  -0.168  -0.160  -0.157  -0.154  -0.146  -0.140  -0.139
 -0.128

          Ground-State Mulliken Net Atomic Charges

     Atom                 Charge (a.u.)
  ----------------------------------------
      1 O                    -0.212629
      2 C                     0.214656
      3 C                    -0.080813
      4 C                    -0.078950
      5 C                     0.221994
      6 O                    -0.171409
      7 C                    -0.056846
      8 C                    -0.050353
      9 O                    -0.172430
     10 C                     0.217971
     11 C                    -0.077593
     12 C                    -0.081273
     13 C                     0.209886
     14 O                    -0.216536
     15 O                    -0.175344
     16 O                    -0.180887
     17 O                    -0.213239
     18 C                    -0.151616
     19 C                     0.025069
     20 C                    -0.144063
     21 C                    -0.143630
     22 C                     0.024087
     23 O                    -0.190406
     24 H                     0.087260
     25 H                     0.082225
     26 H                     0.080242
     27 H                     0.077042
     28 H                     0.073418
     29 H                     0.077034
     30 H                     0.073364
     31 H                     0.090542
     32 O                    -0.213272
     33 C                    -0.128778
     34 C                     0.026969
     35 C                    -0.143497
     36 C                    -0.142630
     37 C                     0.024420
     38 O                    -0.177926
     39 H                     0.084939
     40 H                     0.087479
     41 H                     0.092469
     42 H                     0.090654
     43 H                     0.079954
     44 H                     0.072926
     45 H                     0.082519
     46 H                     0.073750
     47 H                     0.110269
     48 H                     0.087854
     49 H                     0.087101
     50 H                     0.085756
     51 H                     0.068396
     52 H                     0.118500
     53 H                     0.093847
     54 H                     0.090426
     55 H                     0.105991
     56 H                     0.085112
  ----------------------------------------
  Sum of atomic charges =     0.000000

                    Cartesian Multipole Moments
 -----------------------------------------------------------------
    Charge (ESU x 10^10)
                -0.0000
    Dipole Moment (Debye)
         X      -0.5836      Y       2.8828      Z      -1.0211
       Tot       3.1135
    Quadrupole Moments (Debye-Ang)
        XX    -143.4395     XY       4.2144     YY    -153.5050
        XZ       6.8118     YZ       1.0918     ZZ    -158.2335

 Total job time:  139.18s(wall), 6636.07s(cpu)
        *  Thank you very much for using Q-Chem.  Have a nice day.  *
