 Q-Chem 5.0, Q-Chem, Inc., Pleasanton, CA (2017)
 Q-Chem 5.0.1 for Intel X86 EM64T Linux

User input:
--------------------------------------------------------------
$molecule
0  1
O -3.94934 -3.66094 2.70899
C -3.26408 -4.56952 2.26188
C -3.36658 -6.02376 2.66595
C -2.38142 -6.52751 3.73345
C -1.52222 -5.47999 4.40618
O -0.67337 -4.92048 3.49413
C 0.46987 -4.30222 4.09415
C 1.64797 -4.32384 3.12578
O 2.87426 -4.50621 3.85092
C 3.09967 -5.76272 4.30866
C 4.41612 -5.89643 5.03649
C 4.75565 -7.31922 5.50411
C 3.93613 -8.43226 4.88262
O 4.28245 -9.60111 4.79087
O -2.26207 -4.2666 1.39537
O 2.61069 -8.32034 5.20744
O 2.68701 -6.65052 3.57536
C 1.60907 -9.24537 4.96315
C 5.63569 -5.60014 4.13597
C 6.82129 -5.18558 5.00476
C 7.15653 -6.50471 5.66868
C 6.18353 -7.43488 4.9334
O 6.04578 -6.85633 3.65967
H 4.40242 -5.15806 5.86982
H 4.72224 -7.44527 6.60876
H 5.44083 -4.82612 3.36197
H 7.64942 -4.9165 4.3101
H 6.63893 -4.33769 5.69951
H 8.21289 -6.75877 5.42887
H 6.99369 -6.5393 6.76778
H 6.5685 -8.47827 4.95189
O -1.55252 -5.19725 5.59948
C -1.96772 -2.9914 0.96087
C -4.70068 -6.31789 3.3958
C -5.04647 -7.80178 3.27917
C -4.01469 -8.40329 4.20699
C -3.3633 -7.12937 4.75563
O -4.40319 -6.18534 4.76334
H -3.36777 -6.62162 1.72697
H -1.68518 -7.29589 3.32935
H -1.69465 -2.34747 1.82424
H -5.55194 -5.70805 3.02054
H -6.05353 -7.93808 3.73516
H -5.05527 -8.2121 2.24653
H -4.54667 -8.95242 5.01553
H -3.26892 -9.06934 3.7213
H -2.88474 -7.34175 5.73697
H -2.84041 -2.55725 0.42781
H -1.10661 -3.03511 0.263
H 0.81382 -8.76489 4.35625
H 1.17086 -9.57177 5.92858
H 1.97395 -10.13759 4.41122
H 1.52492 -5.10887 2.34614
H 1.65832 -3.36469 2.56674
H 0.78146 -4.93574 4.95719
H 0.26049 -3.29132 4.50638
$end

$opt
CONSTRAINT
tors           1           2           3           4     -96.668
tors           3           4           5           6     -65.351
tors           4           5           6           7    -158.673
tors           5           6           7           8    +152.092
tors           6           7           8           9    -144.803
tors           7           8           9          10     +75.028
tors           8           9          10          11    +178.799
tors           9          10          11          12    -176.634
tors          11          12          13          14    +156.573
ENDCONSTRAINT
$end

$rem
JOBTYPE                   OPT
METHOD                    B3LYP
DFT_D                     d3_op
BASIS                     STO-3G
GEOM_OPT_MAX_CYCLES       100
GEOM_OPT_TOL_GRADIENT     300
GEOM_OPT_TOL_DISPLACEMENT 1200
GEOM_OPT_TOL_ENERGY       100
SYMMETRY                  False
THRESH                    12
SCF_CONVERGENCE           8
MAX_SUB_FILE_NUM          128
MEM_STATIC                400
MEM_TOTAL                 4000
$end
--------------------------------------------------------------

   15   -1510.0996931474      7.72E-09 Convergence criterion met
 Total energy in the final basis set = -1510.09969315
   14   -1510.1748299462      6.79E-09 Convergence criterion met
 Total energy in the final basis set = -1510.17482995
   14   -1510.2162218413      5.89E-09 Convergence criterion met
 Total energy in the final basis set = -1510.21622184
   14   -1510.2379294297      8.75E-09 Convergence criterion met
 Total energy in the final basis set = -1510.23792943
   14   -1510.2507831727      4.26E-09 Convergence criterion met
 Total energy in the final basis set = -1510.25078317
   13   -1510.2574544511      6.32E-09 Convergence criterion met
 Total energy in the final basis set = -1510.25745445
   13   -1510.2616486503      5.74E-09 Convergence criterion met
 Total energy in the final basis set = -1510.26164865
   13   -1510.2643252024      5.78E-09 Convergence criterion met
   11   -1510.2718528341      3.59E-09 Convergence criterion met
 Total energy in the final basis set = -1510.27185283
   11   -1510.2718818070      4.16E-09 Convergence criterion met
 Total energy in the final basis set = -1510.27188181
    9   -1510.2718955145      9.50E-09 Convergence criterion met
 Total energy in the final basis set = -1510.27189551
    9   -1510.2718993712      5.01E-09 Convergence criterion met
 Total energy in the final basis set = -1510.27189937
    9   -1510.2719007219      4.08E-09 Convergence criterion met
 Total energy in the final basis set = -1510.27190072
    9   -1510.2719017685      5.75E-09 Convergence criterion met
 Total energy in the final basis set = -1510.27190177

             Standard Nuclear Orientation (Angstroms)
    I     Atom           X                Y                Z
 ----------------------------------------------------------------
    1      O      -5.0110092078     1.8994564564     0.5100492609
    2      C      -4.3061644545     1.4524294587    -0.4200176321
    3      C      -4.1936693954    -0.0299053034    -0.9162126412
    4      C      -2.9542290057    -0.8219331977    -0.3083381552
    5      C      -2.2046416048    -0.0772425681     0.8561088784
    6      O      -1.5968848157     1.1125597239     0.3361912721
    7      C      -0.4938992750     1.5585567217     1.2212129261
    8      C       0.5333084282     2.3330728180     0.3090489634
    9      O       1.9313427785     2.1098027626     0.7498808210
   10      C       2.3453007540     0.7915633849     0.3589865972
   11      C       3.8373997591     0.5774440827     0.8037222149
   12      C       4.3850389725    -0.8211443235     0.3297851324
   13      C       3.3314820520    -1.9793271564     0.2133483623
   14      O       3.4323425251    -3.0018735137    -0.4998617863
   15      O      -3.4909868824     2.2638291315    -1.2745666642
   16      O       2.3868106420    -1.8431276581     1.2879456861
   17      O       1.6454092044     0.0323734618    -0.3461123557
   18      C       1.3822776059    -2.9282304209     1.2368833712
   19      C       4.6949374013     1.5260993513    -0.1447992341
   20      C       6.2365863171     1.3917283440     0.1798910080
   21      C       6.5976975801     0.0492982999    -0.5604319304
   22      C       5.1613069068    -0.4308663373    -1.0002582472
   23      O       4.5299536984     0.8339629118    -1.4482468488
   24      H       3.9694280823     0.7711767041     1.8823243239
   25      H       5.1180712187    -1.1838082921     1.0762939880
   26      H       4.3111248417     2.5632123060    -0.2023988156
   27      H       6.7955735729     2.2479108855    -0.2293435548
   28      H       6.4198048646     1.3375191779     1.2652334028
   29      H       7.2254732118     0.2376757461    -1.4463348820
   30      H       7.1086884209    -0.6782135586     0.0900307037
   31      H       5.1244171003    -1.1974202215    -1.7988354628
   32      O      -2.0373832409    -0.4902689854     2.0236623596
   33      C      -3.4912078512     3.6629997796    -0.7924213202
   34      C      -5.3995833559    -0.9426941740    -0.4355816992
   35      C      -5.4622285276    -2.1975720274    -1.3920759891
   36      C      -4.1960791243    -3.0009262923    -0.9136265454
   37      C      -3.6873044551    -2.0969174481     0.2774254477
   38      O      -4.9286392019    -1.5179864281     0.8451078649
   39      H      -4.1192970344    -0.0087513586    -2.0181982110
   40      H      -2.2145782607    -1.0658515192    -1.0927898064
   41      H      -3.0142235700     3.7437795681     0.2058980017
   42      H      -6.3533950163    -0.4000023704    -0.2885177238
   43      H      -6.3892001885    -2.7671734073    -1.2174845234
   44      H      -5.4142903168    -1.9171759017    -2.4564522811
   45      H      -4.4670250150    -4.0040999210    -0.5483089367
   46      H      -3.4364473838    -3.1074932286    -1.7048058614
   47      H      -3.1121609085    -2.6184845992     1.0669585599
   48      H      -4.5188298729     4.0752476048    -0.7266606738
   49      H      -2.9042412809     4.2415974103    -1.5291422417
   50      H       0.4051148015    -2.5096957494     0.9206916136
   51      H       1.2830447976    -3.3600877051     2.2513686190
   52      H       1.7090211611    -3.7056651872     0.5169211813
   53      H       0.3912475396     1.9888454729    -0.7384021972
   54      H       0.3715361549     3.4270641558     0.3664077762
   55      H      -0.0081852017     0.6834370490     1.7037318599
   56      H      -0.8818975089     2.2174337060     2.0284527318
 ----------------------------------------------------------------

    9   -1510.2719024467      3.50E-09 Convergence criterion met
 Total energy in the final basis set = -1510.27190245
 Final energy is   -1510.27190244666
 **  OPTIMIZATION CONVERGED  **

                    Orbital Energies (a.u.)
 --------------------------------------------------------------

 Alpha MOs
 -- Occupied --
-18.939 -18.932 -18.931 -18.925 -18.888 -18.884 -18.882 -18.879
-18.872 -18.871 -10.104 -10.100 -10.098 -10.096 -10.076 -10.073
-10.063 -10.062 -10.061 -10.057 -10.056 -10.054 -10.042 -10.038
-10.038 -10.035 -10.023 -10.021 -10.019 -10.017  -1.020  -1.013
 -1.006  -1.004  -0.972  -0.967  -0.943  -0.938  -0.933  -0.930
 -0.766  -0.762  -0.730  -0.723  -0.712  -0.704  -0.697  -0.661
 -0.656  -0.619  -0.597  -0.583  -0.547  -0.545  -0.539  -0.536
 -0.513  -0.508  -0.486  -0.469  -0.462  -0.460  -0.455  -0.451
 -0.437  -0.434  -0.428  -0.411  -0.410  -0.409  -0.405  -0.399
 -0.398  -0.381  -0.374  -0.368  -0.360  -0.359  -0.355  -0.349
 -0.345  -0.341  -0.336  -0.332  -0.331  -0.328  -0.324  -0.314
 -0.309  -0.307  -0.305  -0.300  -0.291  -0.286  -0.283  -0.274
 -0.272  -0.258  -0.253  -0.248  -0.244  -0.236  -0.231  -0.188
 -0.176  -0.172  -0.168  -0.158  -0.157  -0.152  -0.148  -0.147
 -0.141

          Ground-State Mulliken Net Atomic Charges

     Atom                 Charge (a.u.)
  ----------------------------------------
      1 O                    -0.212315
      2 C                     0.208401
      3 C                    -0.079349
      4 C                    -0.076943
      5 C                     0.210373
      6 O                    -0.174038
      7 C                    -0.049562
      8 C                    -0.049912
      9 O                    -0.173252
     10 C                     0.216611
     11 C                    -0.075334
     12 C                    -0.079434
     13 C                     0.217365
     14 O                    -0.217360
     15 O                    -0.166525
     16 O                    -0.174903
     17 O                    -0.209334
     18 C                    -0.134726
     19 C                     0.023320
     20 C                    -0.145501
     21 C                    -0.141391
     22 C                     0.024021
     23 O                    -0.192236
     24 H                     0.088854
     25 H                     0.084324
     26 H                     0.086189
     27 H                     0.078798
     28 H                     0.074066
     29 H                     0.078558
     30 H                     0.074127
     31 H                     0.090945
     32 O                    -0.207775
     33 C                    -0.127425
     34 C                     0.024499
     35 C                    -0.143074
     36 C                    -0.145035
     37 C                     0.024140
     38 O                    -0.187397
     39 H                     0.085649
     40 H                     0.088683
     41 H                     0.086210
     42 H                     0.087006
     43 H                     0.077885
     44 H                     0.073029
     45 H                     0.078074
     46 H                     0.073496
     47 H                     0.088284
     48 H                     0.089395
     49 H                     0.088684
     50 H                     0.084622
     51 H                     0.085460
     52 H                     0.100316
     53 H                     0.101642
     54 H                     0.089531
     55 H                     0.095871
     56 H                     0.084391
  ----------------------------------------
  Sum of atomic charges =    -0.000000

                    Cartesian Multipole Moments
 -----------------------------------------------------------------
    Charge (ESU x 10^10)
                 0.0000
    Dipole Moment (Debye)
         X       1.9674      Y       1.2458      Z      -0.6444
       Tot       2.4162
    Quadrupole Moments (Debye-Ang)
        XX    -155.4416     XY       5.0643     YY    -152.4678
        XZ      19.1823     YZ       0.0114     ZZ    -165.1682

 Total job time:  72.27s(wall), 3438.48s(cpu)
        *  Thank you very much for using Q-Chem.  Have a nice day.  *
