 Q-Chem 5.0, Q-Chem, Inc., Pleasanton, CA (2017)
 Q-Chem 5.0.1 for Intel X86 EM64T Linux

User input:
--------------------------------------------------------------
$molecule
0  1
O -5.0110092078 1.8994564564 0.5100492609
C -4.3061644545 1.4524294587 -0.4200176321
C -4.1936693954 -0.0299053034 -0.9162126412
C -2.9542290057 -0.8219331977 -0.3083381552
C -2.2046416048 -0.0772425681 0.8561088784
O -1.5968848157 1.1125597239 0.3361912721
C -0.493899275 1.5585567217 1.2212129261
C 0.5333084282 2.333072818 0.3090489634
O 1.9313427785 2.1098027626 0.749880821
C 2.345300754 0.7915633849 0.3589865972
C 3.8373997591 0.5774440827 0.8037222149
C 4.3850389725 -0.8211443235 0.3297851324
C 3.331482052 -1.9793271564 0.2133483623
O 3.4323425251 -3.0018735137 -0.4998617863
O -3.4909868824 2.2638291315 -1.2745666642
O 2.386810642 -1.8431276581 1.2879456861
O 1.6454092044 0.0323734618 -0.3461123557
C 1.3822776059 -2.9282304209 1.2368833712
C 4.6949374013 1.5260993513 -0.1447992341
C 6.2365863171 1.391728344 0.179891008
C 6.5976975801 0.0492982999 -0.5604319304
C 5.1613069068 -0.4308663373 -1.0002582472
O 4.5299536984 0.8339629118 -1.4482468488
H 3.9694280823 0.7711767041 1.8823243239
H 5.1180712187 -1.1838082921 1.076293988
H 4.3111248417 2.563212306 -0.2023988156
H 6.7955735729 2.2479108855 -0.2293435548
H 6.4198048646 1.3375191779 1.2652334028
H 7.2254732118 0.2376757461 -1.446334882
H 7.1086884209 -0.6782135586 0.0900307037
H 5.1244171003 -1.1974202215 -1.7988354628
O -2.0373832409 -0.4902689854 2.0236623596
C -3.4912078512 3.6629997796 -0.7924213202
C -5.3995833559 -0.942694174 -0.4355816992
C -5.4622285276 -2.1975720274 -1.3920759891
C -4.1960791243 -3.0009262923 -0.9136265454
C -3.6873044551 -2.0969174481 0.2774254477
O -4.9286392019 -1.5179864281 0.8451078649
H -4.1192970344 -0.0087513586 -2.018198211
H -2.2145782607 -1.0658515192 -1.0927898064
H -3.01422357 3.7437795681 0.2058980017
H -6.3533950163 -0.4000023704 -0.2885177238
H -6.3892001885 -2.7671734073 -1.2174845234
H -5.4142903168 -1.9171759017 -2.4564522811
H -4.467025015 -4.004099921 -0.5483089367
H -3.4364473838 -3.1074932286 -1.7048058614
H -3.1121609085 -2.6184845992 1.0669585599
H -4.5188298729 4.0752476048 -0.7266606738
H -2.9042412809 4.2415974103 -1.5291422417
H 0.4051148015 -2.5096957494 0.9206916136
H 1.2830447976 -3.3600877051 2.251368619
H 1.7090211611 -3.7056651872 0.5169211813
H 0.3912475396 1.9888454729 -0.7384021972
H 0.3715361549 3.4270641558 0.3664077762
H -0.0081852017 0.683437049 1.7037318599
H -0.8818975089 2.217433706 2.0284527318
$end

$rem
JOBTYPE                   OPT
METHOD                    B3LYP
DFT_D                     d3_op
BASIS                     STO-3G
GEOM_OPT_MAX_CYCLES       100
GEOM_OPT_TOL_GRADIENT     300
GEOM_OPT_TOL_DISPLACEMENT 1200
GEOM_OPT_TOL_ENERGY       100
SYMMETRY                  False
THRESH                    12
SCF_CONVERGENCE           8
MAX_SUB_FILE_NUM          128
MEM_STATIC                400
MEM_TOTAL                 4000
$end
--------------------------------------------------------------

   16   -1510.2718754224      5.59E-09 Convergence criterion met
 Total energy in the final basis set = -1510.27187542
   13   -1510.2760910009      9.16E-09 Convergence criterion met
 Total energy in the final basis set = -1510.27609100
   14   -1510.2794175904      2.42E-09 Convergence criterion met
 Total energy in the final basis set = -1510.27941759
   14   -1510.2806991282      6.82E-09 Convergence criterion met
 Total energy in the final basis set = -1510.28069913
   14   -1510.2842656530      4.01E-09 Convergence criterion met
 Total energy in the final basis set = -1510.28426565
   13   -1510.2852263955      6.21E-09 Convergence criterion met
 Total energy in the final basis set = -1510.28522640
   13   -1510.2869598463      5.81E-09 Convergence criterion met
 Total energy in the final basis set = -1510.28695985
   13   -1510.2879878157      2.72E-09 Convergence criterion met
   12   -1510.2927042927      5.34E-09 Convergence criterion met
 Total energy in the final basis set = -1510.29270429
   12   -1510.2928021717      3.96E-09 Convergence criterion met
 Total energy in the final basis set = -1510.29280217
   11   -1510.2928015943      6.65E-09 Convergence criterion met
 Total energy in the final basis set = -1510.29280159
   11   -1510.2927971250      8.78E-09 Convergence criterion met
 Total energy in the final basis set = -1510.29279713
   11   -1510.2927936594      1.72E-09 Convergence criterion met
 Total energy in the final basis set = -1510.29279366
    9   -1510.2927867075      8.97E-09 Convergence criterion met
 Total energy in the final basis set = -1510.29278671

             Standard Nuclear Orientation (Angstroms)
    I     Atom           X                Y                Z
 ----------------------------------------------------------------
    1      O      -4.3009798504     1.5921080411     0.7385320314
    2      C      -3.6661248696     1.3903860679    -0.3187066802
    3      C      -3.2263281525     0.0148738723    -0.9321975300
    4      C      -2.0664206824    -0.7160050916    -0.1324716905
    5      C      -1.4727083449     0.0772259359     1.0785366071
    6      O      -1.4066421168     1.4633246436     0.7439924635
    7      C      -0.6143676869     2.2157374821     1.7422988854
    8      C       0.6068967947     2.8981926760     1.0129957287
    9      O       1.9232119096     2.2335877007     1.1800925616
   10      C       1.9742686897     0.9583035416     0.5334335784
   11      C       3.4687627463     0.4986644333     0.4693418556
   12      C       3.6294030146    -1.0370039166     0.1207126115
   13      C       2.2870497543    -1.8570776474     0.1440427257
   14      O       1.6984943677    -2.3878718701    -0.8233837505
   15      O      -3.2726649657     2.4274135936    -1.2306071662
   16      O       1.9128830829    -2.0007934488     1.5159768315
   17      O       0.9880272669     0.3559388897     0.0555414659
   18      C       0.6291332961    -2.7331704249     1.6411948252
   19      C       4.1535067198     1.1562744907    -0.8090595791
   20      C       5.7112102454     0.8982459144    -0.7429695076
   21      C       5.7922857225    -0.6114522044    -1.1816119176
   22      C       4.2605938982    -0.9607089522    -1.3315691263
   23      O       3.6879739919     0.2804593437    -1.9064888668
   24      H       3.9808225436     0.7804919365     1.4061006688
   25      H       4.3234408468    -1.5149528144     0.8353101277
   26      H       3.8571429566     2.2075090266    -0.9925404618
   27      H       6.2416690673     1.5563278184    -1.4492381881
   28      H       6.1126067957     1.0691641965     0.2686772972
   29      H       6.3090342779    -0.7219645543    -2.1484297134
   30      H       6.2961059791    -1.2467356602    -0.4359553696
   31      H       4.0196512385    -1.8292032921    -1.9749118011
   32      O      -1.0685601059    -0.3951365027     2.1673683760
   33      C      -3.6321970879     3.7480504071    -0.6686792840
   34      C      -4.3851350531    -1.0663891926    -0.8064135038
   35      C      -4.0384346390    -2.2833993764    -1.7541906269
   36      C      -2.9013256375    -2.9975496158    -0.9319233916
   37      C      -2.7968844876    -2.0480317182     0.3236801945
   38      O      -4.1936661921    -1.6149763024     0.5546405448
   39      H      -2.9317057101     0.1870987308    -1.9819939718
   40      H      -1.2129512964    -0.9388643522    -0.8011576024
   41      H      -3.1075938178     3.9360341781     0.2904536630
   42      H      -5.4076910501    -0.6564806499    -0.9166305430
   43      H      -4.9170078926    -2.9356690935    -1.8816020547
   44      H      -3.6985506689    -1.9492284486    -2.7475638045
   45      H      -3.2003329801    -4.0126025320    -0.6255084407
   46      H      -1.9489450044    -3.0578425400    -1.4825665975
   47      H      -2.3762586815    -2.5055734944     1.2396212120
   48      H      -4.7239237371     3.8376517437    -0.4932115705
   49      H      -3.3147880796     4.4977940799    -1.4166665156
   50      H      -0.1565040446    -2.0046218204     1.9522935344
   51      H       0.7555360319    -3.5171325639     2.4116070939
   52      H       0.3649780456    -3.1915230478     0.6676183937
   53      H       0.3515823579     2.9901375965    -0.0663152555
   54      H       0.7634862620     3.9128236303     1.4312798438
   55      H      -0.2862459566     1.5202887258     2.5465302695
   56      H      -1.2693477435     2.9990856877     2.1783661503
 ----------------------------------------------------------------

    9   -1510.2927858704      5.72E-09 Convergence criterion met
 Total energy in the final basis set = -1510.29278587
 Final energy is   -1510.29278587036
 **  OPTIMIZATION CONVERGED  **

                    Orbital Energies (a.u.)
 --------------------------------------------------------------

 Alpha MOs
 -- Occupied --
-18.944 -18.943 -18.926 -18.915 -18.888 -18.888 -18.886 -18.883
-18.862 -18.859 -10.111 -10.110 -10.092 -10.089 -10.083 -10.077
-10.063 -10.060 -10.057 -10.056 -10.054 -10.041 -10.036 -10.033
-10.032 -10.031 -10.022 -10.020 -10.016 -10.014  -1.026  -1.016
 -1.001  -0.995  -0.971  -0.966  -0.949  -0.944  -0.927  -0.921
 -0.764  -0.760  -0.730  -0.721  -0.712  -0.703  -0.698  -0.659
 -0.647  -0.622  -0.595  -0.583  -0.545  -0.543  -0.537  -0.534
 -0.513  -0.509  -0.486  -0.471  -0.458  -0.455  -0.451  -0.448
 -0.438  -0.431  -0.425  -0.413  -0.409  -0.409  -0.404  -0.402
 -0.395  -0.382  -0.380  -0.365  -0.361  -0.356  -0.351  -0.346
 -0.341  -0.337  -0.333  -0.331  -0.326  -0.325  -0.321  -0.312
 -0.308  -0.304  -0.302  -0.301  -0.295  -0.288  -0.277  -0.272
 -0.269  -0.260  -0.248  -0.247  -0.235  -0.234  -0.230  -0.194
 -0.179  -0.171  -0.168  -0.160  -0.152  -0.146  -0.144  -0.143
 -0.139

          Ground-State Mulliken Net Atomic Charges

     Atom                 Charge (a.u.)
  ----------------------------------------
      1 O                    -0.219018
      2 C                     0.213369
      3 C                    -0.079372
      4 C                    -0.078304
      5 C                     0.233746
      6 O                    -0.167680
      7 C                    -0.054036
      8 C                    -0.050183
      9 O                    -0.171395
     10 C                     0.217174
     11 C                    -0.077040
     12 C                    -0.080468
     13 C                     0.214336
     14 O                    -0.222283
     15 O                    -0.170200
     16 O                    -0.179053
     17 O                    -0.210158
     18 C                    -0.152019
     19 C                     0.024913
     20 C                    -0.144060
     21 C                    -0.143416
     22 C                     0.024355
     23 O                    -0.189861
     24 H                     0.088394
     25 H                     0.084436
     26 H                     0.082002
     27 H                     0.078122
     28 H                     0.074076
     29 H                     0.078028
     30 H                     0.073793
     31 H                     0.090071
     32 O                    -0.213878
     33 C                    -0.127907
     34 C                     0.025641
     35 C                    -0.144027
     36 C                    -0.144169
     37 C                     0.024098
     38 O                    -0.188216
     39 H                     0.087576
     40 H                     0.101507
     41 H                     0.083676
     42 H                     0.083174
     43 H                     0.077224
     44 H                     0.074291
     45 H                     0.077293
     46 H                     0.078232
     47 H                     0.087654
     48 H                     0.087872
     49 H                     0.087394
     50 H                     0.104287
     51 H                     0.077239
     52 H                     0.088978
     53 H                     0.095450
     54 H                     0.091798
     55 H                     0.107895
     56 H                     0.088652
  ----------------------------------------
  Sum of atomic charges =    -0.000000

                    Cartesian Multipole Moments
 -----------------------------------------------------------------
    Charge (ESU x 10^10)
                -0.0000
    Dipole Moment (Debye)
         X       2.2465      Y       2.1148      Z      -0.4700
       Tot       3.1209
    Quadrupole Moments (Debye-Ang)
        XX    -154.0014     XY      -0.4949     YY    -147.3803
        XZ      10.6074     YZ       2.3483     ZZ    -165.7643

 Total job time:  96.06s(wall), 4580.52s(cpu)
        *  Thank you very much for using Q-Chem.  Have a nice day.  *
