 Q-Chem 5.0, Q-Chem, Inc., Pleasanton, CA (2017)
 Q-Chem 5.0.1 for Intel X86 EM64T Linux

User input:
--------------------------------------------------------------
$molecule
0  1
O -3.94934 -3.66094 2.70899
C -3.26408 -4.56952 2.26188
C -3.36658 -6.02376 2.66595
C -2.24002 -6.96248 2.20386
C -1.04722 -6.30948 1.54136
O -0.59297 -7.09783 0.52274
C 0.80758 -6.94146 0.27124
C 1.38102 -8.22321 -0.32409
O 0.34135 -8.96611 -0.97988
C 0.62174 -9.37023 -2.24369
C -0.50413 -10.15504 -2.87388
C -0.20426 -10.70497 -4.27599
C 1.25426 -10.70544 -4.68759
O 1.80479 -11.57638 -5.34558
O -2.52386 -4.25248 1.1653
O 1.70434 -9.44873 -4.98573
O 1.74113 -9.20044 -2.68778
C 2.91718 -9.11604 -5.56637
C -0.85397 -11.4479 -2.11348
C -2.2933 -11.84876 -2.42775
C -2.15318 -12.28855 -3.87021
C -0.63371 -12.17179 -4.04678
O -0.11678 -12.44867 -2.76805
H -1.38761 -9.4772 -2.88702
H -0.79154 -10.21972 -5.08688
H -0.70731 -11.37273 -1.014
H -2.52388 -12.74224 -1.80397
H -3.06032 -11.06617 -2.24283
H -2.48115 -13.34916 -3.94547
H -2.69768 -11.66615 -4.61301
H -0.29856 -12.84956 -4.86228
O -0.39324 -5.41093 2.06467
C -2.39702 -2.98689 0.62874
C -3.21405 -6.16738 4.19722
C -3.83473 -7.48376 4.66512
C -2.81228 -8.4733 4.15113
C -1.77301 -7.51396 3.56358
O -1.84149 -6.38668 4.3991
H -4.38512 -6.36844 2.37985
H -2.61702 -7.7846 1.55298
H -1.95192 -2.29779 1.37792
H -3.65912 -5.32079 4.76505
H -3.80332 -7.49059 5.77833
H -4.87865 -7.65697 4.32588
H -2.38093 -9.01733 5.02088
H -3.18806 -9.19942 3.39814
H -0.78059 -8.01372 3.49852
H -3.38938 -2.60473 0.30729
H -1.72876 -3.03308 -0.25542
H 3.46626 -8.42976 -4.88924
H 2.73048 -8.59386 -6.5273
H 3.56117 -10.00108 -5.75641
H 2.32644 -8.00744 -0.86898
H 1.66641 -8.8561 0.54345
H 1.43332 -6.60984 1.13215
H 0.88087 -6.16878 -0.52482
$end

$opt
CONSTRAINT
tors           1           2           3           4    -168.093
tors           3           4           5           6    -142.600
tors           4           5           6           7    -151.785
tors           5           6           7           8    +152.519
tors           6           7           8           9     +24.683
tors           7           8           9          10    +129.983
tors           8           9          10          11    +179.513
tors           9          10          11          12    -176.634
tors          11          12          13          14    +142.494
ENDCONSTRAINT
$end

$rem
JOBTYPE                   OPT
METHOD                    B3LYP
DFT_D                     d3_op
BASIS                     STO-3G
GEOM_OPT_MAX_CYCLES       100
GEOM_OPT_TOL_GRADIENT     300
GEOM_OPT_TOL_DISPLACEMENT 1200
GEOM_OPT_TOL_ENERGY       100
SYMMETRY                  False
THRESH                    12
SCF_CONVERGENCE           8
MAX_SUB_FILE_NUM          128
MEM_STATIC                400
MEM_TOTAL                 4000
$end
--------------------------------------------------------------

   15   -1510.1098822175      7.42E-09 Convergence criterion met
 Total energy in the final basis set = -1510.10988222
   14   -1510.1834675890      7.73E-09 Convergence criterion met
 Total energy in the final basis set = -1510.18346759
   14   -1510.2212627671      9.71E-09 Convergence criterion met
 Total energy in the final basis set = -1510.22126277
   15   -1510.2427667560      1.33E-09 Convergence criterion met
 Total energy in the final basis set = -1510.24276676
   14   -1510.2524401557      3.21E-09 Convergence criterion met
 Total energy in the final basis set = -1510.25244016
   13   -1510.2574976718      9.43E-09 Convergence criterion met
 Total energy in the final basis set = -1510.25749767
   12   -1510.2604037986      6.26E-09 Convergence criterion met
 Total energy in the final basis set = -1510.26040380
   12   -1510.2621111176      8.07E-09 Convergence criterion met
   11   -1510.2676078904      4.17E-09 Convergence criterion met
 Total energy in the final basis set = -1510.26760789
    9   -1510.2676230774      9.84E-09 Convergence criterion met
 Total energy in the final basis set = -1510.26762308
   11   -1510.2676320597      2.60E-09 Convergence criterion met
 Total energy in the final basis set = -1510.26763206
   11   -1510.2676386476      2.61E-09 Convergence criterion met
 Total energy in the final basis set = -1510.26763865
   11   -1510.2676427240      3.00E-09 Convergence criterion met
 Total energy in the final basis set = -1510.26764272
   10   -1510.2676446199      8.32E-09 Convergence criterion met
 Total energy in the final basis set = -1510.26764462

             Standard Nuclear Orientation (Angstroms)
    I     Atom           X                Y                Z
 ----------------------------------------------------------------
    1      O      -5.8124192389    -1.4502650062     1.9075125015
    2      C      -4.7662826090    -1.0289106884     1.3683393119
    3      C      -4.5581516660     0.3855685611     0.7231382705
    4      C      -3.2557933249     0.5852436733    -0.1468526072
    5      C      -2.6314101133    -0.7431520633    -0.7096867890
    6      O      -1.1981527457    -0.6114918275    -0.6641016397
    7      C      -0.5739553624    -1.4352144295    -1.7290844170
    8      C       0.7923508698    -0.7518963541    -2.1002109569
    9      O       1.2601289478     0.0463601763    -0.9394468123
   10      C       2.6222886965    -0.2659931503    -0.6352893398
   11      C       3.0688410300     0.6115788813     0.5871547358
   12      C       4.5906294890     0.3875786896     0.9325835700
   13      C       5.1934885576    -0.9882660783     0.4760130525
   14      O       6.3431930886    -1.1877070539     0.0271307897
   15      O      -3.5102233689    -1.7142869507     1.4305187434
   16      O       4.3184839657    -2.0290109773     0.9449639889
   17      O       3.3327412782    -1.0479680700    -1.3073793468
   18      C       4.8555657175    -3.3557950119     0.5717369282
   19      C       3.1285570398     2.1146703877     0.0723537500
   20      C       3.5415999292     3.0763330801     1.2577793163
   21      C       5.0992448908     2.8497338968     1.3159305522
   22      C       5.2589966890     1.6712955494     0.2814661772
   23      O       4.3267993016     2.0697405021    -0.8015695201
   24      H       2.3893036715     0.4599050047     1.4441297301
   25      H       4.7197619060     0.4196909552     2.0310941266
   26      H       2.2350096474     2.4261130423    -0.5027579247
   27      H       3.2881921097     4.1212115148     1.0190691348
   28      H       3.0403679938     2.7979706209     2.1988864692
   29      H       5.6452140167     3.7406441459     0.9661342641
   30      H       5.4588837587     2.5849739720     2.3230144507
   31      H       6.2780672087     1.5021262637    -0.1179211007
   32      O      -3.2242280582    -1.6634118118    -1.3124057507
   33      C      -3.6809280315    -3.0494079591     2.0460380302
   34      C      -5.6981833470     0.8325933459    -0.2923379016
   35      C      -5.7616904708     2.4082533570    -0.2532683711
   36      C      -4.4010447914     2.7722742370    -0.9570916302
   37      C      -3.8861363003     1.3436671794    -1.3992387221
   38      O      -5.1255590508     0.5649792863    -1.6317564800
   39      H      -4.5381942895     1.0944952918     1.5730712057
   40      H      -2.4770095758     1.1688042189     0.3732136769
   41      H      -4.3084054139    -3.7085723381     1.4118996913
   42      H      -6.6635611791     0.3058209973    -0.1617584574
   43      H      -6.6237145055     2.7700086120    -0.8364281773
   44      H      -5.8357818514     2.8031638947     0.7724552429
   45      H      -4.5560314180     3.4178653135    -1.8359482283
   46      H      -3.6911982773     3.2684803425    -0.2758709432
   47      H      -3.2489721499     1.3353080129    -2.3049186451
   48      H      -4.1450859205    -2.9775543612     3.0507024894
   49      H      -2.6652936636    -3.4774697517     2.1315070700
   50      H       4.2766865872    -3.7674573900    -0.2798990008
   51      H       4.7511983192    -4.0275702272     1.4451691640
   52      H       5.9211105666    -3.2606153826     0.2805819029
   53      H       1.5706667967    -1.4983069924    -2.3692648428
   54      H       0.6505868811    -0.0549876032    -2.9535399002
   55      H      -1.2356808248    -1.5112973676    -2.6178706701
   56      H      -0.3954837377    -2.4669809884    -1.3524266075
 ----------------------------------------------------------------

    9   -1510.2676455979      5.96E-09 Convergence criterion met
 Total energy in the final basis set = -1510.26764560
 Final energy is   -1510.26764559785
 **  OPTIMIZATION CONVERGED  **

                    Orbital Energies (a.u.)
 --------------------------------------------------------------

 Alpha MOs
 -- Occupied --
-18.939 -18.938 -18.924 -18.920 -18.889 -18.886 -18.883 -18.875
-18.867 -18.867 -10.104 -10.101 -10.095 -10.094 -10.073 -10.072
-10.066 -10.062 -10.061 -10.060 -10.058 -10.051 -10.041 -10.039
-10.037 -10.035 -10.023 -10.022 -10.021 -10.020  -1.019  -1.014
 -1.003  -1.000  -0.972  -0.970  -0.943  -0.937  -0.927  -0.926
 -0.765  -0.764  -0.729  -0.724  -0.714  -0.705  -0.697  -0.663
 -0.654  -0.617  -0.600  -0.576  -0.547  -0.544  -0.539  -0.536
 -0.517  -0.506  -0.488  -0.471  -0.460  -0.458  -0.455  -0.451
 -0.440  -0.432  -0.432  -0.414  -0.411  -0.410  -0.406  -0.402
 -0.386  -0.382  -0.372  -0.369  -0.363  -0.357  -0.352  -0.350
 -0.342  -0.338  -0.336  -0.332  -0.331  -0.324  -0.322  -0.314
 -0.312  -0.307  -0.306  -0.301  -0.294  -0.287  -0.281  -0.273
 -0.271  -0.258  -0.250  -0.242  -0.240  -0.235  -0.235  -0.183
 -0.178  -0.168  -0.165  -0.159  -0.155  -0.150  -0.149  -0.145
 -0.141

          Ground-State Mulliken Net Atomic Charges

     Atom                 Charge (a.u.)
  ----------------------------------------
      1 O                    -0.213860
      2 C                     0.212437
      3 C                    -0.079868
      4 C                    -0.077047
      5 C                     0.216747
      6 O                    -0.173135
      7 C                    -0.049038
      8 C                    -0.053625
      9 O                    -0.166230
     10 C                     0.219046
     11 C                    -0.074736
     12 C                    -0.080123
     13 C                     0.218404
     14 O                    -0.218063
     15 O                    -0.167605
     16 O                    -0.176859
     17 O                    -0.209518
     18 C                    -0.134607
     19 C                     0.023672
     20 C                    -0.145197
     21 C                    -0.141927
     22 C                     0.023289
     23 O                    -0.192439
     24 H                     0.089922
     25 H                     0.083777
     26 H                     0.086207
     27 H                     0.077936
     28 H                     0.073546
     29 H                     0.078200
     30 H                     0.073573
     31 H                     0.091567
     32 O                    -0.214106
     33 C                    -0.126894
     34 C                     0.025501
     35 C                    -0.142073
     36 C                    -0.145048
     37 C                     0.025184
     38 O                    -0.186282
     39 H                     0.084250
     40 H                     0.087475
     41 H                     0.092022
     42 H                     0.089475
     43 H                     0.078623
     44 H                     0.073786
     45 H                     0.078460
     46 H                     0.073869
     47 H                     0.080773
     48 H                     0.090896
     49 H                     0.091685
     50 H                     0.084258
     51 H                     0.082889
     52 H                     0.099892
     53 H                     0.102885
     54 H                     0.083625
     55 H                     0.091589
     56 H                     0.082824
  ----------------------------------------
  Sum of atomic charges =    -0.000000

                    Cartesian Multipole Moments
 -----------------------------------------------------------------
    Charge (ESU x 10^10)
                -0.0000
    Dipole Moment (Debye)
         X      -0.1926      Y       1.6192      Z       2.1725
       Tot       2.7164
    Quadrupole Moments (Debye-Ang)
        XX    -186.6313     XY      -7.3474     YY    -148.8749
        XZ       6.3415     YZ       0.0683     ZZ    -157.2508

 Total job time:  68.38s(wall), 3256.13s(cpu)
        *  Thank you very much for using Q-Chem.  Have a nice day.  *
