 Q-Chem 5.0, Q-Chem, Inc., Pleasanton, CA (2017)
 Q-Chem 5.0.1 for Intel X86 EM64T Linux

User input:
--------------------------------------------------------------
$molecule
0  1
O -5.8124192389 -1.4502650062 1.9075125015
C -4.766282609 -1.0289106884 1.3683393119
C -4.558151666 0.3855685611 0.7231382705
C -3.2557933249 0.5852436733 -0.1468526072
C -2.6314101133 -0.7431520633 -0.709686789
O -1.1981527457 -0.6114918275 -0.6641016397
C -0.5739553624 -1.4352144295 -1.729084417
C 0.7923508698 -0.7518963541 -2.1002109569
O 1.2601289478 0.0463601763 -0.9394468123
C 2.6222886965 -0.2659931503 -0.6352893398
C 3.06884103 0.6115788813 0.5871547358
C 4.590629489 0.3875786896 0.93258357
C 5.1934885576 -0.9882660783 0.4760130525
O 6.3431930886 -1.1877070539 0.0271307897
O -3.5102233689 -1.7142869507 1.4305187434
O 4.3184839657 -2.0290109773 0.9449639889
O 3.3327412782 -1.04796807 -1.3073793468
C 4.8555657175 -3.3557950119 0.5717369282
C 3.1285570398 2.1146703877 0.07235375
C 3.5415999292 3.0763330801 1.2577793163
C 5.0992448908 2.8497338968 1.3159305522
C 5.258996689 1.6712955494 0.2814661772
O 4.3267993016 2.0697405021 -0.8015695201
H 2.3893036715 0.4599050047 1.4441297301
H 4.719761906 0.4196909552 2.0310941266
H 2.2350096474 2.4261130423 -0.5027579247
H 3.2881921097 4.1212115148 1.0190691348
H 3.0403679938 2.7979706209 2.1988864692
H 5.6452140167 3.7406441459 0.9661342641
H 5.4588837587 2.584973972 2.3230144507
H 6.2780672087 1.5021262637 -0.1179211007
O -3.2242280582 -1.6634118118 -1.3124057507
C -3.6809280315 -3.0494079591 2.0460380302
C -5.698183347 0.8325933459 -0.2923379016
C -5.7616904708 2.408253357 -0.2532683711
C -4.4010447914 2.772274237 -0.9570916302
C -3.8861363003 1.3436671794 -1.3992387221
O -5.1255590508 0.5649792863 -1.63175648
H -4.5381942895 1.0944952918 1.5730712057
H -2.4770095758 1.1688042189 0.3732136769
H -4.3084054139 -3.7085723381 1.4118996913
H -6.6635611791 0.3058209973 -0.1617584574
H -6.6237145055 2.770008612 -0.8364281773
H -5.8357818514 2.8031638947 0.7724552429
H -4.556031418 3.4178653135 -1.8359482283
H -3.6911982773 3.2684803425 -0.2758709432
H -3.2489721499 1.3353080129 -2.3049186451
H -4.1450859205 -2.9775543612 3.0507024894
H -2.6652936636 -3.4774697517 2.13150707
H 4.2766865872 -3.76745739 -0.2798990008
H 4.7511983192 -4.0275702272 1.445169164
H 5.9211105666 -3.2606153826 0.2805819029
H 1.5706667967 -1.4983069924 -2.3692648428
H 0.6505868811 -0.0549876032 -2.9535399002
H -1.2356808248 -1.5112973676 -2.6178706701
H -0.3954837377 -2.4669809884 -1.3524266075
$end

$rem
JOBTYPE                   OPT
METHOD                    B3LYP
DFT_D                     d3_op
BASIS                     STO-3G
GEOM_OPT_MAX_CYCLES       100
GEOM_OPT_TOL_GRADIENT     300
GEOM_OPT_TOL_DISPLACEMENT 1200
GEOM_OPT_TOL_ENERGY       100
SYMMETRY                  False
THRESH                    12
SCF_CONVERGENCE           8
MAX_SUB_FILE_NUM          128
MEM_STATIC                400
MEM_TOTAL                 4000
$end
--------------------------------------------------------------

   16   -1510.2677703612      4.46E-09 Convergence criterion met
 Total energy in the final basis set = -1510.26777036
   14   -1510.2724780234      5.09E-09 Convergence criterion met
 Total energy in the final basis set = -1510.27247802
   13   -1510.2753179376      3.96E-09 Convergence criterion met
 Total energy in the final basis set = -1510.27531794
   13   -1510.2776738674      4.86E-09 Convergence criterion met
 Total energy in the final basis set = -1510.27767387
   13   -1510.2795086325      2.94E-09 Convergence criterion met
 Total energy in the final basis set = -1510.27950863
   13   -1510.2809872482      2.67E-09 Convergence criterion met
 Total energy in the final basis set = -1510.28098725
   13   -1510.2822589385      4.85E-09 Convergence criterion met
 Total energy in the final basis set = -1510.28225894
   12   -1510.2833675046      8.63E-09 Convergence criterion met
   11   -1510.3032699803      7.56E-09 Convergence criterion met
 Total energy in the final basis set = -1510.30326998
   10   -1510.3032695248      8.66E-09 Convergence criterion met
 Total energy in the final basis set = -1510.30326952
    9   -1510.3032794404      8.48E-09 Convergence criterion met
 Total energy in the final basis set = -1510.30327944
    9   -1510.3032879014      6.84E-09 Convergence criterion met
 Total energy in the final basis set = -1510.30328790
    9   -1510.3032784312      8.21E-09 Convergence criterion met
 Total energy in the final basis set = -1510.30327843
    9   -1510.3032747382      6.55E-09 Convergence criterion met
 Total energy in the final basis set = -1510.30327474

             Standard Nuclear Orientation (Angstroms)
    I     Atom           X                Y                Z
 ----------------------------------------------------------------
    1      O       2.7071288488     0.6381371965     1.9753830556
    2      C       3.2974317484    -0.0169336655     1.0901002968
    3      C       3.0615846822     0.0499522255    -0.4640662815
    4      C       1.9428524209    -0.9422059747    -0.9974269960
    5      C       1.3319329371    -1.8175494666     0.1514071263
    6      O       0.0932767671    -2.3876135601    -0.2816297726
    7      C      -0.4883224439    -3.2281829403     0.7939641863
    8      C      -0.9088913623    -2.3781322847     2.0719684274
    9      O      -0.7837408173    -0.9228910717     1.8258369672
   10      C      -1.7575164732    -0.5072086072     0.8634159374
   11      C      -1.5392931887     0.9971123992     0.5233412400
   12      C      -2.3450080701     1.4117838696    -0.7730127810
   13      C      -2.9854157886     0.2062050445    -1.5457213883
   14      O      -4.1922708055    -0.0255034347    -1.7624051039
   15      O       4.4158653067    -0.8846362581     1.3272226812
   16      O      -1.9027340387    -0.5440619608    -2.1462207751
   17      O      -2.6366549833    -1.2680166413     0.3960460710
   18      C      -2.4072347311    -1.7620651510    -2.8108206307
   19      C      -2.2348496950     1.9234795894     1.6064830966
   20      C      -1.8126995656     3.4224122496     1.3387983323
   21      C      -2.7143480145     3.7806602093     0.0981801755
   22      C      -3.4259500798     2.3971886679    -0.1637683039
   23      O      -3.6604379311     1.8754378477     1.2039381764
   24      H      -0.4505489575     1.1898705224     0.3880977062
   25      H      -1.6731379307     1.9371913210    -1.4760174939
   26      H      -2.1106470554     1.5781563834     2.6513316239
   27      H      -2.0506666814     4.0531029462     2.2100115900
   28      H      -0.7361779034     3.5100965233     1.1210535780
   29      H      -3.4575143933     4.5538852434     0.3508889490
   30      H      -2.1295279479     4.1219057067    -0.7707074500
   31      H      -4.3772193781     2.4374451131    -0.7291736299
   32      O       1.8458143981    -2.0408244655     1.2706497852
   33      C       4.6135422787    -1.0538530160     2.7834600038
   34      C       2.4486720238     1.4464835740    -0.8961716744
   35      C       2.6346998932     1.6129989031    -2.4536817113
   36      C       1.5494342441     0.6098549369    -2.9965337124
   37      C       0.9131120215     0.0692203862    -1.6563859440
   38      O       0.9877847994     1.2457376780    -0.7572780211
   39      H       4.0258310644    -0.1469486076    -0.9644213696
   40      H       2.3561923606    -1.6323859064    -1.7566249889
   41      H       3.7431258824    -1.5627839649     3.2462519293
   42      H       2.7794960535     2.3029791988    -0.2774657351
   43      H       2.4165127422     2.6488152501    -2.7593058910
   44      H       3.6552936144     1.3566582147    -2.7798351544
   45      H       0.7860312390     1.1278627195    -3.5985474383
   46      H       1.9849246538    -0.1996144025    -3.6038152110
   47      H      -0.1414344242    -0.2933719572    -1.7529623015
   48      H       4.7661682042    -0.0807463203     3.2936022279
   49      H       5.5158829244    -1.6815968646     2.9019882314
   50      H      -2.0916922000    -2.6530552026    -2.2316059817
   51      H      -1.9758928687    -1.8132889793    -3.8294403419
   52      H      -3.5138823060    -1.7179383541    -2.8622267582
   53      H      -1.9479242913    -2.6434404393     2.3617124264
   54      H      -0.2218485352    -2.5850898708     2.9145759297
   55      H       0.2261605777    -4.0226454632     1.0981149230
   56      H      -1.3814063078    -3.6912622575     0.3316039281
 ----------------------------------------------------------------

    9   -1510.3032740061      3.17E-09 Convergence criterion met
 Total energy in the final basis set = -1510.30327401
 Final energy is   -1510.30327400614
 **  OPTIMIZATION CONVERGED  **

                    Orbital Energies (a.u.)
 --------------------------------------------------------------

 Alpha MOs
 -- Occupied --
-18.945 -18.938 -18.925 -18.920 -18.893 -18.886 -18.877 -18.876
-18.869 -18.859 -10.108 -10.098 -10.095 -10.089 -10.078 -10.074
-10.061 -10.054 -10.053 -10.051 -10.049 -10.046 -10.040 -10.033
-10.026 -10.020 -10.017 -10.017 -10.012 -10.010  -1.027  -1.010
 -1.000  -0.997  -0.973  -0.961  -0.945  -0.936  -0.929  -0.923
 -0.763  -0.754  -0.727  -0.717  -0.710  -0.701  -0.691  -0.654
 -0.654  -0.620  -0.594  -0.577  -0.545  -0.538  -0.538  -0.529
 -0.509  -0.501  -0.476  -0.473  -0.462  -0.459  -0.451  -0.439
 -0.431  -0.428  -0.424  -0.418  -0.406  -0.405  -0.403  -0.400
 -0.393  -0.378  -0.372  -0.363  -0.362  -0.355  -0.347  -0.347
 -0.342  -0.334  -0.331  -0.330  -0.326  -0.323  -0.318  -0.313
 -0.306  -0.302  -0.299  -0.295  -0.292  -0.276  -0.275  -0.274
 -0.269  -0.259  -0.249  -0.244  -0.243  -0.230  -0.220  -0.195
 -0.174  -0.167  -0.164  -0.160  -0.154  -0.151  -0.147  -0.140
 -0.135

          Ground-State Mulliken Net Atomic Charges

     Atom                 Charge (a.u.)
  ----------------------------------------
      1 O                    -0.218929
      2 C                     0.213602
      3 C                    -0.081816
      4 C                    -0.079070
      5 C                     0.215731
      6 O                    -0.168476
      7 C                    -0.050611
      8 C                    -0.050271
      9 O                    -0.165555
     10 C                     0.213549
     11 C                    -0.093272
     12 C                    -0.082086
     13 C                     0.222824
     14 O                    -0.212281
     15 O                    -0.173237
     16 O                    -0.181023
     17 O                    -0.213683
     18 C                    -0.132420
     19 C                     0.024578
     20 C                    -0.143530
     21 C                    -0.142977
     22 C                     0.023724
     23 O                    -0.192183
     24 H                     0.119471
     25 H                     0.085768
     26 H                     0.083202
     27 H                     0.075988
     28 H                     0.078378
     29 H                     0.075838
     30 H                     0.072410
     31 H                     0.087249
     32 O                    -0.208608
     33 C                    -0.128037
     34 C                     0.027110
     35 C                    -0.144161
     36 C                    -0.144648
     37 C                     0.006170
     38 O                    -0.196610
     39 H                     0.084435
     40 H                     0.085618
     41 H                     0.091447
     42 H                     0.085900
     43 H                     0.076429
     44 H                     0.073578
     45 H                     0.076239
     46 H                     0.071796
     47 H                     0.116398
     48 H                     0.086456
     49 H                     0.085834
     50 H                     0.086304
     51 H                     0.082007
     52 H                     0.102736
     53 H                     0.091475
     54 H                     0.097073
     55 H                     0.088650
     56 H                     0.095517
  ----------------------------------------
  Sum of atomic charges =    -0.000000

                    Cartesian Multipole Moments
 -----------------------------------------------------------------
    Charge (ESU x 10^10)
                -0.0000
    Dipole Moment (Debye)
         X       2.9288      Y      -1.0327      Z      -1.5616
       Tot       3.4761
    Quadrupole Moments (Debye-Ang)
        XX    -171.6050     XY       0.8360     YY    -147.6230
        XZ      -2.2993     YZ      -4.0054     ZZ    -153.3209

 Total job time:  223.01s(wall), 10630.86s(cpu)
        *  Thank you very much for using Q-Chem.  Have a nice day.  *
