 Q-Chem 5.0, Q-Chem, Inc., Pleasanton, CA (2017)
 Q-Chem 5.0.1 for Intel X86 EM64T Linux

User input:
--------------------------------------------------------------
$molecule
0  1
O -3.94934 -3.66094 2.70899
C -3.26408 -4.56952 2.26188
C -3.36658 -6.02376 2.66595
C -2.21187 -6.60478 3.49835
C -1.16989 -5.62197 3.9846
O -0.09547 -6.29696 4.49001
C 0.7942 -5.46073 5.23731
C 0.07135 -4.19627 5.68981
O 0.69229 -3.0413 5.10384
C 0.1518 -2.61918 3.93387
C 0.83986 -1.39643 3.37518
C 0.07021 -0.67324 2.26032
C -1.39152 -1.04676 2.11695
O -2.29657 -0.27369 1.83801
O -2.47927 -4.36944 1.16863
O -1.93882 -1.96084 2.95342
O -0.03484 -3.45369 3.05855
C -2.74617 -1.59349 4.03447
C 0.99425 -0.23595 4.38812
C 2.16821 0.64764 3.9706
C 1.60191 1.29745 2.72436
C 0.16048 0.77514 2.77552
O -0.10099 0.61213 4.14683
H 1.85937 -1.71476 3.05536
H 0.536 -0.83113 1.2636
H 1.12765 -0.56843 5.44008
H 2.27561 1.42658 4.75972
H 3.14351 0.1326 3.83538
H 1.63891 2.4014 2.85728
H 2.09617 1.00845 1.77144
H -0.51713 1.46691 2.22906
O -1.74603 -4.60357 4.32715
C -2.53731 -3.30575 0.29235
C -4.54009 -6.27383 3.64562
C -4.96225 -7.7428 3.59803
C -3.80138 -8.39261 4.31897
C -2.99256 -7.15286 4.71028
O -3.96894 -6.1649 4.92491
H -3.57852 -6.60183 1.73813
H -1.67513 -7.41167 2.94999
H -1.53923 -2.83063 0.22441
H -5.42363 -5.62795 3.44841
H -5.87256 -7.84687 4.23122
H -5.17561 -8.14022 2.58249
H -4.19179 -8.89991 5.22927
H -3.20387 -9.10729 3.71261
H -2.33042 -7.37985 5.57493
H -3.30642 -2.55886 0.58252
H -2.79353 -3.68899 -0.71653
H -3.01137 -2.47918 4.64247
H -3.68537 -1.11149 3.68767
H -2.19886 -0.89463 4.70071
H -0.90795 -4.07302 6.21127
H 0.55121 -4.11201 6.69004
H 1.73751 -5.26612 4.68247
H 1.06532 -6.0643 6.13443
$end

$opt
CONSTRAINT
tors           1           2           3           4    -109.262
tors           3           4           5           6    -169.018
tors           4           5           6           7    -166.792
tors           5           6           7           8     +20.510
tors           6           7           8           9    -117.536
tors           7           8           9          10     +93.004
tors           8           9          10          11    +179.513
tors           9          10          11          12    -165.459
tors          11          12          13          14    +142.494
ENDCONSTRAINT
$end

$rem
JOBTYPE                   OPT
METHOD                    B3LYP
DFT_D                     d3_op
BASIS                     STO-3G
GEOM_OPT_MAX_CYCLES       100
GEOM_OPT_TOL_GRADIENT     300
GEOM_OPT_TOL_DISPLACEMENT 1200
GEOM_OPT_TOL_ENERGY       100
SYMMETRY                  False
THRESH                    12
SCF_CONVERGENCE           8
MAX_SUB_FILE_NUM          128
MEM_STATIC                400
MEM_TOTAL                 4000
$end
--------------------------------------------------------------

   16   -1509.9722999830      3.36E-09 Convergence criterion met
 Total energy in the final basis set = -1509.97229998
   14   -1510.0498072926      7.11E-09 Convergence criterion met
 Total energy in the final basis set = -1510.04980729
   14   -1510.1139850824      8.97E-09 Convergence criterion met
 Total energy in the final basis set = -1510.11398508
   14   -1510.1523450163      9.85E-09 Convergence criterion met
 Total energy in the final basis set = -1510.15234502
   14   -1510.1778835113      4.76E-09 Convergence criterion met
 Total energy in the final basis set = -1510.17788351
   14   -1510.1956842358      3.85E-09 Convergence criterion met
 Total energy in the final basis set = -1510.19568424
   14   -1510.2091000640      4.77E-09 Convergence criterion met
 Total energy in the final basis set = -1510.20910006
   13   -1510.2197209823      9.39E-09 Convergence criterion met
   11   -1510.2569855382      7.15E-09 Convergence criterion met
 Total energy in the final basis set = -1510.25698554
   11   -1510.2569925483      2.72E-09 Convergence criterion met
 Total energy in the final basis set = -1510.25699255
   11   -1510.2569981305      1.73E-09 Convergence criterion met
 Total energy in the final basis set = -1510.25699813
   10   -1510.2570014169      5.45E-09 Convergence criterion met
 Total energy in the final basis set = -1510.25700142
   10   -1510.2570037102      8.94E-09 Convergence criterion met
 Total energy in the final basis set = -1510.25700371
   10   -1510.2570045887      3.77E-09 Convergence criterion met
 Total energy in the final basis set = -1510.25700459

             Standard Nuclear Orientation (Angstroms)
    I     Atom           X                Y                Z
 ----------------------------------------------------------------
    1      O       2.5768257801     2.1320968788    -1.2898773760
    2      C       2.8836420610     1.7981008212    -0.1266694015
    3      C       4.1314413371     0.9614301865     0.3414580249
    4      C       3.7513498073    -0.4925332966     0.8400816823
    5      C       2.2385362519    -0.8444554530     0.6069346046
    6      O       1.9925025562    -2.0464735121     1.3240935754
    7      C       0.7418423599    -2.8054695450     1.0754596111
    8      C      -0.1572545755    -2.6734100960    -0.2360101255
    9      O      -1.5141739895    -2.1732271390     0.0708988824
   10      C      -1.7763829962    -0.7633173666    -0.0015932638
   11      C      -3.3120369573    -0.6828329320     0.3808075480
   12      C      -4.1782809731     0.6245265533     0.1212960936
   13      C      -3.6218627725     1.8828904805    -0.6427222372
   14      O      -4.3159539072     2.5705508731    -1.4291924365
   15      O       2.1443729664     2.1318048664     1.0560659043
   16      O      -2.3352965573     2.2805273774    -0.1748242070
   17      O      -0.9696454330     0.1194892444    -0.3424117560
   18      C      -1.9176615925     3.5246122447    -0.8703782310
   19      C      -4.1709606554    -1.7629316404    -0.4242570479
   20      C      -5.4511107392    -2.1205081871     0.4270576854
   21      C      -6.3174462255    -0.8221167199     0.2248577930
   22      C      -5.3809140102     0.0217577600    -0.7242959522
   23      O      -4.7171749452    -1.0001089846    -1.5655834136
   24      H      -3.3549717073    -0.9188496825     1.4608649490
   25      H      -4.5410467549     1.0057228041     1.0953552068
   26      H      -3.5729883238    -2.6265634418    -0.7716255166
   27      H      -5.9518464239    -3.0082939393     0.0088686994
   28      H      -5.2099110955    -2.3155874503     1.4840993434
   29      H      -7.2722355246    -1.0465802986    -0.2766959810
   30      H      -6.5312915857    -0.2984762293     1.1704504957
   31      H      -5.8823424168     0.7819694019    -1.3551521961
   32      O       1.4543162026    -0.2718233143    -0.1767203391
   33      C       0.8156574679     2.6673138966     0.6858722480
   34      C       5.1087175061     0.6283257929    -0.8606119489
   35      C       6.5040564858     0.2021011765    -0.2589746483
   36      C       6.1623928340    -1.2252123424     0.3089641103
   37      C       4.6512641314    -1.3776695498    -0.1290499739
   38      O       4.5745069252    -0.6415676683    -1.4098774225
   39      H       4.6463308524     1.5204992660     1.1432256875
   40      H       4.0089032795    -0.6569378749     1.9012429599
   41      H       0.1710688992     1.8643067299     0.2620625792
   42      H       5.1369630003     1.4045478542    -1.6498461949
   43      H       7.2661091526     0.1473340571    -1.0527651876
   44      H       6.8529900207     0.8981354514     0.5203946450
   45      H       6.7799972540    -2.0075735822    -0.1600983881
   46      H       6.2818659539    -1.2892480652     1.4023076271
   47      H       4.2988080447    -2.4203202837    -0.2521927807
   48      H       0.9047970348     3.4897889360    -0.0507145400
   49      H       0.3644799611     3.0516147080     1.6190062529
   50      H      -1.0695786332     3.2978173035    -1.5449954750
   51      H      -1.5993633051     4.2591006119    -0.1068848961
   52      H      -2.7739625328     3.9165815462    -1.4553574553
   53      H       0.3470675051    -2.0209585751    -0.9819367602
   54      H      -0.3096204510    -3.6852201536    -0.6623732507
   55      H       0.0630588816    -2.6102828533     1.9385180989
   56      H       1.0680059774    -3.8638581519     1.1576258930
 ----------------------------------------------------------------

    9   -1510.2570051256      7.41E-09 Convergence criterion met
 Total energy in the final basis set = -1510.25700513
 Final energy is   -1510.25700512560
 **  OPTIMIZATION CONVERGED  **

                    Orbital Energies (a.u.)
 --------------------------------------------------------------

 Alpha MOs
 -- Occupied --
-18.939 -18.933 -18.927 -18.909 -18.889 -18.884 -18.884 -18.884
-18.868 -18.856 -10.106 -10.105 -10.096 -10.083 -10.080 -10.079
-10.059 -10.055 -10.054 -10.053 -10.049 -10.037 -10.037 -10.036
-10.035 -10.028 -10.019 -10.018 -10.017 -10.017  -1.017  -1.009
 -1.005  -0.990  -0.968  -0.967  -0.947  -0.939  -0.930  -0.917
 -0.761  -0.759  -0.729  -0.719  -0.714  -0.703  -0.694  -0.656
 -0.644  -0.625  -0.597  -0.581  -0.542  -0.540  -0.536  -0.533
 -0.514  -0.506  -0.474  -0.470  -0.462  -0.451  -0.450  -0.444
 -0.437  -0.429  -0.428  -0.413  -0.406  -0.402  -0.400  -0.394
 -0.390  -0.378  -0.369  -0.365  -0.357  -0.352  -0.350  -0.345
 -0.340  -0.339  -0.335  -0.330  -0.328  -0.321  -0.318  -0.312
 -0.309  -0.306  -0.302  -0.298  -0.293  -0.286  -0.271  -0.270
 -0.266  -0.254  -0.244  -0.240  -0.235  -0.232  -0.231  -0.182
 -0.178  -0.172  -0.159  -0.155  -0.153  -0.144  -0.142  -0.139
 -0.134

          Ground-State Mulliken Net Atomic Charges

     Atom                 Charge (a.u.)
  ----------------------------------------
      1 O                    -0.213851
      2 C                     0.215978
      3 C                    -0.081363
      4 C                    -0.076447
      5 C                     0.216670
      6 O                    -0.175714
      7 C                    -0.053342
      8 C                    -0.051653
      9 O                    -0.185462
     10 C                     0.216503
     11 C                    -0.077278
     12 C                    -0.079267
     13 C                     0.211448
     14 O                    -0.219285
     15 O                    -0.181677
     16 O                    -0.160470
     17 O                    -0.185543
     18 C                    -0.137195
     19 C                     0.024553
     20 C                    -0.144041
     21 C                    -0.144935
     22 C                     0.023205
     23 O                    -0.192026
     24 H                     0.082049
     25 H                     0.082859
     26 H                     0.090087
     27 H                     0.077287
     28 H                     0.072071
     29 H                     0.077943
     30 H                     0.072241
     31 H                     0.093111
     32 O                    -0.196483
     33 C                    -0.138124
     34 C                     0.024535
     35 C                    -0.143726
     36 C                    -0.143920
     37 C                     0.024488
     38 O                    -0.189680
     39 H                     0.082441
     40 H                     0.085644
     41 H                     0.111249
     42 H                     0.089414
     43 H                     0.077458
     44 H                     0.073081
     45 H                     0.077261
     46 H                     0.073299
     47 H                     0.080996
     48 H                     0.082214
     49 H                     0.079618
     50 H                     0.093210
     51 H                     0.083766
     52 H                     0.102656
     53 H                     0.108962
     54 H                     0.091098
     55 H                     0.086041
     56 H                     0.088045
  ----------------------------------------
  Sum of atomic charges =    -0.000000

                    Cartesian Multipole Moments
 -----------------------------------------------------------------
    Charge (ESU x 10^10)
                 0.0000
    Dipole Moment (Debye)
         X       0.4969      Y      -2.2224      Z       3.9280
       Tot       4.5404
    Quadrupole Moments (Debye-Ang)
        XX    -148.1716     XY       1.0051     YY    -150.2388
        XZ      -4.0602     YZ       1.5866     ZZ    -166.5098

 Total job time:  162.55s(wall), 7755.58s(cpu)
        *  Thank you very much for using Q-Chem.  Have a nice day.  *
