 Q-Chem 5.0, Q-Chem, Inc., Pleasanton, CA (2017)
 Q-Chem 5.0.1 for Intel X86 EM64T Linux

User input:
--------------------------------------------------------------
$molecule
0  1
O 2.5768257801 2.1320968788 -1.289877376
C 2.883642061 1.7981008212 -0.1266694015
C 4.1314413371 0.9614301865 0.3414580249
C 3.7513498073 -0.4925332966 0.8400816823
C 2.2385362519 -0.844455453 0.6069346046
O 1.9925025562 -2.0464735121 1.3240935754
C 0.7418423599 -2.805469545 1.0754596111
C -0.1572545755 -2.673410096 -0.2360101255
O -1.5141739895 -2.173227139 0.0708988824
C -1.7763829962 -0.7633173666 -0.0015932638
C -3.3120369573 -0.682832932 0.380807548
C -4.1782809731 0.6245265533 0.1212960936
C -3.6218627725 1.8828904805 -0.6427222372
O -4.3159539072 2.5705508731 -1.4291924365
O 2.1443729664 2.1318048664 1.0560659043
O -2.3352965573 2.2805273774 -0.174824207
O -0.969645433 0.1194892444 -0.342411756
C -1.9176615925 3.5246122447 -0.870378231
C -4.1709606554 -1.7629316404 -0.4242570479
C -5.4511107392 -2.1205081871 0.4270576854
C -6.3174462255 -0.8221167199 0.224857793
C -5.3809140102 0.02175776 -0.7242959522
O -4.7171749452 -1.0001089846 -1.5655834136
H -3.3549717073 -0.9188496825 1.460864949
H -4.5410467549 1.0057228041 1.0953552068
H -3.5729883238 -2.6265634418 -0.7716255166
H -5.9518464239 -3.0082939393 0.0088686994
H -5.2099110955 -2.3155874503 1.4840993434
H -7.2722355246 -1.0465802986 -0.276695981
H -6.5312915857 -0.2984762293 1.1704504957
H -5.8823424168 0.7819694019 -1.3551521961
O 1.4543162026 -0.2718233143 -0.1767203391
C 0.8156574679 2.6673138966 0.685872248
C 5.1087175061 0.6283257929 -0.8606119489
C 6.5040564858 0.2021011765 -0.2589746483
C 6.162392834 -1.2252123424 0.3089641103
C 4.6512641314 -1.3776695498 -0.1290499739
O 4.5745069252 -0.6415676683 -1.4098774225
H 4.6463308524 1.520499266 1.1432256875
H 4.0089032795 -0.6569378749 1.9012429599
H 0.1710688992 1.8643067299 0.2620625792
H 5.1369630003 1.4045478542 -1.6498461949
H 7.2661091526 0.1473340571 -1.0527651876
H 6.8529900207 0.8981354514 0.520394645
H 6.779997254 -2.0075735822 -0.1600983881
H 6.2818659539 -1.2892480652 1.4023076271
H 4.2988080447 -2.4203202837 -0.2521927807
H 0.9047970348 3.489788936 -0.05071454
H 0.3644799611 3.051614708 1.6190062529
H -1.0695786332 3.2978173035 -1.544995475
H -1.5993633051 4.2591006119 -0.1068848961
H -2.7739625328 3.9165815462 -1.4553574553
H 0.3470675051 -2.0209585751 -0.9819367602
H -0.309620451 -3.6852201536 -0.6623732507
H 0.0630588816 -2.6102828533 1.9385180989
H 1.0680059774 -3.8638581519 1.157625893
$end

$rem
JOBTYPE                   OPT
METHOD                    B3LYP
DFT_D                     d3_op
BASIS                     STO-3G
GEOM_OPT_MAX_CYCLES       100
GEOM_OPT_TOL_GRADIENT     300
GEOM_OPT_TOL_DISPLACEMENT 1200
GEOM_OPT_TOL_ENERGY       100
SYMMETRY                  False
THRESH                    12
SCF_CONVERGENCE           8
MAX_SUB_FILE_NUM          128
MEM_STATIC                400
MEM_TOTAL                 4000
$end
--------------------------------------------------------------

   16   -1510.2568018357      4.30E-09 Convergence criterion met
 Total energy in the final basis set = -1510.25680184
   14   -1510.2600881719      6.73E-09 Convergence criterion met
 Total energy in the final basis set = -1510.26008817
   15   -1510.2601154750      1.62E-09 Convergence criterion met
 Total energy in the final basis set = -1510.26011547
   15   -1510.2633519348      2.63E-09 Convergence criterion met
 Total energy in the final basis set = -1510.26335193
   14   -1510.2654532324      3.95E-09 Convergence criterion met
 Total energy in the final basis set = -1510.26545323
   13   -1510.2685307602      7.42E-09 Convergence criterion met
 Total energy in the final basis set = -1510.26853076
   13   -1510.2717778736      8.58E-09 Convergence criterion met
 Total energy in the final basis set = -1510.27177787
   13   -1510.2747114708      3.75E-09 Convergence criterion met
   11   -1510.2947596629      4.83E-09 Convergence criterion met
 Total energy in the final basis set = -1510.29475966
   11   -1510.2947649382      5.83E-09 Convergence criterion met
 Total energy in the final basis set = -1510.29476494
   11   -1510.2947615072      9.92E-09 Convergence criterion met
 Total energy in the final basis set = -1510.29476151
   11   -1510.2947659994      3.37E-09 Convergence criterion met
 Total energy in the final basis set = -1510.29476600
    9   -1510.2947653606      7.02E-09 Convergence criterion met
 Total energy in the final basis set = -1510.29476536
    9   -1510.2947639291      9.37E-09 Convergence criterion met
 Total energy in the final basis set = -1510.29476393

             Standard Nuclear Orientation (Angstroms)
    I     Atom           X                Y                Z
 ----------------------------------------------------------------
    1      O      -1.6336450840     2.0039432634     0.1879049401
    2      C      -2.0642478506     1.4029263583    -0.8219939375
    3      C      -3.4557941565     0.6751573215    -0.9228327896
    4      C      -3.4333898606    -0.8697151331    -0.5758589392
    5      C      -2.0039201630    -1.4483572552    -0.2898615306
    6      O      -2.1709146838    -2.7094058568     0.3658740135
    7      C      -0.8910222362    -3.4458734754     0.4850339177
    8      C       0.2166527330    -2.7573447446     1.3772875709
    9      O       1.3716494696    -2.4250417092     0.5124307604
   10      C       1.6836421495    -1.0307041626     0.5832038489
   11      C       2.8401678446    -0.7458832494    -0.4341142458
   12      C       3.4793233897     0.6934532088    -0.2707625491
   13      C       2.7863846997     1.5881723622     0.8205877079
   14      O       3.1484279184     1.7631168071     2.0031499774
   15      O      -1.4381419272     1.3648935560    -2.1000874815
   16      O       1.7051351573     2.2826026505     0.1864726625
   17      O       1.1203557207    -0.2192130155     1.3505781513
   18      C       0.9260699327     3.0773775564     1.1666597737
   19      C       4.1002537570    -1.6686197791    -0.1452098519
   20      C       5.0823349180    -1.5814452117    -1.3803601580
   21      C       5.7282196649    -0.1631042900    -1.1575888524
   22      C       4.9646416716     0.3158415684     0.1381102386
   23      O       4.8083399060    -0.9306456360     0.9242053560
   24      H       2.4445801684    -0.9055379441    -1.4540283594
   25      H       3.4454641556     1.2410788505    -1.2291206682
   26      H       3.8388125806    -2.6921923350     0.1863234205
   27      H       5.8366989447    -2.3828053605    -1.3316960665
   28      H       4.5462118431    -1.6586486888    -2.3397031124
   29      H       6.8094550384    -0.2395841317    -0.9611386591
   30      H       5.5704507840     0.5164995214    -2.0101852058
   31      H       5.4789279663     1.0878680372     0.7422410181
   32      O      -0.9000385004    -0.9473705162    -0.5956065413
   33      C      -0.1514308273     2.1031949533    -2.0935696548
   34      C      -4.4364985144     1.2116152239     0.2043620408
   35      C      -5.9101489117     0.7753488670    -0.1587584841
   36      C      -5.8754260024    -0.7540299542     0.2088320824
   37      C      -4.3830757595    -0.9138055393     0.6987844396
   38      O      -4.1000215099     0.3699811169     1.3768033889
   39      H      -3.8573029659     0.8399454793    -1.9382768505
   40      H      -3.8635872804    -1.4646064029    -1.4034197973
   41      H       0.4907265777     1.8847003076    -1.2059898725
   42      H      -4.3008121655     2.2823111569     0.4503187546
   43      H      -6.6384661990     1.3231473630     0.4600026631
   44      H      -6.1450262706     0.9522180932    -1.2204811801
   45      H      -6.5744396265    -0.9889238431     1.0273022043
   46      H      -6.1053332039    -1.4054952435    -0.6493534661
   47      H      -4.1895948350    -1.7701557587     1.3733509342
   48      H      -0.3364265724     3.1968836956    -2.1267868448
   49      H       0.3694638925     1.8021546649    -3.0209069849
   50      H      -0.1426050726     2.8463695349     0.9622609920
   51      H       1.1310471645     4.1554858951     1.0108995213
   52      H       1.2147350885     2.7935013722     2.1966152864
   53      H      -0.1560565106    -1.8295479659     1.8646098066
   54      H       0.5644646426    -3.4652830212     2.1587868507
   55      H      -0.4513375578    -3.6239224027    -0.5218221577
   56      H      -1.1803918708    -4.4216098572     0.9235172152
 ----------------------------------------------------------------

    9   -1510.2947629300      6.27E-09 Convergence criterion met
 Total energy in the final basis set = -1510.29476293
 Final energy is   -1510.29476293003
 **  OPTIMIZATION CONVERGED  **

                    Orbital Energies (a.u.)
 --------------------------------------------------------------

 Alpha MOs
 -- Occupied --
-18.943 -18.934 -18.925 -18.915 -18.888 -18.887 -18.883 -18.883
-18.867 -18.857 -10.109 -10.103 -10.096 -10.086 -10.081 -10.072
-10.060 -10.057 -10.057 -10.054 -10.041 -10.039 -10.037 -10.034
-10.029 -10.025 -10.021 -10.019 -10.018 -10.017  -1.023  -1.012
 -1.001  -0.991  -0.970  -0.966  -0.948  -0.938  -0.928  -0.918
 -0.763  -0.759  -0.728  -0.721  -0.714  -0.704  -0.694  -0.651
 -0.640  -0.620  -0.593  -0.580  -0.545  -0.541  -0.537  -0.533
 -0.514  -0.507  -0.483  -0.464  -0.461  -0.454  -0.452  -0.448
 -0.436  -0.431  -0.429  -0.417  -0.403  -0.399  -0.394  -0.393
 -0.388  -0.384  -0.374  -0.368  -0.357  -0.352  -0.346  -0.346
 -0.341  -0.333  -0.329  -0.326  -0.325  -0.320  -0.318  -0.315
 -0.310  -0.307  -0.302  -0.299  -0.294  -0.280  -0.277  -0.274
 -0.269  -0.260  -0.252  -0.246  -0.234  -0.231  -0.225  -0.190
 -0.174  -0.168  -0.161  -0.158  -0.156  -0.144  -0.144  -0.141
 -0.138

          Ground-State Mulliken Net Atomic Charges

     Atom                 Charge (a.u.)
  ----------------------------------------
      1 O                    -0.216856
      2 C                     0.220824
      3 C                    -0.080670
      4 C                    -0.077809
      5 C                     0.213935
      6 O                    -0.172851
      7 C                    -0.049666
      8 C                    -0.054896
      9 O                    -0.175104
     10 C                     0.224982
     11 C                    -0.076901
     12 C                    -0.081785
     13 C                     0.219330
     14 O                    -0.216088
     15 O                    -0.169948
     16 O                    -0.179636
     17 O                    -0.202265
     18 C                    -0.148380
     19 C                     0.024183
     20 C                    -0.144103
     21 C                    -0.143975
     22 C                     0.025070
     23 O                    -0.189450
     24 H                     0.088431
     25 H                     0.082803
     26 H                     0.087244
     27 H                     0.077307
     28 H                     0.072687
     29 H                     0.077509
     30 H                     0.072800
     31 H                     0.087816
     32 O                    -0.208398
     33 C                    -0.143237
     34 C                     0.025859
     35 C                    -0.144600
     36 C                    -0.143729
     37 C                     0.024284
     38 O                    -0.187577
     39 H                     0.084015
     40 H                     0.085398
     41 H                     0.116885
     42 H                     0.087180
     43 H                     0.078135
     44 H                     0.073049
     45 H                     0.078189
     46 H                     0.072756
     47 H                     0.089319
     48 H                     0.075809
     49 H                     0.079533
     50 H                     0.116064
     51 H                     0.072014
     52 H                     0.095433
     53 H                     0.108969
     54 H                     0.086564
     55 H                     0.092236
     56 H                     0.091314
  ----------------------------------------
  Sum of atomic charges =     0.000000

                    Cartesian Multipole Moments
 -----------------------------------------------------------------
    Charge (ESU x 10^10)
                 0.0000
    Dipole Moment (Debye)
         X      -1.8699      Y      -2.2764      Z      -3.6997
       Tot       4.7293
    Quadrupole Moments (Debye-Ang)
        XX    -149.2868     XY       1.4213     YY    -149.8794
        XZ      -6.4013     YZ      -4.9581     ZZ    -164.5472

 Total job time:  115.22s(wall), 5494.82s(cpu)
        *  Thank you very much for using Q-Chem.  Have a nice day.  *
