 Q-Chem 5.0, Q-Chem, Inc., Pleasanton, CA (2017)
 Q-Chem 5.0.1 for Intel X86 EM64T Linux

User input:
--------------------------------------------------------------
$molecule
0  1
O -5.4763022095 -0.2056952629 1.2418408327
C -4.7185142024 -0.0019271443 0.2697562584
C -3.6312327137 -0.9804382861 -0.304068877
C -2.2351325095 -0.3129655815 -0.6343382439
C -2.1066246272 1.1110154917 0.0120678655
O -0.9552940955 1.8001260419 -0.5020367495
C -0.5372898729 2.8761696746 0.4350598365
C 0.9803031499 3.2598753145 0.2536312314
O 2.1157693946 2.3295930313 0.4834599973
C 1.8094308499 0.954961401 0.6782339518
C 3.1535714667 0.1625582322 0.8886502538
C 3.2828380508 -1.2203782884 0.1294635157
C 2.5901530392 -1.2881544731 -1.2913249695
O 3.0414580753 -1.8908992309 -2.2896741821
O -4.8914738271 1.0723345667 -0.6718715931
O 1.4177875606 -0.4755073602 -1.3315189985
O 0.6790013337 0.5245983122 0.9961055937
C 0.8618912858 -0.4231228054 -2.7015739879
C 4.5326928405 0.858572272 0.508123019
C 5.5967075855 0.3396546206 1.5502331655
C 5.7016413701 -1.1728976506 1.1217793479
C 4.835280056 -1.1878913337 -0.1988205332
O 4.9628548757 0.1898923581 -0.7423721906
H 3.1563849827 -0.0557944999 1.973910112
H 2.9644150121 -2.0744488283 0.7547308353
H 4.4728702758 1.9549404797 0.3706883804
H 6.555720198 0.8639999525 1.4095713544
H 5.2694986577 0.4699797375 2.5941821979
H 6.7412629044 -1.4662171001 0.9076305464
H 5.2935058032 -1.8557556274 1.8845744701
H 5.1337673653 -1.9309038961 -0.9638418583
O -2.8068031746 1.5497523125 0.953374913
C -5.9171608509 2.0127295255 -0.1723085548
C -3.2148054999 -2.1240608849 0.7073603882
C -2.6387502341 -3.3245830552 -0.1392345636
C -1.2746844627 -2.7072692586 -0.6291421649
C -1.2649415215 -1.3194597083 0.1274761016
O -2.0089799658 -1.58765825 1.3788601119
H -4.0592351179 -1.4174892828 -1.2258326431
H -2.0299093014 -0.2640255379 -1.7173804881
H -5.5934500871 2.4962728341 0.7721994745
H -4.0001782972 -2.3760648487 1.4466638716
H -2.4741864319 -4.2037756041 0.5041682297
H -3.3010127903 -3.6132869179 -0.971244635
H -0.4148970916 -3.323032493 -0.321221903
H -1.240436952 -2.5800726614 -1.7226941965
H -0.2713431377 -0.873952661 0.3567890764
H -6.887867981 1.5061908126 0.0062250125
H -6.0389517339 2.7816660423 -0.95743088
H 0.0557589252 0.3327205186 -2.6633292742
H 0.4422603201 -1.4033773193 -3.0063044844
H 1.6309264636 -0.121072446 -3.4408660902
H 1.1061533486 3.6317154635 -0.7883528687
H 1.1655810433 4.120130222 0.9337461886
H -0.7601954519 2.5800026116 1.4815528016
H -1.1075954735 3.8092689925 0.2194332308
$end

$rem
JOBTYPE                   OPT
METHOD                    B3LYP
DFT_D                     d3_op
BASIS                     STO-3G
GEOM_OPT_MAX_CYCLES       100
GEOM_OPT_TOL_GRADIENT     300
GEOM_OPT_TOL_DISPLACEMENT 1200
GEOM_OPT_TOL_ENERGY       100
SYMMETRY                  False
THRESH                    12
SCF_CONVERGENCE           8
MAX_SUB_FILE_NUM          128
MEM_STATIC                400
MEM_TOTAL                 4000
$end
--------------------------------------------------------------

   16   -1510.2666849030      5.90E-09 Convergence criterion met
 Total energy in the final basis set = -1510.26668490
   14   -1510.2681553376      3.28E-09 Convergence criterion met
 Total energy in the final basis set = -1510.26815534
   14   -1510.2698359423      2.77E-09 Convergence criterion met
 Total energy in the final basis set = -1510.26983594
   14   -1510.2738699990      6.87E-09 Convergence criterion met
 Total energy in the final basis set = -1510.27387000
   14   -1510.2770223741      2.10E-09 Convergence criterion met
 Total energy in the final basis set = -1510.27702237
   13   -1510.2796046152      4.59E-09 Convergence criterion met
 Total energy in the final basis set = -1510.27960462
   13   -1510.2814272808      4.05E-09 Convergence criterion met
 Total energy in the final basis set = -1510.28142728
   13   -1510.2830772567      5.40E-09 Convergence criterion met
   12   -1510.3088421838      8.46E-09 Convergence criterion met
 Total energy in the final basis set = -1510.30884218
   12   -1510.3089181295      4.65E-09 Convergence criterion met
 Total energy in the final basis set = -1510.30891813
   11   -1510.3089390020      8.92E-09 Convergence criterion met
 Total energy in the final basis set = -1510.30893900
   11   -1510.3089439737      5.68E-09 Convergence criterion met
 Total energy in the final basis set = -1510.30894397
   10   -1510.3089451265      8.58E-09 Convergence criterion met
 Total energy in the final basis set = -1510.30894513
    9   -1510.3089453479      4.88E-09 Convergence criterion met
 Total energy in the final basis set = -1510.30894535

             Standard Nuclear Orientation (Angstroms)
    I     Atom           X                Y                Z
 ----------------------------------------------------------------
    1      O      -1.0009258240     0.3198953861     2.2447064493
    2      C      -2.0951467290     0.0907109874     1.6752059891
    3      C      -2.4406118529    -1.1171678462     0.7224831897
    4      C      -2.0555992279    -0.8461143476    -0.7901520515
    5      C      -1.7361340161     0.6558111087    -1.0703370952
    6      O      -1.6400750890     0.8641462840    -2.4811634062
    7      C      -1.1803175745     2.2507651515    -2.7515178700
    8      C       0.3956912263     2.3034756126    -2.6873034343
    9      O       0.8472894778     1.3948274898    -1.6154952780
   10      C       1.1468986981     2.1062177072    -0.3971165951
   11      C       1.4244602590     1.0442599046     0.7091403926
   12      C       2.1375552237    -0.2852757679     0.2183268122
   13      C       2.6087869845    -0.2457769655    -1.2723265572
   14      O       3.5634420161     0.3956483376    -1.7616133778
   15      O      -3.2961060562     0.8249139473     1.9233203032
   16      O       1.8083577564    -1.1725587428    -2.0502701575
   17      O       1.1329239103     3.3506056449    -0.3040119635
   18      C       2.1966632577    -1.1134878410    -3.4756382049
   19      C       2.4347616873     1.5556808691     1.8153319003
   20      C       2.2022800126     0.6707935494     3.1015211028
   21      C       2.8579310767    -0.6867738972     2.6490667022
   22      C       3.3805616233    -0.3145927384     1.2041881778
   23      O       3.7599798035     1.1125432170     1.3221628842
   24      H       0.4466560613     0.7799944493     1.1789240306
   25      H       1.4413161113    -1.1369723460     0.3637519340
   26      H       2.4205819621     2.6519861044     1.9715412167
   27      H       2.7215963530     1.1021771426     3.9721011542
   28      H       1.1295560536     0.5653582355     3.3314021472
   29      H       3.6984126829    -0.9700194783     3.3027573451
   30      H       2.1336340631    -1.5165264197     2.6213519984
   31      H       4.2400076075    -0.9128054891     0.8444061385
   32      O      -1.6371065896     1.5651767238    -0.2120551235
   33      C      -2.9920949003     2.0136391117     2.7528039547
   34      C      -1.4962963111    -2.3455989332     1.0477254336
   35      C      -1.9726245313    -3.6073336335     0.2225088198
   36      C      -1.4084653626    -3.2754542957    -1.2116150560
   37      C      -0.8138888975    -1.8345812079    -0.9760533280
   38      O      -0.2372239825    -1.9507687205     0.3809879937
   39      H      -3.5137196964    -1.3537100153     0.8301036718
   40      H      -2.8747898570    -1.1471470383    -1.4675791024
   41      H      -2.2972995542     2.6976428552     2.2240080893
   42      H      -1.3260751147    -2.5187069465     2.1279942616
   43      H      -1.5273517088    -4.5277248889     0.6322261878
   44      H      -3.0694666952    -3.7125001877     0.2322305702
   45      H      -0.6061853053    -3.9746309717    -1.4970574629
   46      H      -2.1869336868    -3.2900541715    -1.9911714259
   47      H      -0.0008955432    -1.5008928366    -1.6647212082
   48      H      -2.5408289842     1.7291599864     3.7251612111
   49      H      -3.9579908125     2.5228149495     2.9251531901
   50      H       1.3490411659    -0.7200549468    -4.0714109299
   51      H       2.4465169594    -2.1344563962    -3.8241528582
   52      H       3.0762155831    -0.4450395465    -3.5772661630
   53      H       0.8389957640     1.9319070946    -3.6328374094
   54      H       0.7368048943     3.3408380260    -2.4806058853
   55      H      -1.6112174759     2.9425813291    -1.9976704862
   56      H      -1.5428145035     2.5140953978    -3.7649010574
 ----------------------------------------------------------------

    8   -1510.3089454635      7.23E-09 Convergence criterion met
 Total energy in the final basis set = -1510.30894546
 Final energy is   -1510.30894546353
 **  OPTIMIZATION CONVERGED  **

                    Orbital Energies (a.u.)
 --------------------------------------------------------------

 Alpha MOs
 -- Occupied --
-18.946 -18.934 -18.930 -18.922 -18.895 -18.888 -18.875 -18.870
-18.867 -18.862 -10.112 -10.103 -10.096 -10.088 -10.078 -10.074
-10.065 -10.061 -10.051 -10.051 -10.043 -10.042 -10.040 -10.039
-10.023 -10.020 -10.010 -10.009 -10.002  -9.998  -1.028  -1.010
 -1.006  -0.996  -0.976  -0.951  -0.949  -0.934  -0.934  -0.924
 -0.767  -0.746  -0.727  -0.718  -0.705  -0.698  -0.685  -0.662
 -0.651  -0.620  -0.593  -0.574  -0.548  -0.542  -0.529  -0.520
 -0.514  -0.496  -0.488  -0.470  -0.466  -0.457  -0.447  -0.443
 -0.432  -0.427  -0.418  -0.413  -0.412  -0.407  -0.405  -0.401
 -0.392  -0.383  -0.376  -0.365  -0.358  -0.356  -0.351  -0.344
 -0.339  -0.338  -0.336  -0.331  -0.327  -0.316  -0.313  -0.310
 -0.308  -0.306  -0.297  -0.290  -0.286  -0.282  -0.276  -0.269
 -0.261  -0.258  -0.252  -0.240  -0.234  -0.233  -0.214  -0.193
 -0.175  -0.171  -0.166  -0.163  -0.155  -0.152  -0.150  -0.141
 -0.125

          Ground-State Mulliken Net Atomic Charges

     Atom                 Charge (a.u.)
  ----------------------------------------
      1 O                    -0.225838
      2 C                     0.223303
      3 C                    -0.080839
      4 C                    -0.081212
      5 C                     0.218715
      6 O                    -0.167320
      7 C                    -0.053502
      8 C                    -0.053102
      9 O                    -0.179579
     10 C                     0.217164
     11 C                    -0.092665
     12 C                    -0.094052
     13 C                     0.217270
     14 O                    -0.218772
     15 O                    -0.169127
     16 O                    -0.176366
     17 O                    -0.211051
     18 C                    -0.137736
     19 C                     0.023433
     20 C                    -0.146086
     21 C                    -0.143731
     22 C                     0.024631
     23 O                    -0.192280
     24 H                     0.113303
     25 H                     0.111105
     26 H                     0.084021
     27 H                     0.071316
     28 H                     0.084980
     29 H                     0.072294
     30 H                     0.074928
     31 H                     0.078450
     32 O                    -0.215652
     33 C                    -0.128226
     34 C                     0.027634
     35 C                    -0.144869
     36 C                    -0.143081
     37 C                     0.013435
     38 O                    -0.193040
     39 H                     0.086226
     40 H                     0.087169
     41 H                     0.095778
     42 H                     0.084922
     43 H                     0.078226
     44 H                     0.073436
     45 H                     0.078809
     46 H                     0.072848
     47 H                     0.114773
     48 H                     0.088521
     49 H                     0.089086
     50 H                     0.078867
     51 H                     0.082004
     52 H                     0.102406
     53 H                     0.087428
     54 H                     0.102623
     55 H                     0.098150
     56 H                     0.090873
  ----------------------------------------
  Sum of atomic charges =    -0.000000

                    Cartesian Multipole Moments
 -----------------------------------------------------------------
    Charge (ESU x 10^10)
                 0.0000
    Dipole Moment (Debye)
         X      -4.2113      Y      -2.1203      Z      -1.4339
       Tot       4.9281
    Quadrupole Moments (Debye-Ang)
        XX    -167.6902     XY      -6.0467     YY    -156.7299
        XZ      -0.8731     YZ      -2.3026     ZZ    -147.4174

 Total job time:  236.29s(wall), 11274.85s(cpu)
        *  Thank you very much for using Q-Chem.  Have a nice day.  *
