 Q-Chem 5.0, Q-Chem, Inc., Pleasanton, CA (2017)
 Q-Chem 5.0.1 for Intel X86 EM64T Linux

User input:
--------------------------------------------------------------
$molecule
0  1
O -3.94934 -3.66094 2.70899
C -3.26408 -4.56952 2.26188
C -3.36658 -6.02376 2.66595
C -2.05108 -6.77243 2.93578
C -0.78964 -5.9377 2.94472
O 0.30617 -6.75292 2.9509
C 1.48623 -6.10644 3.43955
C 2.47817 -7.14351 3.95595
O 1.90693 -7.85839 5.06298
C 0.5861 -7.63971 5.27917
C 0.04283 -8.42738 6.44754
C -1.32462 -9.08324 6.20624
C -1.7738 -9.16217 4.761
O -2.38331 -10.09501 4.25813
O -2.47395 -4.30952 1.18545
O -0.80367 -8.8838 3.84466
O 0.15889 -6.50355 5.44281
C -0.393 -9.6661 2.76068
C 0.86442 -9.68549 6.84943
C 0.5922 -10.03691 8.31272
C -0.83104 -10.54051 8.22233
C -1.03293 -10.51199 6.70352
O 0.24727 -10.75331 6.17586
H 0.02801 -7.76841 7.35149
H -2.13099 -8.58845 6.78829
H 1.96164 -9.59043 6.70735
H 1.25525 -10.89568 8.56557
H 0.76147 -9.22194 9.04901
H -0.86007 -11.58224 8.61212
H -1.59064 -9.91664 8.74163
H -1.82419 -11.23786 6.4146
O -0.75761 -4.75091 3.25424
C -2.28542 -3.05576 0.64255
C -4.33074 -5.84497 3.86634
C -5.10686 -7.02662 4.27439
C -3.96449 -7.84504 4.57285
C -2.73041 -6.81173 4.46603
O -3.37114 -5.62756 4.80866
H -3.88904 -6.51326 1.8129
H -2.01614 -7.70584 2.35242
H -1.83859 -2.37629 1.39978
H -5.141 -5.07991 3.82496
H -5.66154 -6.76391 5.2067
H -5.8031 -7.42607 3.50197
H -4.12522 -8.29483 5.57875
H -3.94816 -8.58647 3.74813
H -2.02096 -6.93014 5.26691
H -3.25305 -2.64042 0.28881
H -1.5921 -3.13351 -0.21979
H 0.4321 -9.1598 2.22182
H -1.22879 -9.83567 2.04864
H -0.0178 -10.64539 3.12566
H 2.74206 -7.8694 3.1573
H 3.40147 -6.62358 4.28852
H 1.36611 -5.23633 4.1269
H 1.97794 -5.63262 2.56211
$end

$opt
CONSTRAINT
tors           1           2           3           4    -134.978
tors           3           4           5           6    -169.018
tors           4           5           6           7    -158.591
tors           5           6           7           8    +156.862
tors           6           7           8           9     -62.540
tors           7           8           9          10     +10.113
tors           8           9          10          11    +179.513
tors           9          10          11          12    -136.831
tors          11          12          13          14    +142.494
ENDCONSTRAINT
$end

$rem
JOBTYPE                   OPT
METHOD                    B3LYP
DFT_D                     d3_op
BASIS                     STO-3G
GEOM_OPT_MAX_CYCLES       100
GEOM_OPT_TOL_GRADIENT     300
GEOM_OPT_TOL_DISPLACEMENT 1200
GEOM_OPT_TOL_ENERGY       100
SYMMETRY                  False
THRESH                    12
SCF_CONVERGENCE           8
MAX_SUB_FILE_NUM          128
MEM_STATIC                400
MEM_TOTAL                 4000
$end
--------------------------------------------------------------

   15   -1509.9102619846      9.65E-09 Convergence criterion met
 Total energy in the final basis set = -1509.91026198
   15   -1509.9868374535      8.99E-09 Convergence criterion met
 Total energy in the final basis set = -1509.98683745
   13   -1510.0739379835      8.70E-09 Convergence criterion met
 Total energy in the final basis set = -1510.07393798
    3   -1510.0739379835      4.81E-10 Convergence criterion met
 Total energy in the final basis set = -1510.07393798
   13   -1510.1402866573      8.44E-09 Convergence criterion met
 Total energy in the final basis set = -1510.14028666
   14   -1510.1867190547      4.18E-09 Convergence criterion met
 Total energy in the final basis set = -1510.18671905
   14   -1510.2168107201      2.56E-09 Convergence criterion met
 Total energy in the final basis set = -1510.21681072
   14   -1510.2345349251      3.48E-09 Convergence criterion met
    9   -1510.2665621490      6.85E-09 Convergence criterion met
 Total energy in the final basis set = -1510.26656215
    9   -1510.2665650189      6.11E-09 Convergence criterion met
 Total energy in the final basis set = -1510.26656502
    9   -1510.2665669248      4.86E-09 Convergence criterion met
 Total energy in the final basis set = -1510.26656692
    9   -1510.2665676951      4.48E-09 Convergence criterion met
 Total energy in the final basis set = -1510.26656770
    9   -1510.2665691178      3.63E-09 Convergence criterion met
 Total energy in the final basis set = -1510.26656912
    9   -1510.2665703909      2.56E-09 Convergence criterion met
 Total energy in the final basis set = -1510.26657039

             Standard Nuclear Orientation (Angstroms)
    I     Atom           X                Y                Z
 ----------------------------------------------------------------
    1      O      -5.4763022095    -0.2056952629     1.2418408327
    2      C      -4.7185142024    -0.0019271443     0.2697562584
    3      C      -3.6312327137    -0.9804382861    -0.3040688770
    4      C      -2.2351325095    -0.3129655815    -0.6343382439
    5      C      -2.1066246272     1.1110154917     0.0120678655
    6      O      -0.9552940955     1.8001260419    -0.5020367495
    7      C      -0.5372898729     2.8761696746     0.4350598365
    8      C       0.9803031499     3.2598753145     0.2536312314
    9      O       2.1157693946     2.3295930313     0.4834599973
   10      C       1.8094308499     0.9549614010     0.6782339518
   11      C       3.1535714667     0.1625582322     0.8886502538
   12      C       3.2828380508    -1.2203782884     0.1294635157
   13      C       2.5901530392    -1.2881544731    -1.2913249695
   14      O       3.0414580753    -1.8908992309    -2.2896741821
   15      O      -4.8914738271     1.0723345667    -0.6718715931
   16      O       1.4177875606    -0.4755073602    -1.3315189985
   17      O       0.6790013337     0.5245983122     0.9961055937
   18      C       0.8618912858    -0.4231228054    -2.7015739879
   19      C       4.5326928405     0.8585722720     0.5081230190
   20      C       5.5967075855     0.3396546206     1.5502331655
   21      C       5.7016413701    -1.1728976506     1.1217793479
   22      C       4.8352800560    -1.1878913337    -0.1988205332
   23      O       4.9628548757     0.1898923581    -0.7423721906
   24      H       3.1563849827    -0.0557944999     1.9739101120
   25      H       2.9644150121    -2.0744488283     0.7547308353
   26      H       4.4728702758     1.9549404797     0.3706883804
   27      H       6.5557201980     0.8639999525     1.4095713544
   28      H       5.2694986577     0.4699797375     2.5941821979
   29      H       6.7412629044    -1.4662171001     0.9076305464
   30      H       5.2935058032    -1.8557556274     1.8845744701
   31      H       5.1337673653    -1.9309038961    -0.9638418583
   32      O      -2.8068031746     1.5497523125     0.9533749130
   33      C      -5.9171608509     2.0127295255    -0.1723085548
   34      C      -3.2148054999    -2.1240608849     0.7073603882
   35      C      -2.6387502341    -3.3245830552    -0.1392345636
   36      C      -1.2746844627    -2.7072692586    -0.6291421649
   37      C      -1.2649415215    -1.3194597083     0.1274761016
   38      O      -2.0089799658    -1.5876582500     1.3788601119
   39      H      -4.0592351179    -1.4174892828    -1.2258326431
   40      H      -2.0299093014    -0.2640255379    -1.7173804881
   41      H      -5.5934500871     2.4962728341     0.7721994745
   42      H      -4.0001782972    -2.3760648487     1.4466638716
   43      H      -2.4741864319    -4.2037756041     0.5041682297
   44      H      -3.3010127903    -3.6132869179    -0.9712446350
   45      H      -0.4148970916    -3.3230324930    -0.3212219030
   46      H      -1.2404369520    -2.5800726614    -1.7226941965
   47      H      -0.2713431377    -0.8739526610     0.3567890764
   48      H      -6.8878679810     1.5061908126     0.0062250125
   49      H      -6.0389517339     2.7816660423    -0.9574308800
   50      H       0.0557589252     0.3327205186    -2.6633292742
   51      H       0.4422603201    -1.4033773193    -3.0063044844
   52      H       1.6309264636    -0.1210724460    -3.4408660902
   53      H       1.1061533486     3.6317154635    -0.7883528687
   54      H       1.1655810433     4.1201302220     0.9337461886
   55      H      -0.7601954519     2.5800026116     1.4815528016
   56      H      -1.1075954735     3.8092689925     0.2194332308
 ----------------------------------------------------------------

    9   -1510.2665713330      2.23E-09 Convergence criterion met
 Total energy in the final basis set = -1510.26657133
 Final energy is   -1510.26657133303
 **  OPTIMIZATION CONVERGED  **

                    Orbital Energies (a.u.)
 --------------------------------------------------------------

 Alpha MOs
 -- Occupied --
-18.944 -18.943 -18.929 -18.914 -18.887 -18.879 -18.878 -18.873
-18.870 -18.857 -10.114 -10.103 -10.096 -10.085 -10.085 -10.079
-10.068 -10.061 -10.060 -10.051 -10.045 -10.043 -10.041 -10.033
-10.028 -10.024 -10.023 -10.022 -10.010 -10.009  -1.022  -1.015
 -1.005  -0.993  -0.972  -0.955  -0.945  -0.939  -0.931  -0.920
 -0.766  -0.752  -0.730  -0.723  -0.711  -0.702  -0.690  -0.667
 -0.649  -0.622  -0.597  -0.580  -0.548  -0.540  -0.534  -0.528
 -0.512  -0.502  -0.484  -0.476  -0.463  -0.450  -0.449  -0.443
 -0.434  -0.431  -0.423  -0.417  -0.413  -0.409  -0.400  -0.398
 -0.396  -0.385  -0.379  -0.374  -0.361  -0.358  -0.349  -0.344
 -0.341  -0.339  -0.333  -0.332  -0.326  -0.318  -0.316  -0.311
 -0.309  -0.304  -0.300  -0.294  -0.289  -0.284  -0.280  -0.273
 -0.259  -0.255  -0.250  -0.243  -0.239  -0.236  -0.219  -0.184
 -0.182  -0.172  -0.161  -0.157  -0.154  -0.149  -0.144  -0.138
 -0.130

          Ground-State Mulliken Net Atomic Charges

     Atom                 Charge (a.u.)
  ----------------------------------------
      1 O                    -0.217896
      2 C                     0.216192
      3 C                    -0.080655
      4 C                    -0.076363
      5 C                     0.221410
      6 O                    -0.173856
      7 C                    -0.043938
      8 C                    -0.047897
      9 O                    -0.170955
     10 C                     0.228982
     11 C                    -0.080438
     12 C                    -0.076270
     13 C                     0.212093
     14 O                    -0.212411
     15 O                    -0.178614
     16 O                    -0.167330
     17 O                    -0.213738
     18 C                    -0.127014
     19 C                     0.021401
     20 C                    -0.141457
     21 C                    -0.146204
     22 C                     0.023286
     23 O                    -0.192928
     24 H                     0.085507
     25 H                     0.087313
     26 H                     0.091694
     27 H                     0.078280
     28 H                     0.073461
     29 H                     0.079321
     30 H                     0.074102
     31 H                     0.091303
     32 O                    -0.209391
     33 C                    -0.128497
     34 C                     0.023099
     35 C                    -0.143290
     36 C                    -0.145877
     37 C                     0.008466
     38 O                    -0.193396
     39 H                     0.080257
     40 H                     0.079543
     41 H                     0.089844
     42 H                     0.088115
     43 H                     0.075314
     44 H                     0.070153
     45 H                     0.073313
     46 H                     0.066826
     47 H                     0.114913
     48 H                     0.086443
     49 H                     0.084796
     50 H                     0.096923
     51 H                     0.087500
     52 H                     0.093243
     53 H                     0.088177
     54 H                     0.090482
     55 H                     0.101543
     56 H                     0.085120
  ----------------------------------------
  Sum of atomic charges =    -0.000000

                    Cartesian Multipole Moments
 -----------------------------------------------------------------
    Charge (ESU x 10^10)
                 0.0000
    Dipole Moment (Debye)
         X       1.8953      Y       1.3482      Z      -0.9241
       Tot       2.5027
    Quadrupole Moments (Debye-Ang)
        XX    -165.0294     XY      -1.4928     YY    -147.9061
        XZ      19.8887     YZ       0.4955     ZZ    -163.0922

 Total job time:  100.19s(wall), 4775.89s(cpu)
        *  Thank you very much for using Q-Chem.  Have a nice day.  *
