 Q-Chem 5.0, Q-Chem, Inc., Pleasanton, CA (2017)
 Q-Chem 5.0.1 for Intel X86 EM64T Linux

User input:
--------------------------------------------------------------
$molecule
0  1
O -6.5594136376 0.09320764 0.9253486738
C -5.6922244988 0.500950592 0.123731543
C -4.8478482665 -0.3684667919 -0.8770519982
C -3.3342983988 0.0511928141 -1.0171019884
C -2.8577305365 0.8803189684 0.2274479045
O -1.4975044702 1.278755202 0.0288126695
C -0.8657976037 1.5923290016 1.3349144566
C 0.6445394763 1.8586788597 1.0547608716
O 1.2740677422 0.5350888862 0.8198819234
C 2.6010615064 0.6929178704 0.3181663703
C 3.2167196244 -0.7309041633 0.097215506
C 4.7227091112 -0.6706243202 -0.3795678451
C 5.2348518337 0.767364194 -0.7656148445
O 6.1031025751 1.4438423512 -0.1753966204
O -5.5168732036 1.8819044708 -0.236296408
O 4.6658296619 1.1043814233 -2.0414527915
O 3.1569271146 1.7999303242 0.1386209141
C 5.0803920765 2.4708367938 -2.425977567
C 3.3845302902 -1.4589595785 1.5018505382
C 3.7865429753 -2.9669388859 1.2555510793
C 5.3072584762 -2.822449142 0.8751896595
C 5.4711056829 -1.2533126119 0.8911038639
O 4.6193662352 -0.8377023882 2.0317188728
H 2.5733339566 -1.3038449716 -0.5946059017
H 4.8660665183 -1.3208889692 -1.2612794693
H 2.5339640741 -1.3014704677 2.1933267019
H 3.6514747533 -3.5574979981 2.1756435629
H 3.1888996981 -3.4253443291 0.4514135296
H 5.9570045047 -3.284529712 1.6354643781
H 5.5457947385 -3.2588945134 -0.1077059905
H 6.5021877639 -0.8712302031 1.0210199218
O -3.4850002383 1.0424451394 1.2986149365
C -6.3266553839 2.7371849846 0.6577733157
C -4.7186881009 -1.8982987757 -0.4763866796
C -4.4820857841 -2.7113861655 -1.8070476355
C -3.0238545655 -2.2470125639 -2.177335256
C -2.6414979571 -1.3781757482 -0.9130220343
O -3.4021622315 -1.9953485395 0.1996683591
H -5.349503683 -0.2772059885 -1.8587544418
H -3.1044138453 0.5800169056 -1.9587974887
H -5.9391942367 2.7105928873 1.6971353219
H -5.5279746616 -2.2647925763 0.1850804823
H -4.5186036474 -3.7942340588 -1.6062595681
H -5.2209831101 -2.4701071566 -2.5878024056
H -2.3364442604 -3.1010360898 -2.282859434
H -2.9925828353 -1.6521837121 -3.1043706287
H -1.5606510421 -1.3367997359 -0.6746525706
H -7.3909491835 2.4250454402 0.6706112377
H -6.2438865316 3.7653811216 0.2598592302
H 4.6573764906 2.6501251568 -3.4316441666
H 6.1845788629 2.5706404106 -2.4633599883
H 4.6814668017 3.2243452005 -1.7160118913
H 0.7659327706 2.5204165848 0.1700715702
H 1.1111298765 2.3602204283 1.9318073427
H -0.9828870247 0.7438008805 2.0436830129
H -1.3284837923 2.4940455426 1.7949646754
$end

$rem
JOBTYPE                   OPT
METHOD                    B3LYP
DFT_D                     d3_op
BASIS                     STO-3G
GEOM_OPT_MAX_CYCLES       100
GEOM_OPT_TOL_GRADIENT     300
GEOM_OPT_TOL_DISPLACEMENT 1200
GEOM_OPT_TOL_ENERGY       100
SYMMETRY                  False
THRESH                    12
SCF_CONVERGENCE           8
MAX_SUB_FILE_NUM          128
MEM_STATIC                400
MEM_TOTAL                 4000
$end
--------------------------------------------------------------

   16   -1510.2807766359      4.36E-09 Convergence criterion met
 Total energy in the final basis set = -1510.28077664
   13   -1510.2834476993      8.53E-09 Convergence criterion met
 Total energy in the final basis set = -1510.28344770
   13   -1510.2844815978      3.56E-09 Convergence criterion met
 Total energy in the final basis set = -1510.28448160
   13   -1510.2854339542      6.67E-09 Convergence criterion met
 Total energy in the final basis set = -1510.28543395
   13   -1510.2859620809      4.84E-09 Convergence criterion met
 Total energy in the final basis set = -1510.28596208
   13   -1510.2863089386      3.01E-09 Convergence criterion met
 Total energy in the final basis set = -1510.28630894
   13   -1510.2864147087      4.05E-09 Convergence criterion met
 Total energy in the final basis set = -1510.28641471
   13   -1510.2862124323      6.52E-09 Convergence criterion met
   12   -1510.3061829033      5.05E-09 Convergence criterion met
 Total energy in the final basis set = -1510.30618290
   12   -1510.3061953710      4.08E-09 Convergence criterion met
 Total energy in the final basis set = -1510.30619537
   11   -1510.3062053336      8.16E-09 Convergence criterion met
 Total energy in the final basis set = -1510.30620533
   11   -1510.3062043320      5.72E-09 Convergence criterion met
 Total energy in the final basis set = -1510.30620433
   10   -1510.3062066743      7.76E-09 Convergence criterion met
 Total energy in the final basis set = -1510.30620667
    9   -1510.3062065734      6.46E-09 Convergence criterion met
 Total energy in the final basis set = -1510.30620657

             Standard Nuclear Orientation (Angstroms)
    I     Atom           X                Y                Z
 ----------------------------------------------------------------
    1      O      -1.5612588920    -1.0178933460     1.4414093824
    2      C      -2.5837548586    -0.8277193458     0.7392449805
    3      C      -2.6709091625    -0.8606862126    -0.8316300340
    4      C      -1.8854976682     0.3423184426    -1.4986619770
    5      C      -1.6745927307     1.5180666560    -0.4859834800
    6      O      -0.8670368275     2.5447252366    -1.0673215728
    7      C      -0.7833128296     3.7040641721    -0.1401563479
    8      C       0.4317124315     3.5465896936     0.8540902327
    9      O       0.4550998725     2.1587514311     1.3681784907
   10      C       1.4272314369     1.3966672210     0.6365614568
   11      C       1.2525608912    -0.1118374122     0.9621991879
   12      C       2.1195635460    -1.0394300943     0.0183316639
   13      C       3.0320931473    -0.2609082031    -0.9948068135
   14      O       4.2665327654    -0.0874532835    -0.9372882035
   15      O      -3.9011770016    -0.6826057804     1.2716515772
   16      O       2.2339013345     0.1121386419    -2.1432203886
   17      O       2.2666948469     1.9145227686    -0.1372836504
   18      C       3.0371647279     0.9223252964    -3.0806972960
   19      C       1.8292369112    -0.5108876504     2.3903887875
   20      C       1.2173446263    -1.9195782075     2.7560540781
   21      C       2.0534351878    -2.8634557214     1.8145684784
   22      C       2.9901530938    -1.8200755104     1.0851406250
   23      O       3.2559899417    -0.7988662395     2.1271579206
   24      H       0.1722971217    -0.3825383555     0.9093146042
   25      H       1.4315078212    -1.6972753994    -0.5484436584
   26      H       1.7206231452     0.2702666809     3.1676472097
   27      H       1.3856607170    -2.1533870015     3.8193054718
   28      H       0.1364518773    -1.9504223860     2.5401098433
   29      H       2.6526452036    -3.5864187456     2.3909215012
   30      H       1.4213706893    -3.4139912246     1.0997775161
   31      H       3.9438631303    -2.2219200555     0.6916536649
   32      O      -2.2200875262     1.6042479913     0.6396822495
   33      C      -3.8372073114    -0.6064040280     2.7494996746
   34      C      -1.8268836224    -2.0890866580    -1.3672095703
   35      C      -1.9955164712    -2.2118114291    -2.9334302587
   36      C      -1.0384050471    -1.0672167130    -3.4384120676
   37      C      -0.6003192136    -0.4096039225    -2.0727122892
   38      O      -0.4456406219    -1.5928979017    -1.1948672764
   39      H      -3.7320412015    -0.8875898730    -1.1346747972
   40      H      -2.4681012441     0.7592717945    -2.3413019770
   41      H      -3.2594432590     0.2817896744     3.0771631515
   42      H      -1.9769416515    -3.0283646992    -0.8001869861
   43      H      -1.6661919757    -3.2033621717    -3.2823277353
   44      H      -3.0411808815    -2.0590144598    -3.2459342893
   45      H      -0.1574254948    -1.4815464611    -3.9546206364
   46      H      -1.5402244006    -0.3551219895    -4.1124803933
   47      H       0.3700487220     0.1416820023    -2.0971259577
   48      H      -3.3712005141    -1.5136247744     3.1855013543
   49      H      -4.8830185918    -0.5208107688     3.0971709306
   50      H       2.4063440917     1.0795418733    -3.9751388317
   51      H       3.9731972799     0.4023568676    -3.3687844759
   52      H       3.2999993567     1.9033358944    -2.6339876516
   53      H       1.3899378075     3.7477010735     0.3288290654
   54      H       0.3077781157     4.2325416876     1.7162520459
   55      H      -1.7289055681     3.7882640802     0.4350028801
   56      H      -0.6410726839     4.6011454745    -0.7759228514
 ----------------------------------------------------------------

    9   -1510.3062067608      2.39E-09 Convergence criterion met
 Total energy in the final basis set = -1510.30620676
 Final energy is   -1510.30620676081
 **  OPTIMIZATION CONVERGED  **

                    Orbital Energies (a.u.)
 --------------------------------------------------------------

 Alpha MOs
 -- Occupied --
-18.947 -18.935 -18.932 -18.916 -18.891 -18.888 -18.877 -18.870
-18.868 -18.855 -10.110 -10.102 -10.095 -10.083 -10.078 -10.070
-10.064 -10.062 -10.052 -10.049 -10.042 -10.042 -10.040 -10.039
-10.022 -10.018 -10.010 -10.009 -10.002  -9.997  -1.027  -1.011
 -1.007  -0.991  -0.974  -0.952  -0.948  -0.935  -0.933  -0.918
 -0.766  -0.745  -0.726  -0.718  -0.703  -0.700  -0.684  -0.662
 -0.649  -0.618  -0.593  -0.570  -0.547  -0.540  -0.529  -0.521
 -0.512  -0.498  -0.487  -0.474  -0.461  -0.457  -0.448  -0.438
 -0.431  -0.423  -0.418  -0.414  -0.409  -0.407  -0.401  -0.399
 -0.393  -0.382  -0.370  -0.365  -0.358  -0.355  -0.354  -0.344
 -0.341  -0.337  -0.329  -0.325  -0.322  -0.318  -0.316  -0.309
 -0.305  -0.303  -0.297  -0.288  -0.285  -0.281  -0.277  -0.264
 -0.262  -0.255  -0.251  -0.242  -0.235  -0.233  -0.214  -0.197
 -0.176  -0.170  -0.164  -0.160  -0.156  -0.150  -0.146  -0.134
 -0.127

          Ground-State Mulliken Net Atomic Charges

     Atom                 Charge (a.u.)
  ----------------------------------------
      1 O                    -0.223902
      2 C                     0.222169
      3 C                    -0.079797
      4 C                    -0.081500
      5 C                     0.212643
      6 O                    -0.168091
      7 C                    -0.052037
      8 C                    -0.056101
      9 O                    -0.171204
     10 C                     0.210676
     11 C                    -0.092503
     12 C                    -0.091313
     13 C                     0.217569
     14 O                    -0.215670
     15 O                    -0.166911
     16 O                    -0.180709
     17 O                    -0.212656
     18 C                    -0.127668
     19 C                     0.025714
     20 C                    -0.147762
     21 C                    -0.143884
     22 C                     0.024111
     23 O                    -0.193137
     24 H                     0.113720
     25 H                     0.103915
     26 H                     0.079668
     27 H                     0.070560
     28 H                     0.088876
     29 H                     0.072409
     30 H                     0.072951
     31 H                     0.083142
     32 O                    -0.206718
     33 C                    -0.127657
     34 C                     0.026380
     35 C                    -0.145392
     36 C                    -0.142891
     37 C                     0.010766
     38 O                    -0.193821
     39 H                     0.086374
     40 H                     0.086136
     41 H                     0.094997
     42 H                     0.082348
     43 H                     0.077829
     44 H                     0.073202
     45 H                     0.078675
     46 H                     0.071832
     47 H                     0.115165
     48 H                     0.088191
     49 H                     0.089359
     50 H                     0.083505
     51 H                     0.088654
     52 H                     0.091736
     53 H                     0.101952
     54 H                     0.089168
     55 H                     0.096069
     56 H                     0.090861
  ----------------------------------------
  Sum of atomic charges =    -0.000000

                    Cartesian Multipole Moments
 -----------------------------------------------------------------
    Charge (ESU x 10^10)
                -0.0000
    Dipole Moment (Debye)
         X      -4.4310      Y       0.6807      Z      -1.8073
       Tot       4.8336
    Quadrupole Moments (Debye-Ang)
        XX    -171.9345     XY       0.5309     YY    -145.8598
        XZ      -2.7612     YZ       0.5083     ZZ    -151.4402

 Total job time:  166.23s(wall), 7917.11s(cpu)
        *  Thank you very much for using Q-Chem.  Have a nice day.  *
