 Q-Chem 5.0, Q-Chem, Inc., Pleasanton, CA (2017)
 Q-Chem 5.0.1 for Intel X86 EM64T Linux

User input:
--------------------------------------------------------------
$molecule
0  1
O -3.94934 -3.66094 2.70899
C -3.26408 -4.56952 2.26188
C -3.36658 -6.02376 2.66595
C -2.05117 -6.80485 2.81908
C -0.77395 -5.99992 2.72477
O 0.30606 -6.82928 2.83047
C 1.49969 -6.15065 3.23541
C 2.61896 -7.15714 3.48107
O 2.40189 -7.83575 4.72817
C 3.20143 -8.90722 4.95585
C 2.92995 -9.5722 6.28429
C 3.86436 -10.74213 6.62549
C 5.12445 -10.8467 5.79007
O 6.26408 -10.68884 6.20346
O -2.6146 -4.34457 1.08651
O 4.97241 -11.4497 4.57755
O 4.03463 -9.24067 4.12827
C 6.01048 -11.7599 3.72301
C 3.16319 -8.6491 7.49725
C 2.33288 -9.14561 8.67863
C 3.07119 -10.42268 9.02318
C 4.25968 -10.32041 8.05814
O 4.47251 -8.93715 7.91767
H 1.86207 -9.88788 6.26484
H 3.36251 -11.73473 6.60969
H 2.93991 -7.57913 7.29388
H 2.4816 -8.41415 9.50541
H 1.24442 -9.26395 8.4884
H 3.40767 -10.35737 10.08169
H 2.49926 -11.36177 8.85998
H 5.1185 -10.90832 8.45094
O -0.67996 -4.77857 2.71524
C -2.52323 -3.11582 0.46586
C -3.95584 -6.21031 4.07963
C -4.54119 -7.61545 4.22276
C -3.27593 -8.44392 4.29645
C -2.2165 -7.33971 4.25228
O -2.82713 -6.26087 4.91854
H -4.03334 -6.50149 1.9132
H -1.97757 -7.60891 2.05247
H -2.00952 -2.38954 1.13141
H -4.72782 -5.45467 4.34193
H -5.0533 -7.6668 5.21031
H -5.25529 -7.90615 3.42248
H -3.24824 -8.95616 5.28411
H -3.14468 -9.18713 3.48042
H -1.26212 -7.70643 4.69034
H -3.53622 -2.73923 0.20851
H -1.93454 -3.22333 -0.46811
H 5.59947 -12.23748 2.8101
H 6.71165 -12.46895 4.21271
H 6.5534 -10.83581 3.43035
H 2.65019 -7.85545 2.61339
H 3.58753 -6.61352 3.54936
H 1.35068 -5.54684 4.16013
H 1.81564 -5.47811 2.40601
$end

$opt
CONSTRAINT
tors           1           2           3           4    -140.054
tors           3           4           5           6    -177.829
tors           4           5           6           7    -158.591
tors           5           6           7           8    +173.748
tors           6           7           8           9     -75.443
tors           7           8           9          10    +169.495
tors           8           9          10          11    +179.695
tors           9          10          11          12    -176.634
tors          11          12          13          14    +113.397
ENDCONSTRAINT
$end

$rem
JOBTYPE                   OPT
METHOD                    B3LYP
DFT_D                     d3_op
BASIS                     STO-3G
GEOM_OPT_MAX_CYCLES       100
GEOM_OPT_TOL_GRADIENT     300
GEOM_OPT_TOL_DISPLACEMENT 1200
GEOM_OPT_TOL_ENERGY       100
SYMMETRY                  False
THRESH                    12
SCF_CONVERGENCE           8
MAX_SUB_FILE_NUM          128
MEM_STATIC                400
MEM_TOTAL                 4000
$end
--------------------------------------------------------------

   15   -1510.1496179217      6.32E-09 Convergence criterion met
 Total energy in the final basis set = -1510.14961792
   14   -1510.2189351128      6.64E-09 Convergence criterion met
 Total energy in the final basis set = -1510.21893511
   14   -1510.2546873706      6.91E-09 Convergence criterion met
 Total energy in the final basis set = -1510.25468737
   14   -1510.2687938139      3.58E-09 Convergence criterion met
 Total energy in the final basis set = -1510.26879381
   13   -1510.2742598642      8.03E-09 Convergence criterion met
 Total energy in the final basis set = -1510.27425986
   13   -1510.2763623255      2.75E-09 Convergence criterion met
 Total energy in the final basis set = -1510.27636233
   13   -1510.2779607830      2.97E-09 Convergence criterion met
 Total energy in the final basis set = -1510.27796078
   13   -1510.2788108351      3.50E-09 Convergence criterion met
   11   -1510.2806417396      4.32E-09 Convergence criterion met
 Total energy in the final basis set = -1510.28064174
   10   -1510.2806987435      6.84E-09 Convergence criterion met
 Total energy in the final basis set = -1510.28069874
   10   -1510.2807275993      4.71E-09 Convergence criterion met
 Total energy in the final basis set = -1510.28072760
   10   -1510.2807403599      6.81E-09 Convergence criterion met
 Total energy in the final basis set = -1510.28074036
    9   -1510.2807442754      8.82E-09 Convergence criterion met
 Total energy in the final basis set = -1510.28074428
    9   -1510.2807457313      4.11E-09 Convergence criterion met
 Total energy in the final basis set = -1510.28074573

             Standard Nuclear Orientation (Angstroms)
    I     Atom           X                Y                Z
 ----------------------------------------------------------------
    1      O      -6.5594136376     0.0932076400     0.9253486738
    2      C      -5.6922244988     0.5009505920     0.1237315430
    3      C      -4.8478482665    -0.3684667919    -0.8770519982
    4      C      -3.3342983988     0.0511928141    -1.0171019884
    5      C      -2.8577305365     0.8803189684     0.2274479045
    6      O      -1.4975044702     1.2787552020     0.0288126695
    7      C      -0.8657976037     1.5923290016     1.3349144566
    8      C       0.6445394763     1.8586788597     1.0547608716
    9      O       1.2740677422     0.5350888862     0.8198819234
   10      C       2.6010615064     0.6929178704     0.3181663703
   11      C       3.2167196244    -0.7309041633     0.0972155060
   12      C       4.7227091112    -0.6706243202    -0.3795678451
   13      C       5.2348518337     0.7673641940    -0.7656148445
   14      O       6.1031025751     1.4438423512    -0.1753966204
   15      O      -5.5168732036     1.8819044708    -0.2362964080
   16      O       4.6658296619     1.1043814233    -2.0414527915
   17      O       3.1569271146     1.7999303242     0.1386209141
   18      C       5.0803920765     2.4708367938    -2.4259775670
   19      C       3.3845302902    -1.4589595785     1.5018505382
   20      C       3.7865429753    -2.9669388859     1.2555510793
   21      C       5.3072584762    -2.8224491420     0.8751896595
   22      C       5.4711056829    -1.2533126119     0.8911038639
   23      O       4.6193662352    -0.8377023882     2.0317188728
   24      H       2.5733339566    -1.3038449716    -0.5946059017
   25      H       4.8660665183    -1.3208889692    -1.2612794693
   26      H       2.5339640741    -1.3014704677     2.1933267019
   27      H       3.6514747533    -3.5574979981     2.1756435629
   28      H       3.1888996981    -3.4253443291     0.4514135296
   29      H       5.9570045047    -3.2845297120     1.6354643781
   30      H       5.5457947385    -3.2588945134    -0.1077059905
   31      H       6.5021877639    -0.8712302031     1.0210199218
   32      O      -3.4850002383     1.0424451394     1.2986149365
   33      C      -6.3266553839     2.7371849846     0.6577733157
   34      C      -4.7186881009    -1.8982987757    -0.4763866796
   35      C      -4.4820857841    -2.7113861655    -1.8070476355
   36      C      -3.0238545655    -2.2470125639    -2.1773352560
   37      C      -2.6414979571    -1.3781757482    -0.9130220343
   38      O      -3.4021622315    -1.9953485395     0.1996683591
   39      H      -5.3495036830    -0.2772059885    -1.8587544418
   40      H      -3.1044138453     0.5800169056    -1.9587974887
   41      H      -5.9391942367     2.7105928873     1.6971353219
   42      H      -5.5279746616    -2.2647925763     0.1850804823
   43      H      -4.5186036474    -3.7942340588    -1.6062595681
   44      H      -5.2209831101    -2.4701071566    -2.5878024056
   45      H      -2.3364442604    -3.1010360898    -2.2828594340
   46      H      -2.9925828353    -1.6521837121    -3.1043706287
   47      H      -1.5606510421    -1.3367997359    -0.6746525706
   48      H      -7.3909491835     2.4250454402     0.6706112377
   49      H      -6.2438865316     3.7653811216     0.2598592302
   50      H       4.6573764906     2.6501251568    -3.4316441666
   51      H       6.1845788629     2.5706404106    -2.4633599883
   52      H       4.6814668017     3.2243452005    -1.7160118913
   53      H       0.7659327706     2.5204165848     0.1700715702
   54      H       1.1111298765     2.3602204283     1.9318073427
   55      H      -0.9828870247     0.7438008805     2.0436830129
   56      H      -1.3284837923     2.4940455426     1.7949646754
 ----------------------------------------------------------------

    9   -1510.2807465227      3.23E-09 Convergence criterion met
 Total energy in the final basis set = -1510.28074652
 Final energy is   -1510.28074652274
 **  OPTIMIZATION CONVERGED  **

                    Orbital Energies (a.u.)
 --------------------------------------------------------------

 Alpha MOs
 -- Occupied --
-18.944 -18.939 -18.921 -18.918 -18.888 -18.887 -18.886 -18.885
-18.865 -18.860 -10.108 -10.106 -10.093 -10.089 -10.085 -10.084
-10.062 -10.061 -10.058 -10.056 -10.056 -10.053 -10.041 -10.041
-10.034 -10.032 -10.023 -10.021 -10.021 -10.019  -1.024  -1.018
 -1.000  -0.996  -0.971  -0.970  -0.949  -0.941  -0.926  -0.923
 -0.765  -0.763  -0.734  -0.723  -0.717  -0.705  -0.699  -0.656
 -0.653  -0.618  -0.598  -0.579  -0.546  -0.545  -0.539  -0.537
 -0.515  -0.514  -0.486  -0.483  -0.458  -0.457  -0.455  -0.454
 -0.433  -0.431  -0.421  -0.417  -0.408  -0.406  -0.403  -0.401
 -0.400  -0.386  -0.374  -0.367  -0.361  -0.357  -0.353  -0.347
 -0.344  -0.341  -0.335  -0.333  -0.332  -0.326  -0.324  -0.313
 -0.312  -0.308  -0.305  -0.301  -0.298  -0.281  -0.276  -0.273
 -0.271  -0.260  -0.259  -0.247  -0.243  -0.236  -0.234  -0.188
 -0.184  -0.167  -0.164  -0.161  -0.159  -0.147  -0.145  -0.144
 -0.140

          Ground-State Mulliken Net Atomic Charges

     Atom                 Charge (a.u.)
  ----------------------------------------
      1 O                    -0.217156
      2 C                     0.216529
      3 C                    -0.080657
      4 C                    -0.075697
      5 C                     0.217928
      6 O                    -0.174212
      7 C                    -0.044747
      8 C                    -0.045053
      9 O                    -0.172403
     10 C                     0.216535
     11 C                    -0.077140
     12 C                    -0.081858
     13 C                     0.216050
     14 O                    -0.217618
     15 O                    -0.177269
     16 O                    -0.177283
     17 O                    -0.205707
     18 C                    -0.128384
     19 C                     0.024421
     20 C                    -0.144293
     21 C                    -0.143427
     22 C                     0.024075
     23 O                    -0.190652
     24 H                     0.086727
     25 H                     0.083274
     26 H                     0.085537
     27 H                     0.078519
     28 H                     0.073286
     29 H                     0.078174
     30 H                     0.073245
     31 H                     0.090333
     32 O                    -0.205380
     33 C                    -0.128673
     34 C                     0.023582
     35 C                    -0.142237
     36 C                    -0.144823
     37 C                     0.023420
     38 O                    -0.192229
     39 H                     0.083286
     40 H                     0.087832
     41 H                     0.089558
     42 H                     0.091763
     43 H                     0.078144
     44 H                     0.073688
     45 H                     0.077836
     46 H                     0.073950
     47 H                     0.084821
     48 H                     0.088492
     49 H                     0.086422
     50 H                     0.085256
     51 H                     0.086578
     52 H                     0.091072
     53 H                     0.097936
     54 H                     0.091385
     55 H                     0.095606
     56 H                     0.091636
  ----------------------------------------
  Sum of atomic charges =     0.000000

                    Cartesian Multipole Moments
 -----------------------------------------------------------------
    Charge (ESU x 10^10)
                 0.0000
    Dipole Moment (Debye)
         X      -0.6424      Y      -0.6895      Z      -2.8605
       Tot       3.0118
    Quadrupole Moments (Debye-Ang)
        XX    -178.1421     XY     -13.4341     YY    -151.1246
        XZ       3.1653     YZ       2.9919     ZZ    -158.3907

 Total job time:  53.42s(wall), 2540.57s(cpu)
        *  Thank you very much for using Q-Chem.  Have a nice day.  *
