 Q-Chem 5.0, Q-Chem, Inc., Pleasanton, CA (2017)
 Q-Chem 5.0.1 for Intel X86 EM64T Linux

User input:
--------------------------------------------------------------
$molecule
0  1
O -5.4209022279 -0.1477603045 1.0142615773
C -4.7920595099 0.1864650887 -0.0108954184
C -3.8236165141 -0.696677801 -0.8762793069
C -2.2982168535 -0.2962995071 -0.6762136039
C -2.1113391307 0.9583849901 0.2377807552
O -1.2773074497 1.9036908238 -0.4484361779
C -0.8294139661 2.9638266609 0.4858318153
C 0.7100055775 2.8129744854 0.7994198542
O 1.1283451887 1.3928949681 0.8053883106
C 1.7811220603 1.0658649935 -0.4320693407
C 2.231228368 -0.4398804647 -0.4084542293
C 3.7906587796 -0.7434224569 -0.5469984742
C 4.8312452785 0.4320803775 -0.3870588921
O 5.946046588 0.3265677965 0.1717241859
O -4.8084381529 1.5039508285 -0.5768351752
O 4.3929624564 1.6130084425 -1.0546334029
O 1.8634036298 1.8571906629 -1.3956362547
C 5.4149927681 2.6780655481 -0.9271121595
C 1.9003369368 -1.2171924366 0.940015852
C 1.786718526 -2.7550883208 0.5977309907
C 3.2973938385 -3.1187448556 0.3522032149
C 3.9999518872 -1.7418184131 0.6670040351
O 3.1534637365 -1.1378898411 1.7225564266
H 1.7096656365 -0.9172382551 -1.2595674896
H 3.995079778 -1.2291599757 -1.5199957482
H 1.0602376603 -0.7833219297 1.5143743011
H 1.370500072 -3.3086172747 1.4543982286
H 1.1573098941 -2.9430975276 -0.2854607752
H 3.6456667751 -3.8991840771 1.0471607317
H 3.4907179026 -3.4539066944 -0.6794762216
H 5.0546437795 -1.8001840626 1.0003050313
O -2.570152572 1.134015103 1.3889199402
C -5.5979828681 2.409380694 0.2884286488
C -3.8190994734 -2.1855229589 -0.341038129
C -3.0800438763 -3.1043929755 -1.3909446309
C -1.5773710477 -2.7127335878 -1.1340983458
C -1.7367512784 -1.6238952684 -0.0006867605
O -2.8743034658 -2.1232573799 0.7995306666
H -4.1163001559 -0.6244316543 -1.9392555147
H -1.8036466516 -0.0937632727 -1.6421471124
H -5.1672864402 2.4631814203 1.3094831387
H -4.8087819676 -2.5448417008 0.0012089916
H -3.2628742005 -4.1679693839 -1.1705495215
H -3.4030186029 -2.8970139228 -2.4238313448
H -0.9990087229 -3.5720715714 -0.7593374948
H -1.0783092607 -2.3138734745 -2.031738417
H -0.849584838 -1.4734391252 0.6416141125
H -6.6552103401 2.0831567345 0.367387098
H -5.5527586861 3.4058223746 -0.1881245893
H 5.008311214 3.550546522 -1.4706892313
H 6.3809984653 2.3733294549 -1.3786726373
H 5.5917157655 2.9488598391 0.1337960325
H 1.2999744425 3.351882552 0.0282627745
H 0.9277318999 3.2237381179 1.8063797922
H -1.4335452916 2.8717382094 1.4147621414
H -1.0197506974 3.9474218494 0.0095199576
$end

$rem
JOBTYPE                   OPT
METHOD                    B3LYP
DFT_D                     d3_op
BASIS                     STO-3G
GEOM_OPT_MAX_CYCLES       100
GEOM_OPT_TOL_GRADIENT     300
GEOM_OPT_TOL_DISPLACEMENT 1200
GEOM_OPT_TOL_ENERGY       100
SYMMETRY                  False
THRESH                    12
SCF_CONVERGENCE           8
MAX_SUB_FILE_NUM          128
MEM_STATIC                400
MEM_TOTAL                 4000
$end
--------------------------------------------------------------

   16   -1510.2776644573      5.27E-09 Convergence criterion met
 Total energy in the final basis set = -1510.27766446
   15   -1510.2784574628      2.26E-09 Convergence criterion met
 Total energy in the final basis set = -1510.27845746
   14   -1510.2806187601      9.30E-09 Convergence criterion met
 Total energy in the final basis set = -1510.28061876
   13   -1510.2821719569      5.14E-09 Convergence criterion met
 Total energy in the final basis set = -1510.28217196
   13   -1510.2836975115      7.63E-09 Convergence criterion met
 Total energy in the final basis set = -1510.28369751
   13   -1510.2853455156      6.40E-09 Convergence criterion met
 Total energy in the final basis set = -1510.28534552
   13   -1510.2870802652      9.69E-09 Convergence criterion met
 Total energy in the final basis set = -1510.28708027
   13   -1510.2887840355      7.85E-09 Convergence criterion met
   12   -1510.3047880323      9.82E-09 Convergence criterion met
 Total energy in the final basis set = -1510.30478803
   12   -1510.3046973685      7.70E-09 Convergence criterion met
 Total energy in the final basis set = -1510.30469737
   12   -1510.3048045535      5.15E-09 Convergence criterion met
 Total energy in the final basis set = -1510.30480455
   11   -1510.3048150208      3.95E-09 Convergence criterion met
 Total energy in the final basis set = -1510.30481502
   10   -1510.3048129927      8.39E-09 Convergence criterion met
 Total energy in the final basis set = -1510.30481299
    9   -1510.3048135699      6.49E-09 Convergence criterion met
 Total energy in the final basis set = -1510.30481357

             Standard Nuclear Orientation (Angstroms)
    I     Atom           X                Y                Z
 ----------------------------------------------------------------
    1      O      -2.4363867923    -1.2526448155     1.8740720970
    2      C      -3.0792928364    -0.5836993268     1.0371716161
    3      C      -3.1848098551    -0.8411917094    -0.5128457372
    4      C      -2.3543028038     0.1690819080    -1.4087428605
    5      C      -1.5837879053     1.2371895593    -0.5691341502
    6      O      -1.0987524494     2.2634793439    -1.4337065173
    7      C      -0.2638236318     3.2337692909    -0.6800781743
    8      C       1.2695267011     2.9117919479    -0.8384811222
    9      O       1.6380372187     1.6911868512    -0.0854073285
   10      C       1.4991575642     0.5338992599    -0.9227930963
   11      C       1.6721263273    -0.7604585520    -0.0658475528
   12      C       3.1180230740    -0.9540379615     0.5573845140
   13      C       4.0609061006     0.2748202146     0.3102258932
   14      O       4.7277105167     0.9171887272     1.1468918387
   15      O      -3.9713851497     0.4905957123     1.3673232274
   16      O       4.0441432118     0.5628571930    -1.0973860431
   17      O       1.1990371277     0.5942022672    -2.1395783124
   18      C       4.8367294969     1.7791467862    -1.3815445503
   19      C       0.7814893871    -0.7442494764     1.2564703881
   20      C       0.6436116959    -2.2333356327     1.7510668098
   21      C       2.0815711492    -2.4932977038     2.3394578289
   22      C       2.7692162735    -1.0921302569     2.0957524276
   23      O       1.6656955742    -0.1209901162     2.2664127513
   24      H       1.3979618158    -1.6090632329    -0.7164826513
   25      H       3.6043384850    -1.8604405618     0.1515275192
   26      H      -0.1680016213    -0.1745700531     1.1669773605
   27      H      -0.1399038893    -2.3011816889     2.5226465643
   28      H       0.3829558114    -2.9148967974     0.9260464065
   29      H       2.0450590643    -2.7209771111     3.4166151591
   30      H       2.6119106099    -3.3101840991     1.8237854653
   31      H       3.6141279736    -0.8425664796     2.7669252447
   32      O      -1.3894588444     1.2161604743     0.6712101477
   33      C      -3.8565601041     0.8066325252     2.8081551460
   34      C      -2.5049600143    -2.2190127854    -0.9031190769
   35      C      -2.9859575388    -2.6244859969    -2.3505025508
   36      C      -2.1577036461    -1.6211799837    -3.2376994075
   37      C      -1.3471082989    -0.8320020664    -2.1382937213
   38      O      -1.0840235124    -1.8522863849    -1.0991629154
   39      H      -4.2534336036    -0.8126295910    -0.7916710056
   40      H      -2.9923877232     0.6935830600    -2.1418766318
   41      H      -2.8362371327     1.1624198375     3.0594507155
   42      H      -2.5971040050    -3.0027892024    -0.1264270266
   43      H      -2.7194354981    -3.6711988396    -2.5672018992
   44      H      -4.0740392434    -2.5041985449    -2.4742688877
   45      H      -1.4689089675    -2.1529333367    -3.9134339901
   46      H      -2.7972874771    -0.9554425726    -3.8386037889
   47      H      -0.3884581619    -0.3593052001    -2.4559275258
   48      H      -4.0888677807    -0.0742315304     3.4409984179
   49      H      -4.5892799725     1.6102608616     3.0067613761
   50      H       4.7735464630     1.9371545715    -2.4739618827
   51      H       5.8981091284     1.6557954625    -1.0843963475
   52      H       4.4234844276     2.6628724527    -0.8537012332
   53      H       1.5139402539     2.7874637126    -1.9150959527
   54      H       1.8594789680     3.7438617973    -0.4030368688
   55      H      -0.5415856381     3.2040860615     0.3952373850
   56      H      -0.4767085335     4.2348469830    -1.1078775458
 ----------------------------------------------------------------

    8   -1510.3048137458      8.13E-09 Convergence criterion met
 Total energy in the final basis set = -1510.30481375
 Final energy is   -1510.30481374584
 **  OPTIMIZATION CONVERGED  **

                    Orbital Energies (a.u.)
 --------------------------------------------------------------

 Alpha MOs
 -- Occupied --
-18.948 -18.934 -18.932 -18.920 -18.891 -18.882 -18.876 -18.873
-18.869 -18.861 -10.111 -10.100 -10.096 -10.091 -10.077 -10.075
-10.064 -10.055 -10.054 -10.046 -10.045 -10.038 -10.033 -10.032
-10.030 -10.025 -10.017 -10.015 -10.005  -9.997  -1.027  -1.014
 -1.005  -0.999  -0.967  -0.953  -0.948  -0.936  -0.935  -0.925
 -0.761  -0.752  -0.725  -0.715  -0.706  -0.698  -0.687  -0.659
 -0.654  -0.618  -0.592  -0.577  -0.542  -0.536  -0.533  -0.520
 -0.511  -0.504  -0.486  -0.472  -0.458  -0.457  -0.450  -0.439
 -0.431  -0.426  -0.417  -0.414  -0.411  -0.406  -0.402  -0.397
 -0.394  -0.381  -0.372  -0.367  -0.362  -0.354  -0.349  -0.346
 -0.343  -0.340  -0.338  -0.328  -0.321  -0.318  -0.315  -0.308
 -0.302  -0.299  -0.292  -0.291  -0.286  -0.282  -0.274  -0.269
 -0.263  -0.257  -0.249  -0.244  -0.244  -0.231  -0.217  -0.195
 -0.176  -0.171  -0.165  -0.163  -0.155  -0.148  -0.143  -0.142
 -0.127

          Ground-State Mulliken Net Atomic Charges

     Atom                 Charge (a.u.)
  ----------------------------------------
      1 O                    -0.218223
      2 C                     0.214648
      3 C                    -0.081812
      4 C                    -0.079681
      5 C                     0.216688
      6 O                    -0.165858
      7 C                    -0.054080
      8 C                    -0.052649
      9 O                    -0.168583
     10 C                     0.216668
     11 C                    -0.080962
     12 C                    -0.078271
     13 C                     0.214406
     14 O                    -0.208109
     15 O                    -0.176287
     16 O                    -0.172778
     17 O                    -0.222277
     18 C                    -0.128408
     19 C                     0.019846
     20 C                    -0.143405
     21 C                    -0.145401
     22 C                     0.024101
     23 O                    -0.190858
     24 H                     0.092762
     25 H                     0.084257
     26 H                     0.100704
     27 H                     0.084942
     28 H                     0.076896
     29 H                     0.075159
     30 H                     0.069231
     31 H                     0.085419
     32 O                    -0.210379
     33 C                    -0.128898
     34 C                     0.024599
     35 C                    -0.144549
     36 C                    -0.144120
     37 C                     0.010957
     38 O                    -0.196942
     39 H                     0.083687
     40 H                     0.087696
     41 H                     0.092946
     42 H                     0.086515
     43 H                     0.076613
     44 H                     0.072389
     45 H                     0.077892
     46 H                     0.072827
     47 H                     0.106208
     48 H                     0.086920
     49 H                     0.086192
     50 H                     0.090482
     51 H                     0.089665
     52 H                     0.087411
     53 H                     0.099317
     54 H                     0.089924
     55 H                     0.104214
     56 H                     0.090351
  ----------------------------------------
  Sum of atomic charges =     0.000000

                    Cartesian Multipole Moments
 -----------------------------------------------------------------
    Charge (ESU x 10^10)
                 0.0000
    Dipole Moment (Debye)
         X      -1.1926      Y       0.9058      Z      -2.2988
       Tot       2.7436
    Quadrupole Moments (Debye-Ang)
        XX    -151.7406     XY       0.4092     YY    -147.4773
        XZ      -4.1479     YZ      -2.2492     ZZ    -163.2849

 Total job time:  111.26s(wall), 5301.01s(cpu)
        *  Thank you very much for using Q-Chem.  Have a nice day.  *
