 Q-Chem 5.0, Q-Chem, Inc., Pleasanton, CA (2017)
 Q-Chem 5.0.1 for Intel X86 EM64T Linux

User input:
--------------------------------------------------------------
$molecule
0  1
O -3.94934 -3.66094 2.70899
C -3.26408 -4.56952 2.26188
C -3.36658 -6.02376 2.66595
C -2.23769 -6.59075 3.5423
C -1.22466 -5.596 4.06415
O 0.03889 -6.02251 3.76928
C 1.05577 -5.29564 4.46704
C 1.69546 -6.17889 5.53324
O 0.71725 -7.08204 6.07205
C 0.76697 -8.34948 5.59218
C -0.27742 -9.25197 6.2049
C 0.28029 -10.45982 6.97192
C 1.75468 -10.39984 7.31729
O 2.25656 -10.80586 8.35547
O -2.26639 -4.27046 1.3896
O 2.60904 -10.2164 6.27655
O 1.41716 -8.69065 4.61063
C 3.98574 -10.24299 6.36929
C -1.09541 -8.62433 7.38989
C -2.42895 -9.35379 7.55617
C -1.97259 -10.6815 8.1001
C -0.49043 -10.3826 8.29679
O -0.42999 -9.00829 8.5658
H -0.99317 -9.53356 5.40029
H 0.12771 -11.40541 6.40701
H -1.27747 -7.53385 7.31213
H -2.99097 -8.81659 8.35432
H -3.06131 -9.44182 6.66423
H -2.48795 -10.86209 9.06956
H -2.1138 -11.54983 7.42001
H -0.07785 -11.05236 9.08313
O -1.52685 -4.60048 4.71329
C -1.98474 -2.99842 0.93791
C -4.59502 -6.26477 3.55947
C -5.01768 -7.72468 3.46267
C -3.90095 -8.37967 4.23619
C -3.10432 -7.14215 4.68952
O -4.09086 -6.15893 4.86372
H -3.50201 -6.59149 1.7177
H -1.70007 -7.4216 3.02952
H -1.7166 -2.34005 1.79176
H -5.46203 -5.61241 3.31429
H -5.9674 -7.83252 4.03538
H -5.16837 -8.10473 2.42921
H -4.38114 -8.89309 5.0924
H -3.27733 -9.09979 3.66367
H -2.50244 -7.36434 5.57292
H -2.8628 -2.57982 0.40108
H -1.12547 -3.04309 0.23783
H 4.42073 -10.05516 5.36634
H 4.32835 -11.23737 6.72691
H 4.33581 -9.45064 7.06499
H 2.52562 -6.72479 5.03108
H 2.1939 -5.58797 6.33089
H 0.67671 -4.41143 5.02365
H 1.81352 -4.88366 3.76722
$end

$opt
CONSTRAINT
tors           1           2           3           4    -107.047
tors           3           4           5           6    -128.138
tors           4           5           6           7    -167.488
tors           5           6           7           8    +109.097
tors           6           7           8           9     -33.298
tors           7           8           9          10    +101.053
tors           8           9          10          11    +179.513
tors           9          10          11          12    -119.200
tors          11          12          13          14    +142.494
ENDCONSTRAINT
$end

$rem
JOBTYPE                   OPT
METHOD                    B3LYP
DFT_D                     d3_op
BASIS                     STO-3G
GEOM_OPT_MAX_CYCLES       100
GEOM_OPT_TOL_GRADIENT     300
GEOM_OPT_TOL_DISPLACEMENT 1200
GEOM_OPT_TOL_ENERGY       100
SYMMETRY                  False
THRESH                    12
SCF_CONVERGENCE           8
MAX_SUB_FILE_NUM          128
MEM_STATIC                400
MEM_TOTAL                 4000
$end
--------------------------------------------------------------

   15   -1510.1397233999      6.05E-09 Convergence criterion met
 Total energy in the final basis set = -1510.13972340
   14   -1510.2108749603      5.37E-09 Convergence criterion met
 Total energy in the final basis set = -1510.21087496
   14   -1510.2448595682      8.50E-09 Convergence criterion met
 Total energy in the final basis set = -1510.24485957
   15   -1510.2652680484      2.06E-09 Convergence criterion met
 Total energy in the final basis set = -1510.26526805
   14   -1510.2721703753      2.67E-09 Convergence criterion met
 Total energy in the final basis set = -1510.27217038
   14   -1510.2754964817      2.35E-09 Convergence criterion met
 Total energy in the final basis set = -1510.27549648
   13   -1510.2764253194      2.76E-09 Convergence criterion met
 Total energy in the final basis set = -1510.27642532
   12   -1510.2768228014      4.73E-09 Convergence criterion met
   11   -1510.2775780537      2.17E-09 Convergence criterion met
 Total energy in the final basis set = -1510.27757805
   11   -1510.2775713243      2.79E-09 Convergence criterion met
 Total energy in the final basis set = -1510.27757132
   11   -1510.2775804620      4.38E-09 Convergence criterion met
 Total energy in the final basis set = -1510.27758046
   11   -1510.2775782199      3.85E-09 Convergence criterion met
 Total energy in the final basis set = -1510.27757822
   11   -1510.2775768816      3.72E-09 Convergence criterion met
 Total energy in the final basis set = -1510.27757688
    9   -1510.2775729272      8.42E-09 Convergence criterion met
 Total energy in the final basis set = -1510.27757293

             Standard Nuclear Orientation (Angstroms)
    I     Atom           X                Y                Z
 ----------------------------------------------------------------
    1      O      -5.4209022279    -0.1477603045     1.0142615773
    2      C      -4.7920595099     0.1864650887    -0.0108954184
    3      C      -3.8236165141    -0.6966778010    -0.8762793069
    4      C      -2.2982168535    -0.2962995071    -0.6762136039
    5      C      -2.1113391307     0.9583849901     0.2377807552
    6      O      -1.2773074497     1.9036908238    -0.4484361779
    7      C      -0.8294139661     2.9638266609     0.4858318153
    8      C       0.7100055775     2.8129744854     0.7994198542
    9      O       1.1283451887     1.3928949681     0.8053883106
   10      C       1.7811220603     1.0658649935    -0.4320693407
   11      C       2.2312283680    -0.4398804647    -0.4084542293
   12      C       3.7906587796    -0.7434224569    -0.5469984742
   13      C       4.8312452785     0.4320803775    -0.3870588921
   14      O       5.9460465880     0.3265677965     0.1717241859
   15      O      -4.8084381529     1.5039508285    -0.5768351752
   16      O       4.3929624564     1.6130084425    -1.0546334029
   17      O       1.8634036298     1.8571906629    -1.3956362547
   18      C       5.4149927681     2.6780655481    -0.9271121595
   19      C       1.9003369368    -1.2171924366     0.9400158520
   20      C       1.7867185260    -2.7550883208     0.5977309907
   21      C       3.2973938385    -3.1187448556     0.3522032149
   22      C       3.9999518872    -1.7418184131     0.6670040351
   23      O       3.1534637365    -1.1378898411     1.7225564266
   24      H       1.7096656365    -0.9172382551    -1.2595674896
   25      H       3.9950797780    -1.2291599757    -1.5199957482
   26      H       1.0602376603    -0.7833219297     1.5143743011
   27      H       1.3705000720    -3.3086172747     1.4543982286
   28      H       1.1573098941    -2.9430975276    -0.2854607752
   29      H       3.6456667751    -3.8991840771     1.0471607317
   30      H       3.4907179026    -3.4539066944    -0.6794762216
   31      H       5.0546437795    -1.8001840626     1.0003050313
   32      O      -2.5701525720     1.1340151030     1.3889199402
   33      C      -5.5979828681     2.4093806940     0.2884286488
   34      C      -3.8190994734    -2.1855229589    -0.3410381290
   35      C      -3.0800438763    -3.1043929755    -1.3909446309
   36      C      -1.5773710477    -2.7127335878    -1.1340983458
   37      C      -1.7367512784    -1.6238952684    -0.0006867605
   38      O      -2.8743034658    -2.1232573799     0.7995306666
   39      H      -4.1163001559    -0.6244316543    -1.9392555147
   40      H      -1.8036466516    -0.0937632727    -1.6421471124
   41      H      -5.1672864402     2.4631814203     1.3094831387
   42      H      -4.8087819676    -2.5448417008     0.0012089916
   43      H      -3.2628742005    -4.1679693839    -1.1705495215
   44      H      -3.4030186029    -2.8970139228    -2.4238313448
   45      H      -0.9990087229    -3.5720715714    -0.7593374948
   46      H      -1.0783092607    -2.3138734745    -2.0317384170
   47      H      -0.8495848380    -1.4734391252     0.6416141125
   48      H      -6.6552103401     2.0831567345     0.3673870980
   49      H      -5.5527586861     3.4058223746    -0.1881245893
   50      H       5.0083112140     3.5505465220    -1.4706892313
   51      H       6.3809984653     2.3733294549    -1.3786726373
   52      H       5.5917157655     2.9488598391     0.1337960325
   53      H       1.2999744425     3.3518825520     0.0282627745
   54      H       0.9277318999     3.2237381179     1.8063797922
   55      H      -1.4335452916     2.8717382094     1.4147621414
   56      H      -1.0197506974     3.9474218494     0.0095199576
 ----------------------------------------------------------------

    9   -1510.2775727720      6.50E-09 Convergence criterion met
 Total energy in the final basis set = -1510.27757277
 Final energy is   -1510.27757277196
 **  OPTIMIZATION CONVERGED  **

                    Orbital Energies (a.u.)
 --------------------------------------------------------------

 Alpha MOs
 -- Occupied --
-18.939 -18.935 -18.934 -18.929 -18.890 -18.886 -18.879 -18.878
-18.874 -18.873 -10.102 -10.101 -10.100 -10.096 -10.070 -10.068
-10.065 -10.063 -10.060 -10.059 -10.058 -10.057 -10.041 -10.040
-10.039 -10.038 -10.024 -10.022 -10.020 -10.019  -1.019  -1.014
 -1.009  -1.005  -0.972  -0.970  -0.942  -0.936  -0.933  -0.932
 -0.765  -0.762  -0.729  -0.723  -0.717  -0.705  -0.697  -0.664
 -0.660  -0.619  -0.602  -0.579  -0.549  -0.544  -0.540  -0.536
 -0.517  -0.505  -0.484  -0.476  -0.468  -0.462  -0.453  -0.444
 -0.435  -0.432  -0.422  -0.417  -0.414  -0.412  -0.409  -0.405
 -0.401  -0.380  -0.375  -0.371  -0.361  -0.358  -0.354  -0.351
 -0.347  -0.339  -0.338  -0.336  -0.329  -0.327  -0.326  -0.313
 -0.310  -0.308  -0.305  -0.296  -0.293  -0.288  -0.282  -0.276
 -0.274  -0.252  -0.251  -0.248  -0.245  -0.236  -0.233  -0.186
 -0.178  -0.174  -0.169  -0.160  -0.155  -0.153  -0.149  -0.146
 -0.143

          Ground-State Mulliken Net Atomic Charges

     Atom                 Charge (a.u.)
  ----------------------------------------
      1 O                    -0.205375
      2 C                     0.212153
      3 C                    -0.078508
      4 C                    -0.079141
      5 C                     0.212680
      6 O                    -0.171149
      7 C                    -0.057558
      8 C                    -0.054649
      9 O                    -0.173507
     10 C                     0.213647
     11 C                    -0.079669
     12 C                    -0.077018
     13 C                     0.208007
     14 O                    -0.215537
     15 O                    -0.174753
     16 O                    -0.163854
     17 O                    -0.204030
     18 C                    -0.127391
     19 C                     0.021764
     20 C                    -0.145423
     21 C                    -0.145103
     22 C                     0.023056
     23 O                    -0.190307
     24 H                     0.082702
     25 H                     0.084509
     26 H                     0.091386
     27 H                     0.079133
     28 H                     0.071789
     29 H                     0.078846
     30 H                     0.072507
     31 H                     0.091906
     32 O                    -0.212057
     33 C                    -0.129273
     34 C                     0.025426
     35 C                    -0.144312
     36 C                    -0.144235
     37 C                     0.024640
     38 O                    -0.184576
     39 H                     0.085121
     40 H                     0.087317
     41 H                     0.093372
     42 H                     0.089638
     43 H                     0.078676
     44 H                     0.073781
     45 H                     0.077302
     46 H                     0.072200
     47 H                     0.083894
     48 H                     0.088014
     49 H                     0.088397
     50 H                     0.092980
     51 H                     0.089729
     52 H                     0.089417
     53 H                     0.098149
     54 H                     0.088886
     55 H                     0.099489
     56 H                     0.086908
  ----------------------------------------
  Sum of atomic charges =     0.000000

                    Cartesian Multipole Moments
 -----------------------------------------------------------------
    Charge (ESU x 10^10)
                -0.0000
    Dipole Moment (Debye)
         X       0.1458      Y       0.4831      Z      -2.9576
       Tot       3.0004
    Quadrupole Moments (Debye-Ang)
        XX    -166.2669     XY      -2.2780     YY    -144.0531
        XZ       3.8660     YZ       9.1781     ZZ    -167.1457

 Total job time:  77.57s(wall), 3698.10s(cpu)
        *  Thank you very much for using Q-Chem.  Have a nice day.  *
