 Q-Chem 5.0, Q-Chem, Inc., Pleasanton, CA (2017)
 Q-Chem 5.0.1 for Intel X86 EM64T Linux

User input:
--------------------------------------------------------------
$molecule
0  1
O -3.94934 -3.66094 2.70899
C -3.26408 -4.56952 2.26188
C -3.36658 -6.02376 2.66595
C -2.57912 -6.46429 3.91082
C -1.91989 -5.36604 4.7154
O -0.89317 -5.88341 5.45269
C -0.47658 -5.02382 6.51891
C -0.1872 -5.84331 7.77223
O -1.3959 -6.02889 8.52554
C -2.29802 -6.88176 7.97972
C -3.5402 -7.04327 8.82326
C -4.41137 -8.2567 8.46698
C -3.75619 -9.30643 7.59204
O -4.03871 -10.49579 7.57974
O -2.40212 -4.29771 1.24725
O -3.24709 -9.0829 6.36072
O -1.89441 -7.5303 7.05726
C -2.38715 -9.97642 5.71045
C -3.24718 -7.34809 10.31159
C -4.44197 -6.92196 11.16236
C -5.4608 -7.967 10.75936
C -4.59217 -8.86524 9.8705
O -3.30081 -8.74845 10.41295
H -4.09411 -6.07972 8.76055
H -5.3705 -7.97516 7.98025
H -2.32217 -6.86945 10.6991
H -4.15666 -7.0959 12.22503
H -4.77092 -5.86733 11.04246
H -5.79105 -8.50583 11.67505
H -6.34209 -7.582 10.20177
H -5.01469 -9.89357 9.84072
O -2.44535 -4.27801 4.92427
C -2.20056 -3.04174 0.71443
C -4.84502 -6.24067 2.99937
C -5.22232 -7.69736 2.90827
C -4.49358 -8.20662 4.10674
C -3.88388 -6.89974 4.68103
O -4.86759 -5.95414 4.36015
H -3.08161 -6.62909 1.77572
H -1.90761 -7.33992 3.77483
H -1.82494 -2.34972 1.49829
H -5.54682 -5.65125 2.36513
H -6.31952 -7.78785 3.07756
H -4.94492 -8.17088 1.94127
H -5.25037 -8.61621 4.81362
H -3.76618 -8.98107 3.81901
H -3.74199 -6.94935 5.76136
H -3.14911 -2.6492 0.28946
H -1.44624 -3.10718 -0.09623
H -1.93519 -9.50353 4.81802
H -2.92689 -10.89873 5.40582
H -1.54224 -10.24361 6.38141
H 0.37572 -6.7842 7.57692
H 0.46448 -5.21311 8.41487
H -1.11616 -4.1482 6.77051
H 0.50576 -4.61697 6.19451
$end

$opt
CONSTRAINT
tors           1           2           3           4     -85.210
tors           3           4           5           6    -157.747
tors           4           5           6           7    -162.644
tors           5           6           7           8    +139.289
tors           6           7           8           9     -86.800
tors           7           8           9          10     +71.769
tors           8           9          10          11    +179.513
tors           9          10          11          12    -164.158
tors          11          12          13          14    +152.327
ENDCONSTRAINT
$end

$rem
JOBTYPE                   OPT
METHOD                    B3LYP
DFT_D                     d3_op
BASIS                     STO-3G
GEOM_OPT_MAX_CYCLES       100
GEOM_OPT_TOL_GRADIENT     300
GEOM_OPT_TOL_DISPLACEMENT 1200
GEOM_OPT_TOL_ENERGY       100
SYMMETRY                  False
THRESH                    12
SCF_CONVERGENCE           8
MAX_SUB_FILE_NUM          128
MEM_STATIC                400
MEM_TOTAL                 4000
$end
--------------------------------------------------------------

   15   -1510.0667569124      6.85E-09 Convergence criterion met
 Total energy in the final basis set = -1510.06675691
   15   -1510.1539879818      2.75E-09 Convergence criterion met
 Total energy in the final basis set = -1510.15398798
   14   -1510.2073295846      7.08E-09 Convergence criterion met
 Total energy in the final basis set = -1510.20732958
   15   -1510.2323778127      1.92E-09 Convergence criterion met
 Total energy in the final basis set = -1510.23237781
   15   -1510.2480169392      1.54E-09 Convergence criterion met
 Total energy in the final basis set = -1510.24801694
   14   -1510.2576396813      2.61E-09 Convergence criterion met
 Total energy in the final basis set = -1510.25763968
   13   -1510.2636544500      6.67E-09 Convergence criterion met
 Total energy in the final basis set = -1510.26365445
   13   -1510.2673579659      5.59E-09 Convergence criterion met
   11   -1510.2714474150      2.12E-09 Convergence criterion met
 Total energy in the final basis set = -1510.27144741
   11   -1510.2714523689      1.70E-09 Convergence criterion met
 Total energy in the final basis set = -1510.27145237
   10   -1510.2714547693      6.30E-09 Convergence criterion met
 Total energy in the final basis set = -1510.27145477
   10   -1510.2714646535      5.63E-09 Convergence criterion met
 Total energy in the final basis set = -1510.27146465
    9   -1510.2714589409      2.83E-09 Convergence criterion met
 Total energy in the final basis set = -1510.27145894
    9   -1510.2714670334      5.20E-09 Convergence criterion met
 Total energy in the final basis set = -1510.27146703

             Standard Nuclear Orientation (Angstroms)
    I     Atom           X                Y                Z
 ----------------------------------------------------------------
    1      O      -4.1777228217     0.0347357999     2.2007421753
    2      C      -4.4595735079    -0.0088249900     0.9850202183
    3      C      -3.7961562329    -0.9057982645    -0.1244815982
    4      C      -2.4829834045    -0.2896418189    -0.7625237258
    5      C      -2.2418197549     1.2085907072    -0.3859089686
    6      O      -1.3868445160     1.7949089125    -1.3775800531
    7      C      -0.7974598832     3.0546709116    -0.8652593082
    8      C       0.7167972125     3.1936213891    -1.2737235113
    9      O       1.6604376760     2.5471900058    -0.3290386677
   10      C       1.6157384427     1.1146276584    -0.3954394204
   11      C       2.6769149437     0.6065874898     0.6518182213
   12      C       3.2269426149    -0.8861085751     0.6599304128
   13      C       3.0782301247    -1.8819937143    -0.5583050764
   14      O       3.8839243963    -2.8148466673    -0.7815635606
   15      O      -5.4890155507     0.7772930141     0.3663048239
   16      O       1.8919929705    -1.6819029938    -1.3178278221
   17      O       0.8218425645     0.4900397055    -1.1261924421
   18      C       1.8418568050    -2.6582208776    -2.4332332929
   19      C       4.0444325867     1.4343070340     0.6108544079
   20      C       4.6226997182     1.4806146782     2.0773746543
   21      C       5.0805394390    -0.0140739607     2.2580192322
   22      C       4.7821346365    -0.6045979752     0.8240430398
   23      O       4.9897209696     0.5415006988    -0.0926345924
   24      H       2.1930241601     0.7805120287     1.6327884614
   25      H       2.8214445000    -1.4175163358     1.5420965111
   26      H       3.9584077724     2.4107687341     0.0970006676
   27      H       5.4789168898     2.1722414095     2.1272523106
   28      H       3.8700095093     1.7938718343     2.8182861317
   29      H       6.1545812571    -0.0860720858     2.4911491603
   30      H       4.5131630056    -0.5392317404     3.0430663982
   31      H       5.4040634184    -1.4689081267     0.5185576381
   32      O      -2.6582623564     1.8267255864     0.6193490830
   33      C      -6.0804597067     1.6968314660     1.3637160423
   34      C      -3.1876115552    -2.1990542292     0.5720922238
   35      C      -2.7952246941    -3.2488225170    -0.5394077773
   36      C      -1.4719264013    -2.6105747242    -1.1016312893
   37      C      -1.3690936767    -1.2953702945    -0.2346359718
   38      O      -1.8803952839    -1.7191190298     1.0858624493
   39      H      -4.5482941629    -1.1431774172    -0.8964841752
   40      H      -2.5290508385    -0.3359876585    -1.8658809817
   41      H      -5.3224917226     2.4066165276     1.7541232943
   42      H      -3.8013767796    -2.5944847442     1.4041134093
   43      H      -2.6103101436    -4.2375602518    -0.0904576092
   44      H      -3.5788986373    -3.3513089547    -1.3072009290
   45      H      -0.6002468257    -3.2553449862    -0.9094045845
   46      H      -1.5222747999    -2.3975091993    -2.1809442865
   47      H      -0.3507915731    -0.8532979480    -0.1943992395
   48      H      -6.5206233708     1.1461837600     2.2201881048
   49      H      -6.8751311497     2.2547830428     0.8349524996
   50      H       0.9502727958    -2.3871968144    -3.0269800136
   51      H       1.7407110591    -3.6987333876    -2.0624022786
   52      H       2.7483760988    -2.5970350716    -3.0684077056
   53      H       0.8541628430     2.7994972238    -2.3047597539
   54      H       0.9918865660     4.2673579952    -1.2529995553
   55      H      -0.9178012006     3.1071844764     0.2386013834
   56      H      -1.3499406928     3.9150141824    -1.3052909658
 ----------------------------------------------------------------

    9   -1510.2714606324      5.05E-09 Convergence criterion met
 Total energy in the final basis set = -1510.27146063
 Final energy is   -1510.27146063239
 **  OPTIMIZATION CONVERGED  **

                    Orbital Energies (a.u.)
 --------------------------------------------------------------

 Alpha MOs
 -- Occupied --
-18.939 -18.936 -18.933 -18.918 -18.889 -18.887 -18.879 -18.878
-18.868 -18.859 -10.108 -10.099 -10.098 -10.085 -10.082 -10.074
-10.063 -10.058 -10.056 -10.052 -10.051 -10.046 -10.041 -10.039
-10.031 -10.027 -10.020 -10.019 -10.013 -10.012  -1.021  -1.012
 -1.009  -0.995  -0.971  -0.961  -0.944  -0.936  -0.932  -0.921
 -0.763  -0.756  -0.727  -0.719  -0.713  -0.701  -0.692  -0.663
 -0.652  -0.621  -0.597  -0.578  -0.543  -0.538  -0.537  -0.530
 -0.516  -0.507  -0.482  -0.472  -0.459  -0.452  -0.444  -0.443
 -0.433  -0.431  -0.425  -0.415  -0.411  -0.408  -0.403  -0.400
 -0.396  -0.384  -0.371  -0.369  -0.358  -0.356  -0.349  -0.347
 -0.342  -0.338  -0.336  -0.331  -0.325  -0.321  -0.316  -0.313
 -0.308  -0.303  -0.298  -0.295  -0.291  -0.288  -0.272  -0.270
 -0.266  -0.257  -0.251  -0.248  -0.241  -0.235  -0.225  -0.194
 -0.176  -0.171  -0.165  -0.156  -0.152  -0.146  -0.143  -0.139
 -0.135

          Ground-State Mulliken Net Atomic Charges

     Atom                 Charge (a.u.)
  ----------------------------------------
      1 O                    -0.211394
      2 C                     0.212545
      3 C                    -0.081578
      4 C                    -0.077621
      5 C                     0.211606
      6 O                    -0.167617
      7 C                    -0.053718
      8 C                    -0.048196
      9 O                    -0.177343
     10 C                     0.212569
     11 C                    -0.080340
     12 C                    -0.078828
     13 C                     0.208268
     14 O                    -0.219353
     15 O                    -0.175390
     16 O                    -0.157230
     17 O                    -0.195886
     18 C                    -0.126767
     19 C                     0.024123
     20 C                    -0.142795
     21 C                    -0.145571
     22 C                     0.023362
     23 O                    -0.193042
     24 H                     0.086637
     25 H                     0.085693
     26 H                     0.089669
     27 H                     0.077766
     28 H                     0.074083
     29 H                     0.078530
     30 H                     0.074017
     31 H                     0.092031
     32 O                    -0.211665
     33 C                    -0.128862
     34 C                     0.026009
     35 C                    -0.145791
     36 C                    -0.141539
     37 C                     0.018820
     38 O                    -0.189572
     39 H                     0.083170
     40 H                     0.085937
     41 H                     0.091806
     42 H                     0.083544
     43 H                     0.075678
     44 H                     0.071582
     45 H                     0.075803
     46 H                     0.070948
     47 H                     0.102657
     48 H                     0.086179
     49 H                     0.085763
     50 H                     0.092720
     51 H                     0.087320
     52 H                     0.090769
     53 H                     0.094922
     54 H                     0.092615
     55 H                     0.099030
     56 H                     0.083928
  ----------------------------------------
  Sum of atomic charges =    -0.000000

                    Cartesian Multipole Moments
 -----------------------------------------------------------------
    Charge (ESU x 10^10)
                 0.0000
    Dipole Moment (Debye)
         X      -0.2988      Y       1.1707      Z      -1.3242
       Tot       1.7926
    Quadrupole Moments (Debye-Ang)
        XX    -163.1568     XY       5.0332     YY    -149.7228
        XZ      10.6822     YZ       1.0981     ZZ    -159.1740

 Total job time:  71.49s(wall), 3406.74s(cpu)
        *  Thank you very much for using Q-Chem.  Have a nice day.  *
