 Q-Chem 5.0, Q-Chem, Inc., Pleasanton, CA (2017)
 Q-Chem 5.0.1 for Intel X86 EM64T Linux

User input:
--------------------------------------------------------------
$molecule
0  1
O -4.1777228217 0.0347357999 2.2007421753
C -4.4595735079 -0.00882499 0.9850202183
C -3.7961562329 -0.9057982645 -0.1244815982
C -2.4829834045 -0.2896418189 -0.7625237258
C -2.2418197549 1.2085907072 -0.3859089686
O -1.386844516 1.7949089125 -1.3775800531
C -0.7974598832 3.0546709116 -0.8652593082
C 0.7167972125 3.1936213891 -1.2737235113
O 1.660437676 2.5471900058 -0.3290386677
C 1.6157384427 1.1146276584 -0.3954394204
C 2.6769149437 0.6065874898 0.6518182213
C 3.2269426149 -0.8861085751 0.6599304128
C 3.0782301247 -1.8819937143 -0.5583050764
O 3.8839243963 -2.8148466673 -0.7815635606
O -5.4890155507 0.7772930141 0.3663048239
O 1.8919929705 -1.6819029938 -1.3178278221
O 0.8218425645 0.4900397055 -1.1261924421
C 1.841856805 -2.6582208776 -2.4332332929
C 4.0444325867 1.434307034 0.6108544079
C 4.6226997182 1.4806146782 2.0773746543
C 5.080539439 -0.0140739607 2.2580192322
C 4.7821346365 -0.6045979752 0.8240430398
O 4.9897209696 0.5415006988 -0.0926345924
H 2.1930241601 0.7805120287 1.6327884614
H 2.8214445 -1.4175163358 1.5420965111
H 3.9584077724 2.4107687341 0.0970006676
H 5.4789168898 2.1722414095 2.1272523106
H 3.8700095093 1.7938718343 2.8182861317
H 6.1545812571 -0.0860720858 2.4911491603
H 4.5131630056 -0.5392317404 3.0430663982
H 5.4040634184 -1.4689081267 0.5185576381
O -2.6582623564 1.8267255864 0.619349083
C -6.0804597067 1.696831466 1.3637160423
C -3.1876115552 -2.1990542292 0.5720922238
C -2.7952246941 -3.248822517 -0.5394077773
C -1.4719264013 -2.6105747242 -1.1016312893
C -1.3690936767 -1.2953702945 -0.2346359718
O -1.8803952839 -1.7191190298 1.0858624493
H -4.5482941629 -1.1431774172 -0.8964841752
H -2.5290508385 -0.3359876585 -1.8658809817
H -5.3224917226 2.4066165276 1.7541232943
H -3.8013767796 -2.5944847442 1.4041134093
H -2.6103101436 -4.2375602518 -0.0904576092
H -3.5788986373 -3.3513089547 -1.307200929
H -0.6002468257 -3.2553449862 -0.9094045845
H -1.5222747999 -2.3975091993 -2.1809442865
H -0.3507915731 -0.853297948 -0.1943992395
H -6.5206233708 1.14618376 2.2201881048
H -6.8751311497 2.2547830428 0.8349524996
H 0.9502727958 -2.3871968144 -3.0269800136
H 1.7407110591 -3.6987333876 -2.0624022786
H 2.7483760988 -2.5970350716 -3.0684077056
H 0.854162843 2.7994972238 -2.3047597539
H 0.991886566 4.2673579952 -1.2529995553
H -0.9178012006 3.1071844764 0.2386013834
H -1.3499406928 3.9150141824 -1.3052909658
$end

$rem
JOBTYPE                   OPT
METHOD                    B3LYP
DFT_D                     d3_op
BASIS                     STO-3G
GEOM_OPT_MAX_CYCLES       100
GEOM_OPT_TOL_GRADIENT     300
GEOM_OPT_TOL_DISPLACEMENT 1200
GEOM_OPT_TOL_ENERGY       100
SYMMETRY                  False
THRESH                    12
SCF_CONVERGENCE           8
MAX_SUB_FILE_NUM          128
MEM_STATIC                400
MEM_TOTAL                 4000
$end
--------------------------------------------------------------

   16   -1510.2711970904      4.68E-09 Convergence criterion met
 Total energy in the final basis set = -1510.27119709
   15   -1510.2745901863      3.29E-09 Convergence criterion met
 Total energy in the final basis set = -1510.27459019
   15   -1510.2770281722      4.13E-09 Convergence criterion met
 Total energy in the final basis set = -1510.27702817
   14   -1510.2802293413      6.37E-09 Convergence criterion met
 Total energy in the final basis set = -1510.28022934
   14   -1510.2826679780      4.26E-09 Convergence criterion met
 Total energy in the final basis set = -1510.28266798
   14   -1510.2859879980      3.04E-09 Convergence criterion met
 Total energy in the final basis set = -1510.28598800
   14   -1510.2694380132      4.87E-09 Convergence criterion met
 Total energy in the final basis set = -1510.26943801
   14   -1510.2865728644      2.98E-09 Convergence criterion met
   11   -1510.3056515285      3.18E-09 Convergence criterion met
 Total energy in the final basis set = -1510.30565153
    9   -1510.3056508587      7.89E-09 Convergence criterion met
 Total energy in the final basis set = -1510.30565086
    9   -1510.3056520616      9.44E-09 Convergence criterion met
 Total energy in the final basis set = -1510.30565206
    9   -1510.3056532900      4.57E-09 Convergence criterion met
 Total energy in the final basis set = -1510.30565329
   10   -1510.3056552957      9.75E-09 Convergence criterion met
 Total energy in the final basis set = -1510.30565530
    9   -1510.3056565242      8.25E-09 Convergence criterion met
 Total energy in the final basis set = -1510.30565652

             Standard Nuclear Orientation (Angstroms)
    I     Atom           X                Y                Z
 ----------------------------------------------------------------
    1      O      -1.1573603858     0.7838350861     1.9073834486
    2      C      -2.2961120977     0.5491564495     1.4339219721
    3      C      -2.7133107589    -0.6644615949     0.5206326340
    4      C      -2.2127785811    -0.4968610930    -0.9701843281
    5      C      -1.8071896434     0.9742256353    -1.3081680851
    6      O      -1.3630455964     1.0327559792    -2.6648837537
    7      C      -0.9006547792     2.4016785807    -3.0036028077
    8      C       0.6497213307     2.5323323154    -2.7655639043
    9      O       0.9632745037     2.3098183948    -1.3355597893
   10      C       1.2841867918     0.9302924235    -1.1097626960
   11      C       1.3965405068     0.6600008964     0.4182763460
   12      C       2.1970784006    -0.6643047428     0.7561075396
   13      C       2.8124843793    -1.3758792363    -0.4995171772
   14      O       3.8969857990    -1.1318392882    -1.0702527159
   15      O      -3.4658874080     1.2979295813     1.7644630157
   16      O       1.9450065867    -2.4650842000    -0.8626699608
   17      O       1.4016404535     0.0898246862    -2.0343020118
   18      C       2.4440448196    -3.1101291773    -2.0963851709
   19      C       2.2469312861     1.7444226104     1.2028439694
   20      C       1.8841981704     1.6003723316     2.7329157262
   21      C       2.6564357276     0.2784137893     3.0986716189
   22      C       3.3214722583    -0.0859060652     1.7120874105
   23      O       3.6344378251     1.2350510113     1.1168330156
   24      H       0.3640656994     0.5989300898     0.8429351685
   25      H       1.5255396464    -1.3853125739     1.2545736880
   26      H       2.1758980526     2.7679284462     0.7870742020
   27      H       2.2595652754     2.4621178201     3.3071977419
   28      H       0.7948406153     1.5097353727     2.8763447045
   29      H       3.4307435649     0.4598851282     3.8610984295
   30      H       1.9864167867    -0.5190501145     3.4577078070
   31      H       4.2371582239    -0.7054979599     1.7712872053
   32      O      -1.8929326545     1.9655942023    -0.5460999687
   33      C      -3.0889276856     2.4866432674     2.5642552468
   34      C      -1.8917881778    -1.9489367819     0.9494729884
   35      C      -2.3857976273    -3.2029705103     0.1218923343
   36      C      -1.6614963245    -2.9724704398    -1.2581387540
   37      C      -1.0152991058    -1.5566999427    -1.0185374815
   38      O      -0.5582429407    -1.6487606024     0.3859574832
   39      H      -3.8078038410    -0.7960077459     0.5783906235
   40      H      -3.0011506386    -0.7938460586    -1.6858377795
   41      H      -2.4230755611     3.1583057343     1.9849531647
   42      H      -1.8235543162    -2.1023958081     2.0437875890
   43      H      -2.0567203303    -4.1374272046     0.6027683753
   44      H      -3.4833359758    -3.2236401916     0.0252082104
   45      H      -0.8697114949    -3.7203622376    -1.4239818366
   46      H      -2.3529969819    -2.9869134381    -2.1157657691
   47      H      -0.1626039691    -1.2744868540    -1.6713219109
   48      H      -2.5753138354     2.2001097915     3.5045283219
   49      H      -4.0339486815     3.0095854421     2.7995523622
   50      H       1.7682729539    -3.9628314821    -2.2933233017
   51      H       3.4834184183    -3.4795069434    -1.9791442321
   52      H       2.4152509553    -2.4091246108    -2.9558502892
   53      H       1.1889883520     1.7870151336    -3.3883151877
   54      H       0.9801654955     3.5603730035    -3.0182006820
   55      H      -1.4407302989     3.1448749385    -2.3795485849
   56      H      -1.1315195530     2.5591022723    -4.0769645346
 ----------------------------------------------------------------

    9   -1510.3056567372      9.41E-09 Convergence criterion met
 Total energy in the final basis set = -1510.30565674
 Final energy is   -1510.30565673720
 **  OPTIMIZATION CONVERGED  **

                    Orbital Energies (a.u.)
 --------------------------------------------------------------

 Alpha MOs
 -- Occupied --
-18.948 -18.937 -18.935 -18.909 -18.891 -18.889 -18.874 -18.873
-18.867 -18.847 -10.112 -10.105 -10.097 -10.080 -10.075 -10.074
-10.063 -10.062 -10.055 -10.046 -10.043 -10.040 -10.040 -10.039
-10.021 -10.019 -10.011 -10.009 -10.002  -9.997  -1.029  -1.012
 -1.009  -0.986  -0.972  -0.951  -0.950  -0.936  -0.935  -0.912
 -0.766  -0.744  -0.727  -0.720  -0.704  -0.699  -0.684  -0.663
 -0.645  -0.619  -0.593  -0.570  -0.547  -0.539  -0.528  -0.520
 -0.515  -0.501  -0.486  -0.470  -0.461  -0.457  -0.444  -0.439
 -0.433  -0.426  -0.417  -0.414  -0.411  -0.405  -0.398  -0.395
 -0.392  -0.381  -0.371  -0.366  -0.358  -0.356  -0.349  -0.345
 -0.341  -0.335  -0.331  -0.329  -0.322  -0.317  -0.313  -0.308
 -0.306  -0.304  -0.295  -0.289  -0.285  -0.277  -0.274  -0.266
 -0.260  -0.256  -0.252  -0.245  -0.236  -0.231  -0.213  -0.200
 -0.177  -0.171  -0.165  -0.156  -0.154  -0.150  -0.144  -0.128
 -0.125

          Ground-State Mulliken Net Atomic Charges

     Atom                 Charge (a.u.)
  ----------------------------------------
      1 O                    -0.223134
      2 C                     0.222982
      3 C                    -0.080728
      4 C                    -0.081655
      5 C                     0.210274
      6 O                    -0.168513
      7 C                    -0.052779
      8 C                    -0.053425
      9 O                    -0.170018
     10 C                     0.211193
     11 C                    -0.092300
     12 C                    -0.083112
     13 C                     0.210406
     14 O                    -0.221476
     15 O                    -0.166743
     16 O                    -0.171956
     17 O                    -0.219626
     18 C                    -0.129278
     19 C                     0.023268
     20 C                    -0.147590
     21 C                    -0.143761
     22 C                     0.024183
     23 O                    -0.192977
     24 H                     0.116975
     25 H                     0.096573
     26 H                     0.083553
     27 H                     0.070501
     28 H                     0.086593
     29 H                     0.072499
     30 H                     0.072381
     31 H                     0.080486
     32 O                    -0.208448
     33 C                    -0.127791
     34 C                     0.025362
     35 C                    -0.144833
     36 C                    -0.141489
     37 C                     0.021227
     38 O                    -0.187110
     39 H                     0.086429
     40 H                     0.087428
     41 H                     0.095468
     42 H                     0.082431
     43 H                     0.078732
     44 H                     0.072666
     45 H                     0.081047
     46 H                     0.072686
     47 H                     0.105556
     48 H                     0.088619
     49 H                     0.089773
     50 H                     0.081350
     51 H                     0.085510
     52 H                     0.088504
     53 H                     0.102122
     54 H                     0.091174
     55 H                     0.099378
     56 H                     0.091411
  ----------------------------------------
  Sum of atomic charges =    -0.000000

                    Cartesian Multipole Moments
 -----------------------------------------------------------------
    Charge (ESU x 10^10)
                 0.0000
    Dipole Moment (Debye)
         X      -4.5745      Y      -0.1775      Z      -0.6311
       Tot       4.6212
    Quadrupole Moments (Debye-Ang)
        XX    -169.1142     XY      -1.0554     YY    -149.0751
        XZ       1.9298     YZ      -3.3324     ZZ    -148.9019

 Total job time:  154.72s(wall), 7377.55s(cpu)
        *  Thank you very much for using Q-Chem.  Have a nice day.  *
