 Q-Chem 5.0, Q-Chem, Inc., Pleasanton, CA (2017)
 Q-Chem 5.0.1 for Intel X86 EM64T Linux

User input:
--------------------------------------------------------------
$molecule
0  1
O -5.597102533 -1.122419087 0.8344387204
C -4.754798649 -0.5360428317 0.1233109855
C -3.5835061024 -1.181823979 -0.696455858
C -2.2292386411 -0.3578005178 -0.6520132299
C -2.2552768913 0.8633723008 0.3334791594
O -1.823631369 2.0303086365 -0.3877738883
C -1.3370414589 3.0727430327 0.5435203362
C 0.22021613 3.2270570335 0.4240557102
O 0.9299622836 2.0238999083 0.9132998959
C 1.4964286544 1.2888158143 -0.1859181303
C 2.2302880315 0.0512607126 0.4363936591
C 3.1437434745 -0.8441559403 -0.4871989598
C 3.9784179037 -0.1541346344 -1.6373218505
O 4.8599972203 -0.7372321086 -2.3084971245
O -4.757749811 0.8737824007 -0.1366772604
O 3.7744597823 1.2563795479 -1.6744330727
O 1.2887072298 1.5661940536 -1.3854700957
C 4.6695680612 1.8704264654 -2.6817684107
C 3.1888716593 0.3146020833 1.6855114647
C 2.9904851002 -0.9083186471 2.6596177827
C 3.6150987142 -2.0621578117 1.7876187473
C 4.2491030223 -1.2463090616 0.5897844548
O 4.5579598684 0.0851919618 1.1703319997
H 1.4068337299 -0.5951560134 0.7930856525
H 2.5992515146 -1.7122535203 -0.9000894969
H 3.0942635774 1.3198910383 2.1388223231
H 3.5620934487 -0.7535952804 3.5890938063
H 1.9331555493 -1.0838721279 2.9148860946
H 4.3939461004 -2.6156913634 2.3352258196
H 2.8568432546 -2.7799225322 1.4346959438
H 5.1561637936 -1.6956051832 0.1401000213
O -2.4676177716 0.8398316574 1.5658503422
C -5.8028716242 1.5403648432 0.6727337898
C -3.1349728864 -2.5735006459 -0.0907927952
C -2.3251490745 -3.3556928457 -1.1972525275
C -0.9772928572 -2.5421188732 -1.213690985
C -1.2506840951 -1.4750912785 -0.0812334047
O -2.0939968367 -2.199488168 0.8945705382
H -3.9292385915 -1.2951334892 -1.7411973983
H -1.9255133403 -6.30436e-05 -1.6509457221
H -5.6009635448 1.43120362 1.7579798262
H -3.9549513622 -3.13352309 0.3999642009
H -2.1616159411 -4.4003710433 -0.8883433828
H -2.8382885432 -3.3503000604 -2.1720757288
H -0.1175246859 -3.1771138981 -0.946285481
H -0.7755567464 -2.0685124125 -2.1878765063
H -0.3483698389 -1.0772380231 0.4175869773
H -6.8100835055 1.1299679652 0.4556941731
H -5.7685188137 2.6098137386 0.3952961347
H 4.5092465987 2.9612522302 -2.6018847361
H 4.4175403636 1.5337629017 -3.70809273
H 5.7338293473 1.6308765197 -2.4820483244
H 0.4944971769 3.3997595049 -0.6391408991
H 0.5476820023 4.0845543024 1.0489122162
H -1.6293231118 2.7914999519 1.5794939033
H -1.8158404611 4.0365681508 0.2697196035
$end

$rem
JOBTYPE                   OPT
METHOD                    B3LYP
DFT_D                     d3_op
BASIS                     STO-3G
GEOM_OPT_MAX_CYCLES       100
GEOM_OPT_TOL_GRADIENT     300
GEOM_OPT_TOL_DISPLACEMENT 1200
GEOM_OPT_TOL_ENERGY       100
SYMMETRY                  False
THRESH                    12
SCF_CONVERGENCE           8
MAX_SUB_FILE_NUM          128
MEM_STATIC                400
MEM_TOTAL                 4000
$end
--------------------------------------------------------------

   16   -1510.2721639985      5.43E-09 Convergence criterion met
 Total energy in the final basis set = -1510.27216400
   15   -1510.2745071681      1.97E-09 Convergence criterion met
 Total energy in the final basis set = -1510.27450717
   13   -1510.2772433625      9.24E-09 Convergence criterion met
 Total energy in the final basis set = -1510.27724336
   14   -1510.2796214093      3.56E-09 Convergence criterion met
 Total energy in the final basis set = -1510.27962141
   13   -1510.2818048545      7.69E-09 Convergence criterion met
 Total energy in the final basis set = -1510.28180485
   14   -1510.2838394015      4.44E-09 Convergence criterion met
 Total energy in the final basis set = -1510.28383940
   14   -1510.2858945419      2.72E-09 Convergence criterion met
 Total energy in the final basis set = -1510.28589454
   14   -1510.2882047838      5.94E-09 Convergence criterion met
   11   -1510.3054202876      1.63E-09 Convergence criterion met
 Total energy in the final basis set = -1510.30542029
   10   -1510.3054194004      6.80E-09 Convergence criterion met
 Total energy in the final basis set = -1510.30541940
    9   -1510.3054193163      4.04E-09 Convergence criterion met
 Total energy in the final basis set = -1510.30541932
    9   -1510.3054204362      5.03E-09 Convergence criterion met
 Total energy in the final basis set = -1510.30542044
    9   -1510.3054224347      6.64E-09 Convergence criterion met
 Total energy in the final basis set = -1510.30542243
    9   -1510.3054247565      7.22E-09 Convergence criterion met
 Total energy in the final basis set = -1510.30542476

             Standard Nuclear Orientation (Angstroms)
    I     Atom           X                Y                Z
 ----------------------------------------------------------------
    1      O      -1.5721487176    -0.8008464346     1.6579109493
    2      C      -2.5989454173    -0.6856135812     0.9445368092
    3      C      -2.7446926190    -1.0606937274    -0.5777750163
    4      C      -2.1390142663     0.0379504170    -1.5418589486
    5      C      -1.8610128623     1.3935862293    -0.8147157984
    6      O      -1.3037967638     2.3170593624    -1.7512156773
    7      C      -0.9425396982     3.5895681654    -1.0784281055
    8      C       0.5485006859     3.5476797137    -0.5758706410
    9      O       0.7131748891     2.4977212682     0.4541777293
   10      C       1.1513148305     1.2729733193    -0.1526917584
   11      C       1.1127591898     0.1283611837     0.9018017145
   12      C       2.0346831456    -1.1033133731     0.5257784445
   13      C       2.8530276001    -0.9147601163    -0.7973371908
   14      O       2.6944165894    -1.5330471509    -1.8725191797
   15      O      -3.8822781058    -0.3173245703     1.4502244254
   16      O       3.8946562748     0.0483791093    -0.5728650831
   17      O       1.4565356049     1.1786679409    -1.3658033860
   18      C       4.6221660927     0.2959571883    -1.8358638956
   19      C       1.6985683820     0.5331602697     2.3174293302
   20      C       1.1745280025    -0.5323314551     3.3593666460
   21      C       2.0806327856    -1.7690936533     3.0032112179
   22      C       2.9512881159    -1.1833836108     1.8203149086
   23      O       3.1442046314     0.2344839440     2.2012967240
   24      H       0.0539265349    -0.2136703895     1.0093999817
   25      H       1.4146108276    -2.0062154186     0.3907256448
   26      H       1.5363381302     1.5930523912     2.5924292506
   27      H       1.3459684991    -0.1879809048     4.3915289505
   28      H       0.1004931174    -0.7362792609     3.2146206129
   29      H       2.7245477753    -2.0574561484     3.8494831496
   30      H       1.4952154009    -2.6478942410     2.6888633042
   31      H       3.9296144318    -1.6776516389     1.6642150567
   32      O      -2.1158439386     1.6630494231     0.3826005496
   33      C      -3.7613367331     0.1031413365     2.8653605543
   34      C      -1.7985644500    -2.2871892957    -0.9139817018
   35      C      -2.0683600808    -2.7754103749    -2.3935616649
   36      C      -1.2993404231    -1.6830529459    -3.2290229484
   37      C      -0.8328364355    -0.7089707340    -2.0825277740
   38      O      -0.4729224612    -1.6376552883    -0.9882185021
   39      H      -3.8095319396    -1.2549635466    -0.7941154107
   40      H      -2.8256449934     0.2471501942    -2.3821511425
   41      H      -3.0928930820     0.9828437520     2.9612925831
   42      H      -1.7958653031    -3.0849473989    -0.1460949584
   43      H      -1.6435623397    -3.7794019389    -2.5501318064
   44      H      -3.1449652205    -2.8071900935    -2.6266371197
   45      H      -0.4229710013    -2.1116275350    -3.7412024836
   46      H      -1.9399324815    -1.1831989775    -3.9728496168
   47      H       0.0274073059    -0.0419363831    -2.3017929505
   48      H      -3.3674136174    -0.7148256164     3.5024506853
   49      H      -4.7823267302     0.3717222516     3.1930337325
   50      H       5.4322694972     1.0068829830    -1.5898011727
   51      H       3.9555008102     0.7434996568    -2.6017774610
   52      H       5.0581663081    -0.6355771056    -2.2515439220
   53      H       1.2253243352     3.3415664925    -1.4324739239
   54      H       0.8066166136     4.5162902739    -0.1014527653
   55      H      -1.6236729966     3.7712105302    -0.2200700412
   56      H      -1.0589527047     4.3906646863    -1.8365565125
 ----------------------------------------------------------------

    9   -1510.3054258246      6.46E-09 Convergence criterion met
 Total energy in the final basis set = -1510.30542582
 Final energy is   -1510.30542582456
 **  OPTIMIZATION CONVERGED  **

                    Orbital Energies (a.u.)
 --------------------------------------------------------------

 Alpha MOs
 -- Occupied --
-18.947 -18.937 -18.934 -18.908 -18.891 -18.887 -18.873 -18.873
-18.867 -18.846 -10.112 -10.105 -10.096 -10.080 -10.075 -10.074
-10.063 -10.061 -10.054 -10.045 -10.042 -10.041 -10.039 -10.038
-10.019 -10.016 -10.011 -10.008 -10.002  -9.997  -1.028  -1.012
 -1.008  -0.986  -0.971  -0.951  -0.950  -0.936  -0.935  -0.911
 -0.765  -0.744  -0.726  -0.718  -0.704  -0.698  -0.684  -0.663
 -0.641  -0.619  -0.592  -0.570  -0.546  -0.538  -0.527  -0.519
 -0.514  -0.501  -0.486  -0.470  -0.462  -0.456  -0.449  -0.436
 -0.431  -0.423  -0.415  -0.412  -0.410  -0.403  -0.398  -0.394
 -0.392  -0.381  -0.370  -0.366  -0.358  -0.354  -0.349  -0.344
 -0.342  -0.332  -0.329  -0.327  -0.321  -0.317  -0.312  -0.307
 -0.305  -0.302  -0.294  -0.288  -0.286  -0.276  -0.272  -0.268
 -0.261  -0.256  -0.250  -0.246  -0.234  -0.230  -0.213  -0.199
 -0.177  -0.170  -0.163  -0.156  -0.153  -0.150  -0.144  -0.127
 -0.124

          Ground-State Mulliken Net Atomic Charges

     Atom                 Charge (a.u.)
  ----------------------------------------
      1 O                    -0.223577
      2 C                     0.223488
      3 C                    -0.081156
      4 C                    -0.081230
      5 C                     0.210498
      6 O                    -0.168117
      7 C                    -0.052431
      8 C                    -0.053641
      9 O                    -0.170594
     10 C                     0.212470
     11 C                    -0.091867
     12 C                    -0.081267
     13 C                     0.210850
     14 O                    -0.222037
     15 O                    -0.166833
     16 O                    -0.172153
     17 O                    -0.220873
     18 C                    -0.128282
     19 C                     0.023276
     20 C                    -0.147907
     21 C                    -0.143718
     22 C                     0.025127
     23 O                    -0.192201
     24 H                     0.117057
     25 H                     0.092888
     26 H                     0.083730
     27 H                     0.070099
     28 H                     0.086583
     29 H                     0.072178
     30 H                     0.072232
     31 H                     0.079164
     32 O                    -0.208463
     33 C                    -0.127725
     34 C                     0.025596
     35 C                    -0.144685
     36 C                    -0.142231
     37 C                     0.020558
     38 O                    -0.188195
     39 H                     0.086403
     40 H                     0.087737
     41 H                     0.095579
     42 H                     0.082625
     43 H                     0.079490
     44 H                     0.072376
     45 H                     0.084557
     46 H                     0.072687
     47 H                     0.104708
     48 H                     0.088362
     49 H                     0.089795
     50 H                     0.085137
     51 H                     0.087316
     52 H                     0.084505
     53 H                     0.101318
     54 H                     0.090476
     55 H                     0.098929
     56 H                     0.091391
  ----------------------------------------
  Sum of atomic charges =    -0.000000

                    Cartesian Multipole Moments
 -----------------------------------------------------------------
    Charge (ESU x 10^10)
                -0.0000
    Dipole Moment (Debye)
         X      -3.3646      Y       1.1075      Z      -0.6366
       Tot       3.5990
    Quadrupole Moments (Debye-Ang)
        XX    -157.4287     XY       2.0602     YY    -147.4775
        XZ      -1.3593     YZ      -4.8479     ZZ    -157.2796

 Total job time:  163.59s(wall), 7791.26s(cpu)
        *  Thank you very much for using Q-Chem.  Have a nice day.  *
