 Q-Chem 5.0, Q-Chem, Inc., Pleasanton, CA (2017)
 Q-Chem 5.0.1 for Intel X86 EM64T Linux

User input:
--------------------------------------------------------------
$molecule
0  1
O -3.94934 -3.66094 2.70899
C -3.26408 -4.56952 2.26188
C -3.36658 -6.02376 2.66595
C -2.05117 -6.80485 2.81908
C -0.77395 -5.99992 2.72477
O 0.0673 -6.56975 1.81208
C 1.43648 -6.19538 1.99766
C 2.24091 -7.38367 2.51436
O 1.81779 -7.7196 3.84515
C 1.10218 -8.86608 3.95755
C 0.69741 -9.16991 5.3804
C 0.07935 -10.55924 5.59496
C 0.2798 -11.55278 4.46829
O 0.01424 -12.74504 4.51901
O -2.50876 -4.31935 1.15922
O 1.12705 -11.28725 3.43498
O 0.28779 -9.10065 3.06771
C 1.48083 -12.15366 2.41722
C 1.92377 -9.29281 6.32599
C 1.49776 -9.02143 7.76968
C 0.6551 -10.24901 8.04811
C 0.92907 -11.05874 6.77435
O 2.21918 -10.66617 6.37773
H 0.11258 -8.34934 5.81753
H -1.01269 -10.50641 5.79591
H 2.77144 -8.62664 6.05458
H 2.42442 -9.07851 8.38558
H 0.99652 -8.04911 7.9651
H 1.05888 -10.75313 8.95378
H -0.43427 -10.06003 8.1653
H 0.79019 -12.14564 6.96698
O -0.52196 -5.02846 3.42916
C -2.35345 -3.07484 0.58572
C -4.01742 -6.21413 4.04196
C -4.56707 -7.63743 4.17167
C -3.28204 -8.41839 4.33402
C -2.26384 -7.28087 4.26263
O -2.91539 -6.21193 4.9039
H -3.9934 -6.49058 1.87323
H -1.99542 -7.6743 2.12359
H -1.89654 -2.37282 1.31559
H -4.81812 -5.47482 4.26086
H -5.14906 -7.71184 5.11773
H -5.20481 -7.94597 3.31534
H -3.25985 -8.84993 5.36007
H -3.10658 -9.22076 3.58533
H -1.32862 -7.57366 4.70432
H -3.33674 -2.68168 0.24984
H -1.68379 -3.16138 -0.29434
H 2.17729 -11.6356 1.72662
H 0.57776 -12.46302 1.84925
H 1.99141 -13.04826 2.83298
H 2.14548 -8.22736 1.7912
H 3.31855 -7.11791 2.55148
H 1.61624 -5.34339 2.69062
H 1.83903 -5.882 1.01129
$end

$opt
CONSTRAINT
tors           1           2           3           4    -140.054
tors           3           4           5           6    -128.224
tors           4           5           6           7    -158.591
tors           5           6           7           8    +109.491
tors           6           7           8           9     -67.324
tors           7           8           9          10    +107.973
tors           8           9          10          11    +179.513
tors           9          10          11          12    -170.861
tors          11          12          13          14    +170.288
ENDCONSTRAINT
$end

$rem
JOBTYPE                   OPT
METHOD                    B3LYP
DFT_D                     d3_op
BASIS                     STO-3G
GEOM_OPT_MAX_CYCLES       100
GEOM_OPT_TOL_GRADIENT     300
GEOM_OPT_TOL_DISPLACEMENT 1200
GEOM_OPT_TOL_ENERGY       100
SYMMETRY                  False
THRESH                    12
SCF_CONVERGENCE           8
MAX_SUB_FILE_NUM          128
MEM_STATIC                400
MEM_TOTAL                 4000
$end
--------------------------------------------------------------

   16   -1510.1076871239      2.74E-09 Convergence criterion met
 Total energy in the final basis set = -1510.10768712
   14   -1510.1847307951      5.16E-09 Convergence criterion met
 Total energy in the final basis set = -1510.18473080
   14   -1510.2282215427      3.53E-09 Convergence criterion met
 Total energy in the final basis set = -1510.22822154
   14   -1510.2504369490      4.57E-09 Convergence criterion met
 Total energy in the final basis set = -1510.25043695
   13   -1510.2625089433      8.67E-09 Convergence criterion met
 Total energy in the final basis set = -1510.26250894
   14   -1510.2677128049      4.00E-09 Convergence criterion met
 Total energy in the final basis set = -1510.26771280
   13   -1510.2701653139      8.68E-09 Convergence criterion met
 Total energy in the final basis set = -1510.27016531
   13   -1510.2715014459      3.79E-09 Convergence criterion met
   11   -1510.2721407300      6.10E-09 Convergence criterion met
 Total energy in the final basis set = -1510.27214073
   11   -1510.2721513052      3.82E-09 Convergence criterion met
 Total energy in the final basis set = -1510.27215131
   11   -1510.2721570293      2.08E-09 Convergence criterion met
 Total energy in the final basis set = -1510.27215703
    9   -1510.2721617481      6.35E-09 Convergence criterion met
 Total energy in the final basis set = -1510.27216175
    9   -1510.2721643340      5.79E-09 Convergence criterion met
 Total energy in the final basis set = -1510.27216433
    9   -1510.2721654728      8.54E-09 Convergence criterion met
 Total energy in the final basis set = -1510.27216547

             Standard Nuclear Orientation (Angstroms)
    I     Atom           X                Y                Z
 ----------------------------------------------------------------
    1      O      -5.5971025330    -1.1224190870     0.8344387204
    2      C      -4.7547986490    -0.5360428317     0.1233109855
    3      C      -3.5835061024    -1.1818239790    -0.6964558580
    4      C      -2.2292386411    -0.3578005178    -0.6520132299
    5      C      -2.2552768913     0.8633723008     0.3334791594
    6      O      -1.8236313690     2.0303086365    -0.3877738883
    7      C      -1.3370414589     3.0727430327     0.5435203362
    8      C       0.2202161300     3.2270570335     0.4240557102
    9      O       0.9299622836     2.0238999083     0.9132998959
   10      C       1.4964286544     1.2888158143    -0.1859181303
   11      C       2.2302880315     0.0512607126     0.4363936591
   12      C       3.1437434745    -0.8441559403    -0.4871989598
   13      C       3.9784179037    -0.1541346344    -1.6373218505
   14      O       4.8599972203    -0.7372321086    -2.3084971245
   15      O      -4.7577498110     0.8737824007    -0.1366772604
   16      O       3.7744597823     1.2563795479    -1.6744330727
   17      O       1.2887072298     1.5661940536    -1.3854700957
   18      C       4.6695680612     1.8704264654    -2.6817684107
   19      C       3.1888716593     0.3146020833     1.6855114647
   20      C       2.9904851002    -0.9083186471     2.6596177827
   21      C       3.6150987142    -2.0621578117     1.7876187473
   22      C       4.2491030223    -1.2463090616     0.5897844548
   23      O       4.5579598684     0.0851919618     1.1703319997
   24      H       1.4068337299    -0.5951560134     0.7930856525
   25      H       2.5992515146    -1.7122535203    -0.9000894969
   26      H       3.0942635774     1.3198910383     2.1388223231
   27      H       3.5620934487    -0.7535952804     3.5890938063
   28      H       1.9331555493    -1.0838721279     2.9148860946
   29      H       4.3939461004    -2.6156913634     2.3352258196
   30      H       2.8568432546    -2.7799225322     1.4346959438
   31      H       5.1561637936    -1.6956051832     0.1401000213
   32      O      -2.4676177716     0.8398316574     1.5658503422
   33      C      -5.8028716242     1.5403648432     0.6727337898
   34      C      -3.1349728864    -2.5735006459    -0.0907927952
   35      C      -2.3251490745    -3.3556928457    -1.1972525275
   36      C      -0.9772928572    -2.5421188732    -1.2136909850
   37      C      -1.2506840951    -1.4750912785    -0.0812334047
   38      O      -2.0939968367    -2.1994881680     0.8945705382
   39      H      -3.9292385915    -1.2951334892    -1.7411973983
   40      H      -1.9255133403    -0.0000630436    -1.6509457221
   41      H      -5.6009635448     1.4312036200     1.7579798262
   42      H      -3.9549513622    -3.1335230900     0.3999642009
   43      H      -2.1616159411    -4.4003710433    -0.8883433828
   44      H      -2.8382885432    -3.3503000604    -2.1720757288
   45      H      -0.1175246859    -3.1771138981    -0.9462854810
   46      H      -0.7755567464    -2.0685124125    -2.1878765063
   47      H      -0.3483698389    -1.0772380231     0.4175869773
   48      H      -6.8100835055     1.1299679652     0.4556941731
   49      H      -5.7685188137     2.6098137386     0.3952961347
   50      H       4.5092465987     2.9612522302    -2.6018847361
   51      H       4.4175403636     1.5337629017    -3.7080927300
   52      H       5.7338293473     1.6308765197    -2.4820483244
   53      H       0.4944971769     3.3997595049    -0.6391408991
   54      H       0.5476820023     4.0845543024     1.0489122162
   55      H      -1.6293231118     2.7914999519     1.5794939033
   56      H      -1.8158404611     4.0365681508     0.2697196035
 ----------------------------------------------------------------

    9   -1510.2721656256      9.72E-09 Convergence criterion met
 Total energy in the final basis set = -1510.27216563
 Final energy is   -1510.27216562559
 **  OPTIMIZATION CONVERGED  **

                    Orbital Energies (a.u.)
 --------------------------------------------------------------

 Alpha MOs
 -- Occupied --
-18.938 -18.934 -18.930 -18.926 -18.890 -18.887 -18.880 -18.879
-18.870 -18.865 -10.102 -10.102 -10.098 -10.096 -10.070 -10.067
-10.065 -10.063 -10.061 -10.060 -10.060 -10.059 -10.040 -10.039
-10.039 -10.037 -10.023 -10.022 -10.021 -10.019  -1.016  -1.014
 -1.008  -1.003  -0.973  -0.971  -0.940  -0.939  -0.931  -0.929
 -0.766  -0.764  -0.727  -0.723  -0.716  -0.706  -0.696  -0.663
 -0.659  -0.620  -0.600  -0.578  -0.547  -0.544  -0.540  -0.537
 -0.513  -0.511  -0.486  -0.479  -0.467  -0.457  -0.451  -0.441
 -0.435  -0.432  -0.423  -0.416  -0.413  -0.412  -0.408  -0.405
 -0.399  -0.381  -0.376  -0.367  -0.362  -0.359  -0.354  -0.349
 -0.346  -0.340  -0.338  -0.332  -0.331  -0.327  -0.315  -0.312
 -0.311  -0.307  -0.304  -0.298  -0.296  -0.294  -0.287  -0.274
 -0.271  -0.254  -0.251  -0.245  -0.241  -0.237  -0.234  -0.187
 -0.178  -0.174  -0.162  -0.159  -0.154  -0.151  -0.148  -0.145
 -0.144

          Ground-State Mulliken Net Atomic Charges

     Atom                 Charge (a.u.)
  ----------------------------------------
      1 O                    -0.208715
      2 C                     0.214721
      3 C                    -0.078867
      4 C                    -0.078397
      5 C                     0.215261
      6 O                    -0.175471
      7 C                    -0.055491
      8 C                    -0.055326
      9 O                    -0.178781
     10 C                     0.214035
     11 C                    -0.079539
     12 C                    -0.076319
     13 C                     0.211609
     14 O                    -0.220615
     15 O                    -0.169745
     16 O                    -0.161797
     17 O                    -0.204456
     18 C                    -0.125837
     19 C                     0.025802
     20 C                    -0.141300
     21 C                    -0.146227
     22 C                     0.023628
     23 O                    -0.192259
     24 H                     0.081347
     25 H                     0.084021
     26 H                     0.089302
     27 H                     0.078397
     28 H                     0.076646
     29 H                     0.079162
     30 H                     0.073723
     31 H                     0.087448
     32 O                    -0.217575
     33 C                    -0.127888
     34 C                     0.024104
     35 C                    -0.143396
     36 C                    -0.144572
     37 C                     0.025780
     38 O                    -0.187400
     39 H                     0.085378
     40 H                     0.090321
     41 H                     0.093403
     42 H                     0.091313
     43 H                     0.078508
     44 H                     0.074160
     45 H                     0.075490
     46 H                     0.076295
     47 H                     0.076628
     48 H                     0.090268
     49 H                     0.090920
     50 H                     0.090500
     51 H                     0.088776
     52 H                     0.091147
     53 H                     0.101121
     54 H                     0.085719
     55 H                     0.100200
     56 H                     0.084838
  ----------------------------------------
  Sum of atomic charges =    -0.000000

                    Cartesian Multipole Moments
 -----------------------------------------------------------------
    Charge (ESU x 10^10)
                -0.0000
    Dipole Moment (Debye)
         X      -0.6415      Y       1.1004      Z      -0.9550
       Tot       1.5920
    Quadrupole Moments (Debye-Ang)
        XX    -167.5229     XY      -4.0104     YY    -147.8659
        XZ       9.1023     YZ       3.2434     ZZ    -163.6359

 Total job time:  59.32s(wall), 2823.46s(cpu)
        *  Thank you very much for using Q-Chem.  Have a nice day.  *
