 Q-Chem 5.0, Q-Chem, Inc., Pleasanton, CA (2017)
 Q-Chem 5.0.1 for Intel X86 EM64T Linux

User input:
--------------------------------------------------------------
$molecule
0  1
O -3.94934 -3.66094 2.70899
C -3.26408 -4.56952 2.26188
C -3.36658 -6.02376 2.66595
C -2.08749 -6.87147 2.57012
C -0.80876 -6.12912 2.25096
O 0.22897 -7.01202 2.156
C 1.39765 -6.5857 2.8643
C 2.21238 -7.79537 3.31044
O 1.41481 -8.63699 4.15805
C 1.52064 -9.96852 3.9236
C 0.66002 -10.79859 4.84607
C 1.26877 -12.14589 5.26139
C 2.7527 -12.30897 5.00055
O 3.47379 -13.15311 5.51244
O -2.6755 -4.35393 1.05277
O 3.46452 -11.43228 4.2448
O 1.78928 -10.40031 2.80563
C 4.82302 -11.47856 3.99281
C 0.39138 -10.177 6.23919
C -0.87427 -10.78901 6.84208
C -0.38549 -12.17885 7.17934
C 1.08848 -12.05006 6.7899
O 1.40072 -10.70566 7.05912
H -0.31611 -10.92659 4.32547
H 0.75362 -13.03134 4.82934
H 0.29226 -9.07086 6.23959
H -1.08451 -10.24741 7.79233
H -1.77443 -10.75618 6.19423
H -0.48483 -12.32917 8.27753
H -0.88744 -13.00702 6.63361
H 1.69043 -12.80565 7.34163
O -0.62714 -4.94879 2.53224
C -2.61004 -3.13036 0.41838
C -3.69251 -6.17816 4.16506
C -4.31603 -7.54914 4.42409
C -3.10281 -8.43999 4.27615
C -2.01673 -7.39289 4.02007
O -2.43353 -6.28563 4.77958
H -4.19523 -6.4525 2.05902
H -2.18644 -7.69619 1.82904
H -2.06009 -2.40162 1.05158
H -4.36186 -5.38222 4.55812
H -4.64763 -7.57662 5.4869
H -5.1741 -7.79889 3.76356
H -2.91826 -8.93452 5.25375
H -3.16143 -9.20177 3.46903
H -1.024 -7.81141 4.28332
H -3.63288 -2.75056 0.20884
H -2.06952 -3.24812 -0.54304
H 5.0996 -10.62484 3.34071
H 5.08355 -12.42498 3.47268
H 5.39233 -11.40019 4.94354
H 2.62509 -8.29899 2.4087
H 3.07621 -7.41973 3.89992
H 1.13081 -6.0471 3.80523
H 2.01249 -5.9173 2.22303
$end

$opt
CONSTRAINT
tors           1           2           3           4    -150.975
tors           3           4           5           6    -178.055
tors           4           5           6           7    -133.778
tors           5           6           7           8    +152.092
tors           6           7           8           9     -59.096
tors           7           8           9          10    +137.255
tors           8           9          10          11    +179.966
tors           9          10          11          12    -144.671
tors          11          12          13          14    +162.694
ENDCONSTRAINT
$end

$rem
JOBTYPE                   OPT
METHOD                    B3LYP
DFT_D                     d3_op
BASIS                     STO-3G
GEOM_OPT_MAX_CYCLES       100
GEOM_OPT_TOL_GRADIENT     300
GEOM_OPT_TOL_DISPLACEMENT 1200
GEOM_OPT_TOL_ENERGY       100
SYMMETRY                  False
THRESH                    12
SCF_CONVERGENCE           8
MAX_SUB_FILE_NUM          128
MEM_STATIC                400
MEM_TOTAL                 4000
$end
--------------------------------------------------------------

   16   -1510.1127939665      1.10E-09 Convergence criterion met
 Total energy in the final basis set = -1510.11279397
   13   -1510.1872485869      9.21E-09 Convergence criterion met
 Total energy in the final basis set = -1510.18724859
   13   -1510.2286824493      9.36E-09 Convergence criterion met
 Total energy in the final basis set = -1510.22868245
   14   -1510.2465649629      4.24E-09 Convergence criterion met
 Total energy in the final basis set = -1510.24656496
   14   -1510.2536140166      4.93E-09 Convergence criterion met
 Total energy in the final basis set = -1510.25361402
   13   -1510.2567446159      6.49E-09 Convergence criterion met
 Total energy in the final basis set = -1510.25674462
    2   -1510.2567446160      3.50E-09 Convergence criterion met
 Total energy in the final basis set = -1510.25674462
   13   -1510.2599957612      5.46E-09 Convergence criterion met
   11   -1510.2625833414      7.82E-09 Convergence criterion met
 Total energy in the final basis set = -1510.26258334
   11   -1510.2625967453      6.68E-09 Convergence criterion met
 Total energy in the final basis set = -1510.26259675
   10   -1510.2626071942      3.59E-09 Convergence criterion met
 Total energy in the final basis set = -1510.26260719
    9   -1510.2626099464      7.35E-09 Convergence criterion met
 Total energy in the final basis set = -1510.26260995
    9   -1510.2626118442      4.68E-09 Convergence criterion met
 Total energy in the final basis set = -1510.26261184
    9   -1510.2626135763      4.00E-09 Convergence criterion met
 Total energy in the final basis set = -1510.26261358

             Standard Nuclear Orientation (Angstroms)
    I     Atom           X                Y                Z
 ----------------------------------------------------------------
    1      O      -6.2926566676    -0.4499673324     0.5242672786
    2      C      -5.2937331528    -0.1444697714    -0.1617669189
    3      C      -4.0093925299    -1.0194371551    -0.3879334962
    4      C      -2.6730156811    -0.2287854793    -0.6492109880
    5      C      -2.7087127110     1.2104028305    -0.0160372153
    6      O      -1.4790885852     1.8895132118    -0.3316080773
    7      C      -0.9407299580     2.5432690738     0.8869680360
    8      C       0.6068688788     2.6093980824     0.7026512913
    9      O       1.1189117679     1.2264495948     0.5341722105
   10      C       2.1000500192     1.1987330034    -0.5166694486
   11      C       2.6323906555    -0.2682774457    -0.6823912819
   12      C       4.1590374067    -0.4319654990    -1.0608944007
   13      C       5.1677773530     0.6350003518    -0.4745079622
   14      O       6.4083414307     0.4819291253    -0.4163936875
   15      O      -5.2742929018     0.9388391920    -1.1033676684
   16      O       4.4860736471     1.7197173105     0.1528862934
   17      O       2.3267987585     2.1650551688    -1.2771176629
   18      C       5.4581848601     2.6286631026     0.8011719294
   19      C       2.4974802905    -1.2738085431     0.5427319270
   20      C       2.2388829033    -2.7003219199    -0.0794694011
   21      C       3.6365731932    -2.9796644051    -0.7480204170
   22      C       4.4841320785    -1.7516728765    -0.2311192192
   23      O       3.8724932967    -1.4064764772     1.0785406303
   24      H       2.0395740560    -0.6737421108    -1.5258522584
   25      H       4.3176868268    -0.5405847456    -2.1488330028
   26      H       1.7927133576    -0.9485494422     1.3318914442
   27      H       2.0194971739    -3.4317832168     0.7149242547
   28      H       1.4116006473    -2.7015647679    -0.8060558233
   29      H       4.0748807751    -3.9273622567    -0.3978151990
   30      H       3.5810660732    -3.0036882544    -1.8483415611
   31      H       5.5697219067    -1.9385118345    -0.1161672000
   32      O      -3.5410379854     1.6290532279     0.8178512271
   33      C      -6.5072237644     1.7448561114    -0.9685823449
   34      C      -3.5953673368    -1.9467296158     0.8339701777
   35      C      -2.8528276944    -3.1988776130     0.2282378631
   36      C      -1.5187419668    -2.5295477346    -0.2715273642
   37      C      -1.6764208234    -1.0562573839     0.2774827203
   38      O      -2.4936058176    -1.2141816558     1.5059452558
   39      H      -4.2363907209    -1.6519523906    -1.2674783751
   40      H      -2.3680010973    -0.1976222537    -1.7097517302
   41      H      -6.5516947037     2.2525039046     0.0167341082
   42      H      -4.4173020597    -2.1616202720     1.5445534579
   43      H      -2.6545166898    -3.9443044845     1.0150018389
   44      H      -3.4230812594    -3.6804688633    -0.5819439238
   45      H      -0.6352202642    -3.0123486603     0.1731112570
   46      H      -1.4175392395    -2.5513221705    -1.3687475562
   47      H      -0.7258823625    -0.5262213331     0.4946817443
   48      H      -7.4182782129     1.1229806448    -1.0863543022
   49      H      -6.4670844057     2.5033638027    -1.7719378673
   50      H       4.8580496289     3.4419624881     1.2488733384
   51      H       6.1721664324     3.0537580159     0.0668396206
   52      H       6.0336482031     2.1083244164     1.5940422931
   53      H       0.8868381553     3.1985361169    -0.1980117746
   54      H       1.0729816456     3.0693370324     1.6014113583
   55      H      -1.2004708173     1.9613850595     1.7971452385
   56      H      -1.3441560951     3.5742415655     1.0115091433
 ----------------------------------------------------------------

    9   -1510.2626143704      3.41E-09 Convergence criterion met
 Total energy in the final basis set = -1510.26261437
 Final energy is   -1510.26261437036
 **  OPTIMIZATION CONVERGED  **

                    Orbital Energies (a.u.)
 --------------------------------------------------------------

 Alpha MOs
 -- Occupied --
-18.939 -18.932 -18.925 -18.921 -18.888 -18.887 -18.886 -18.874
-18.871 -18.867 -10.104 -10.102 -10.100 -10.095 -10.077 -10.071
-10.066 -10.061 -10.061 -10.061 -10.059 -10.058 -10.042 -10.040
-10.039 -10.035 -10.024 -10.023 -10.022 -10.021  -1.017  -1.013
 -1.008  -1.001  -0.972  -0.971  -0.942  -0.936  -0.931  -0.928
 -0.766  -0.763  -0.729  -0.724  -0.718  -0.705  -0.698  -0.663
 -0.657  -0.616  -0.601  -0.577  -0.548  -0.544  -0.541  -0.536
 -0.515  -0.512  -0.485  -0.483  -0.470  -0.459  -0.455  -0.445
 -0.438  -0.434  -0.417  -0.415  -0.412  -0.409  -0.405  -0.404
 -0.400  -0.383  -0.374  -0.369  -0.361  -0.360  -0.357  -0.349
 -0.346  -0.340  -0.338  -0.334  -0.330  -0.324  -0.318  -0.314
 -0.312  -0.310  -0.305  -0.301  -0.296  -0.291  -0.284  -0.275
 -0.270  -0.252  -0.250  -0.248  -0.243  -0.236  -0.235  -0.181
 -0.175  -0.173  -0.168  -0.158  -0.156  -0.152  -0.147  -0.145
 -0.144

          Ground-State Mulliken Net Atomic Charges

     Atom                 Charge (a.u.)
  ----------------------------------------
      1 O                    -0.216441
      2 C                     0.215699
      3 C                    -0.080577
      4 C                    -0.075143
      5 C                     0.221357
      6 O                    -0.184025
      7 C                    -0.046155
      8 C                    -0.053017
      9 O                    -0.177123
     10 C                     0.221274
     11 C                    -0.080342
     12 C                    -0.075310
     13 C                     0.212871
     14 O                    -0.217343
     15 O                    -0.173840
     16 O                    -0.166009
     17 O                    -0.212738
     18 C                    -0.125636
     19 C                     0.022158
     20 C                    -0.142511
     21 C                    -0.146086
     22 C                     0.023439
     23 O                    -0.192679
     24 H                     0.082911
     25 H                     0.086872
     26 H                     0.091597
     27 H                     0.077406
     28 H                     0.072720
     29 H                     0.079349
     30 H                     0.073914
     31 H                     0.089069
     32 O                    -0.199101
     33 C                    -0.127977
     34 C                     0.023950
     35 C                    -0.142007
     36 C                    -0.146389
     37 C                     0.019590
     38 O                    -0.193080
     39 H                     0.083035
     40 H                     0.087284
     41 H                     0.090674
     42 H                     0.091226
     43 H                     0.078066
     44 H                     0.073678
     45 H                     0.078409
     46 H                     0.071873
     47 H                     0.088255
     48 H                     0.088175
     49 H                     0.088180
     50 H                     0.090817
     51 H                     0.091259
     52 H                     0.091521
     53 H                     0.105239
     54 H                     0.084213
     55 H                     0.091192
     56 H                     0.086260
  ----------------------------------------
  Sum of atomic charges =    -0.000000

                    Cartesian Multipole Moments
 -----------------------------------------------------------------
    Charge (ESU x 10^10)
                 0.0000
    Dipole Moment (Debye)
         X       0.2828      Y      -0.6556      Z      -1.6088
       Tot       1.7601
    Quadrupole Moments (Debye-Ang)
        XX    -177.4777     XY       0.2837     YY    -148.4001
        XZ       9.3794     YZ       9.0490     ZZ    -161.7009

 Total job time:  62.80s(wall), 2987.69s(cpu)
        *  Thank you very much for using Q-Chem.  Have a nice day.  *
