 Q-Chem 5.0, Q-Chem, Inc., Pleasanton, CA (2017)
 Q-Chem 5.0.1 for Intel X86 EM64T Linux

User input:
--------------------------------------------------------------
$molecule
0  1
O -6.2926566676 -0.4499673324 0.5242672786
C -5.2937331528 -0.1444697714 -0.1617669189
C -4.0093925299 -1.0194371551 -0.3879334962
C -2.6730156811 -0.2287854793 -0.649210988
C -2.708712711 1.2104028305 -0.0160372153
O -1.4790885852 1.8895132118 -0.3316080773
C -0.940729958 2.5432690738 0.886968036
C 0.6068688788 2.6093980824 0.7026512913
O 1.1189117679 1.2264495948 0.5341722105
C 2.1000500192 1.1987330034 -0.5166694486
C 2.6323906555 -0.2682774457 -0.6823912819
C 4.1590374067 -0.431965499 -1.0608944007
C 5.167777353 0.6350003518 -0.4745079622
O 6.4083414307 0.4819291253 -0.4163936875
O -5.2742929018 0.938839192 -1.1033676684
O 4.4860736471 1.7197173105 0.1528862934
O 2.3267987585 2.1650551688 -1.2771176629
C 5.4581848601 2.6286631026 0.8011719294
C 2.4974802905 -1.2738085431 0.542731927
C 2.2388829033 -2.7003219199 -0.0794694011
C 3.6365731932 -2.9796644051 -0.748020417
C 4.4841320785 -1.7516728765 -0.2311192192
O 3.8724932967 -1.4064764772 1.0785406303
H 2.039574056 -0.6737421108 -1.5258522584
H 4.3176868268 -0.5405847456 -2.1488330028
H 1.7927133576 -0.9485494422 1.3318914442
H 2.0194971739 -3.4317832168 0.7149242547
H 1.4116006473 -2.7015647679 -0.8060558233
H 4.0748807751 -3.9273622567 -0.397815199
H 3.5810660732 -3.0036882544 -1.8483415611
H 5.5697219067 -1.9385118345 -0.1161672
O -3.5410379854 1.6290532279 0.8178512271
C -6.5072237644 1.7448561114 -0.9685823449
C -3.5953673368 -1.9467296158 0.8339701777
C -2.8528276944 -3.198877613 0.2282378631
C -1.5187419668 -2.5295477346 -0.2715273642
C -1.6764208234 -1.0562573839 0.2774827203
O -2.4936058176 -1.2141816558 1.5059452558
H -4.2363907209 -1.6519523906 -1.2674783751
H -2.3680010973 -0.1976222537 -1.7097517302
H -6.5516947037 2.2525039046 0.0167341082
H -4.4173020597 -2.161620272 1.5445534579
H -2.6545166898 -3.9443044845 1.0150018389
H -3.4230812594 -3.6804688633 -0.5819439238
H -0.6352202642 -3.0123486603 0.173111257
H -1.4175392395 -2.5513221705 -1.3687475562
H -0.7258823625 -0.5262213331 0.4946817443
H -7.4182782129 1.1229806448 -1.0863543022
H -6.4670844057 2.5033638027 -1.7719378673
H 4.8580496289 3.4419624881 1.2488733384
H 6.1721664324 3.0537580159 0.0668396206
H 6.0336482031 2.1083244164 1.5940422931
H 0.8868381553 3.1985361169 -0.1980117746
H 1.0729816456 3.0693370324 1.6014113583
H -1.2004708173 1.9613850595 1.7971452385
H -1.3441560951 3.5742415655 1.0115091433
$end

$rem
JOBTYPE                   OPT
METHOD                    B3LYP
DFT_D                     d3_op
BASIS                     STO-3G
GEOM_OPT_MAX_CYCLES       100
GEOM_OPT_TOL_GRADIENT     300
GEOM_OPT_TOL_DISPLACEMENT 1200
GEOM_OPT_TOL_ENERGY       100
SYMMETRY                  False
THRESH                    12
SCF_CONVERGENCE           8
MAX_SUB_FILE_NUM          128
MEM_STATIC                400
MEM_TOTAL                 4000
$end
--------------------------------------------------------------

   16   -1510.2626382524      5.05E-09 Convergence criterion met
 Total energy in the final basis set = -1510.26263825
   13   -1510.2675117928      9.98E-09 Convergence criterion met
 Total energy in the final basis set = -1510.26751179
   14   -1510.2716421171      1.71E-09 Convergence criterion met
 Total energy in the final basis set = -1510.27164212
   14   -1510.2754775036      2.31E-09 Convergence criterion met
 Total energy in the final basis set = -1510.27547750
   13   -1510.2782761135      8.14E-09 Convergence criterion met
 Total energy in the final basis set = -1510.27827611
   13   -1510.2805253886      3.51E-09 Convergence criterion met
 Total energy in the final basis set = -1510.28052539
   13   -1510.2826530444      5.37E-09 Convergence criterion met
 Total energy in the final basis set = -1510.28265304
   13   -1510.2844421706      6.96E-09 Convergence criterion met
   12   -1510.3056024804      4.38E-09 Convergence criterion met
 Total energy in the final basis set = -1510.30560248
   11   -1510.3056173636      8.77E-09 Convergence criterion met
 Total energy in the final basis set = -1510.30561736
   12   -1510.3056422834      3.09E-09 Convergence criterion met
 Total energy in the final basis set = -1510.30564228
   12   -1510.3056535700      1.95E-09 Convergence criterion met
 Total energy in the final basis set = -1510.30565357
   11   -1510.3056575988      7.73E-09 Convergence criterion met
 Total energy in the final basis set = -1510.30565760
   11   -1510.3056600365      1.74E-09 Convergence criterion met
 Total energy in the final basis set = -1510.30566004

             Standard Nuclear Orientation (Angstroms)
    I     Atom           X                Y                Z
 ----------------------------------------------------------------
    1      O      -2.2349326961    -1.7357142098     1.5458549366
    2      C      -2.9308178181    -1.1086842189     0.7166431745
    3      C      -2.8560260837    -1.2149929567    -0.8528387484
    4      C      -2.1476685237     0.0123742995    -1.5616885788
    5      C      -1.7238063457     1.1354041594    -0.5576893978
    6      O      -1.3919948197     2.3077004877    -1.3051981523
    7      C      -0.8819413377     3.3827451593    -0.4172270221
    8      C       0.6857852849     3.3091669382    -0.2796476788
    9      O       1.0632981052     2.1169871488     0.5094037024
   10      C       1.2959584783     1.0014744616    -0.3648142255
   11      C       1.2744025441    -0.3428795743     0.4378476402
   12      C       2.6108161574    -1.1834276154     0.3135873039
   13      C       3.7704366556    -0.4063824806    -0.3876454262
   14      O       4.6220966187    -0.8482447857    -1.1881176575
   15      O      -4.0539603648    -0.2894495356     1.0593696650
   16      O       3.7198843503     0.9608265586     0.0515492709
   17      O       1.3558646582     1.1134738539    -1.6151846572
   18      C       4.7244617636     1.7721866773    -0.6697033082
   19      C       1.1520373592    -0.1720020172     2.0075279249
   20      C       0.5965209124    -1.5217870963     2.5961345312
   21      C       1.8458279460    -2.4604203430     2.4080387549
   22      C       2.9219613972    -1.4385042866     1.8537864184
   23      O       2.5593668740    -0.1497758176     2.4797580054
   24      H       0.4305679316    -0.9408790636     0.0117605740
   25      H       2.4530833412    -2.1292209864    -0.2342810246
   26      H       0.6180531240     0.7453137987     2.3183308854
   27      H       0.3557190338    -1.3952907462     3.6636882191
   28      H      -0.3148257550    -1.8553099242     2.0662557030
   29      H       2.1796140585    -2.8933034229     3.3645073800
   30      H       1.6592063687    -3.2805612907     1.6964757346
   31      H       3.9761959653    -1.6977015231     2.0731490334
   32      O      -1.6747685604     1.0466160957     0.6909710071
   33      C      -4.1215598116    -0.1263989962     2.5289473907
   34      C      -1.9000234798    -2.4032760617    -1.2730168068
   35      C      -2.1179149380    -2.7251016137    -2.8015624236
   36      C      -1.3794081585    -1.5109895536    -3.4827803348
   37      C      -0.8839366671    -0.7033281117    -2.2249246113
   38      O      -0.5576754669    -1.7734446451    -1.2515092773
   39      H      -3.8820330883    -1.3494602336    -1.2391514510
   40      H      -2.7907366558     0.4647521214    -2.3372767383
   41      H      -3.2239939708     0.4005445853     2.9125535149
   42      H      -1.9269505547    -3.2712722143    -0.5863388582
   43      H      -1.6438148506    -3.6841432085    -3.0638589387
   44      H      -3.1864862818    -2.7747342625    -3.0652281913
   45      H      -0.5188535367    -1.8487969987    -4.0818849843
   46      H      -2.0451998196    -0.9139022550    -4.1260251174
   47      H       0.0027525661    -0.0387241391    -2.3548824158
   48      H      -4.2065604153    -1.1039726639     3.0460340361
   49      H      -5.0236899200     0.4802667786     2.7296620442
   50      H       4.7067113910     2.7720369562    -0.1985764156
   51      H       4.4669214183     1.8646891200    -1.7451546857
   52      H       5.7400154391     1.3356626995    -0.5852449276
   53      H       1.1485329109     3.2597696081    -1.2886271495
   54      H       1.0509393341     4.1987134756     0.2725859987
   55      H      -1.3479382342     3.2982572227     0.5876213825
   56      H      -1.1716933634     4.3416618569    -0.8935396048
 ----------------------------------------------------------------

    9   -1510.3056607203      9.48E-09 Convergence criterion met
 Total energy in the final basis set = -1510.30566072
 Final energy is   -1510.30566072032
 **  OPTIMIZATION CONVERGED  **

                    Orbital Energies (a.u.)
 --------------------------------------------------------------

 Alpha MOs
 -- Occupied --
-18.945 -18.929 -18.929 -18.928 -18.902 -18.889 -18.870 -18.867
-18.867 -18.861 -10.111 -10.100 -10.094 -10.089 -10.078 -10.072
-10.065 -10.060 -10.058 -10.056 -10.045 -10.043 -10.040 -10.034
-10.024 -10.022 -10.021 -10.006 -10.001  -9.988  -1.026  -1.008
 -1.006  -0.999  -0.980  -0.951  -0.948  -0.932  -0.930  -0.928
 -0.768  -0.746  -0.728  -0.718  -0.706  -0.701  -0.683  -0.660
 -0.652  -0.619  -0.593  -0.574  -0.548  -0.542  -0.529  -0.517
 -0.514  -0.501  -0.488  -0.473  -0.465  -0.458  -0.453  -0.439
 -0.431  -0.423  -0.415  -0.414  -0.408  -0.405  -0.404  -0.397
 -0.391  -0.382  -0.371  -0.365  -0.358  -0.354  -0.352  -0.348
 -0.345  -0.341  -0.335  -0.332  -0.328  -0.315  -0.313  -0.308
 -0.307  -0.302  -0.293  -0.288  -0.284  -0.278  -0.277  -0.275
 -0.265  -0.258  -0.250  -0.241  -0.239  -0.235  -0.213  -0.196
 -0.172  -0.170  -0.168  -0.158  -0.156  -0.150  -0.150  -0.140
 -0.125

          Ground-State Mulliken Net Atomic Charges

     Atom                 Charge (a.u.)
  ----------------------------------------
      1 O                    -0.219084
      2 C                     0.219526
      3 C                    -0.082056
      4 C                    -0.080247
      5 C                     0.211316
      6 O                    -0.168792
      7 C                    -0.052742
      8 C                    -0.053617
      9 O                    -0.168025
     10 C                     0.215154
     11 C                    -0.096573
     12 C                    -0.079540
     13 C                     0.209576
     14 O                    -0.213449
     15 O                    -0.172941
     16 O                    -0.165130
     17 O                    -0.236933
     18 C                    -0.128171
     19 C                     0.022258
     20 C                    -0.152888
     21 C                    -0.144551
     22 C                     0.024967
     23 O                    -0.192872
     24 H                     0.113070
     25 H                     0.085616
     26 H                     0.090129
     27 H                     0.069435
     28 H                     0.095864
     29 H                     0.072437
     30 H                     0.071448
     31 H                     0.077421
     32 O                    -0.208345
     33 C                    -0.128208
     34 C                     0.026158
     35 C                    -0.143795
     36 C                    -0.143347
     37 C                     0.014659
     38 O                    -0.189828
     39 H                     0.086118
     40 H                     0.088826
     41 H                     0.093777
     42 H                     0.089563
     43 H                     0.079600
     44 H                     0.074530
     45 H                     0.081359
     46 H                     0.075118
     47 H                     0.109644
     48 H                     0.088312
     49 H                     0.087857
     50 H                     0.089777
     51 H                     0.087771
     52 H                     0.091171
     53 H                     0.100330
     54 H                     0.089562
     55 H                     0.098458
     56 H                     0.090325
  ----------------------------------------
  Sum of atomic charges =    -0.000000

                    Cartesian Multipole Moments
 -----------------------------------------------------------------
    Charge (ESU x 10^10)
                -0.0000
    Dipole Moment (Debye)
         X      -3.1584      Y       1.3980      Z      -1.3236
       Tot       3.6989
    Quadrupole Moments (Debye-Ang)
        XX    -157.5609     XY       5.3500     YY    -147.0820
        XZ       2.0578     YZ       0.2260     ZZ    -161.4138

 Total job time:  124.00s(wall), 5906.17s(cpu)
        *  Thank you very much for using Q-Chem.  Have a nice day.  *
