 Q-Chem 5.0, Q-Chem, Inc., Pleasanton, CA (2017)
 Q-Chem 5.0.1 for Intel X86 EM64T Linux

User input:
--------------------------------------------------------------
$molecule
0  1
O 5.8712420699 -0.6476426001 0.0134471269
C 4.7605789857 -0.1476575755 0.2936400342
C 3.3836210977 -0.8964757155 0.3733107936
C 2.0999985634 -0.0394794089 0.035537092
C 2.2909951429 1.4206221153 -0.5018599025
O 1.2431651415 2.2213408272 0.097595469
C 0.5796730203 3.0605662842 -0.9191978696
C -0.8784738908 3.42789856 -0.4395306314
O -1.974260548 2.449259649 -0.6601140324
C -1.7425238302 1.1083045598 -0.2006626713
C -3.0777405547 0.3447546089 -0.5386161761
C -3.3171874903 -1.1742414935 -0.1355467826
C -2.5627827181 -1.9220049551 1.0367592148
O -2.9258623236 -3.0459278944 1.4530320847
O 4.584449909 1.1890351625 0.7759156403
O -1.4772372943 -1.1973678402 1.6151086446
O -0.6891444519 0.6896901683 0.3066221885
C -0.9497007905 -1.9437325631 2.7861747582
C -4.386662906 1.0412641771 0.0627639234
C -5.5433888922 0.8473894688 -0.9898530383
C -5.776885282 -0.7045204235 -0.8720616769
C -4.8350601968 -1.0721109958 0.343602096
O -4.8039868735 0.1564363612 1.1721779028
H -3.1490100299 0.392859368 -1.6419145886
H -3.2225933662 -1.8184654813 -1.0295274606
H -4.22910923 2.0776112595 0.4184330723
H -6.4381077626 1.4121991404 -0.6822191469
H -5.2519460511 1.1651222991 -2.0036537508
H -6.8257467765 -0.9447892949 -0.6375540679
H -5.4881024798 -1.245185868 -1.7877143526
H -5.1608770187 -1.9435767617 0.9443849113
O 3.023501128 1.8155493268 -1.4330758327
C 5.8689007077 1.9227628409 0.7330100135
C 3.2507401617 -2.0812981604 -0.6717683736
C 2.0946612037 -3.0403560898 -0.172820474
C 0.8167939753 -2.1943575943 -0.5333037034
C 1.4768780995 -0.9069116612 -1.1534760149
O 2.6682322649 -1.4225052427 -1.8635699365
H 3.3043995771 -1.286502222 1.4062573796
H 1.400557213 0.011525799 0.8858387442
H 6.2233746275 2.0546354524 -0.3096350082
H 4.2111473063 -2.5720372168 -0.9242802837
H 2.1173970341 -3.9925175986 -0.7263411743
H 2.1750170063 -3.2574578828 0.9043582894
H 0.1978424505 -2.7064779819 -1.2872404137
H 0.1816482091 -1.9394263742 0.3312412749
H 0.8286588287 -0.337312657 -1.8467354134
H 6.6575498258 1.3998462133 1.3117287529
H 5.6697547164 2.9127848344 1.1827625224
H -0.1174390019 -1.330349015 3.1771667391
H -0.573131627 -2.9464378732 2.4988797934
H -1.7237025735 -2.0676835469 3.5701635166
H -0.8244899546 3.6898997934 0.6416198111
H -1.2114440634 4.3251196295 -1.0002572883
H 0.5389591065 2.548080032 -1.9054528399
H 1.1264997671 4.020951669 -1.0663909938
$end

$rem
JOBTYPE                   OPT
METHOD                    B3LYP
DFT_D                     d3_op
BASIS                     STO-3G
GEOM_OPT_MAX_CYCLES       100
GEOM_OPT_TOL_GRADIENT     300
GEOM_OPT_TOL_DISPLACEMENT 1200
GEOM_OPT_TOL_ENERGY       100
SYMMETRY                  False
THRESH                    12
SCF_CONVERGENCE           8
MAX_SUB_FILE_NUM          128
MEM_STATIC                400
MEM_TOTAL                 4000
$end
--------------------------------------------------------------

   16   -1510.2533207579      5.01E-09 Convergence criterion met
 Total energy in the final basis set = -1510.25332076
   15   -1510.2569713914      2.82E-09 Convergence criterion met
 Total energy in the final basis set = -1510.25697139
   14   -1510.2616908737      8.67E-09 Convergence criterion met
 Total energy in the final basis set = -1510.26169087
   15   -1510.2654165730      4.50E-09 Convergence criterion met
 Total energy in the final basis set = -1510.26541657
   14   -1510.2682998687      3.25E-09 Convergence criterion met
 Total energy in the final basis set = -1510.26829987
   15   -1510.2711717992      2.66E-09 Convergence criterion met
 Total energy in the final basis set = -1510.27117180
   15   -1510.2738120058      3.04E-09 Convergence criterion met
 Total energy in the final basis set = -1510.27381201
   14   -1510.2764833733      8.63E-09 Convergence criterion met
   12   -1510.3016674431      7.09E-09 Convergence criterion met
 Total energy in the final basis set = -1510.30166744
   12   -1510.3017021521      3.04E-09 Convergence criterion met
 Total energy in the final basis set = -1510.30170215
   11   -1510.3016978812      6.82E-09 Convergence criterion met
 Total energy in the final basis set = -1510.30169788
   11   -1510.3017057505      3.40E-09 Convergence criterion met
 Total energy in the final basis set = -1510.30170575
   10   -1510.3017036269      9.66E-09 Convergence criterion met
 Total energy in the final basis set = -1510.30170363
   11   -1510.3017071198      5.52E-09 Convergence criterion met
 Total energy in the final basis set = -1510.30170712

             Standard Nuclear Orientation (Angstroms)
    I     Atom           X                Y                Z
 ----------------------------------------------------------------
    1      O      -2.1015123308     0.8438589642     2.7372040994
    2      C      -2.8247780084     0.6489426288     1.7376355231
    3      C      -2.8735918664    -0.6355494744     0.8281875141
    4      C      -2.2515605617    -0.4300231562    -0.6141309910
    5      C      -1.7045956895     1.0165670222    -0.8423852356
    6      O      -1.5745093117     1.2404410080    -2.2515291633
    7      C      -0.9755334683     2.5697452884    -2.5230081043
    8      C       0.5857563179     2.4706833260    -2.7028973830
    9      O       1.2349306330     2.1919204155    -1.4001575256
   10      C       1.3742131590     0.7828497392    -1.2074765287
   11      C       1.7315597778     0.4978497690     0.2844589709
   12      C       2.2891544287    -0.9620000807     0.5399790870
   13      C       2.4686402623    -1.8270578830    -0.7556450809
   14      O       1.7986967560    -2.8338598140    -1.0766016602
   15      O      -3.8560443763     1.5426152986     1.2927471079
   16      O       3.5885035735    -1.3362389318    -1.5048982562
   17      O       1.1534302329    -0.0697009852    -2.1021505010
   18      C       3.7157323376    -2.1006013837    -2.7649371513
   19      C       2.9109053115     1.3906739985     0.8576613349
   20      C       2.8286246922     1.3388204661     2.4336758130
   21      C       3.3611139022    -0.1151371225     2.7148989104
   22      C       3.6672418699    -0.6208860781     1.2493348169
   23      O       4.1239273050     0.6015476080     0.5457510652
   24      H       0.7952039423     0.6518245512     0.8572486144
   25      H       1.5848480677    -1.5101156298     1.1915518964
   26      H       2.9723832958     2.4029950763     0.4137399323
   27      H       3.4844225432     2.1035997295     2.8793670747
   28      H       1.8007585523     1.4936744462     2.7984778421
   29      H       4.2831207602    -0.0990965953     3.3174767001
   30      H       2.6167008217    -0.7487536040     3.2227744931
   31      H       4.4335269094    -1.4163751054     1.1748843916
   32      O      -1.3968811487     1.8555692225     0.0351765211
   33      C      -3.8022749387     2.7959686138     2.0766419614
   34      C      -1.9274548382    -1.7650183329     1.4081034045
   35      C      -2.2853841546    -3.1372766792     0.7165360768
   36      C      -1.6445089949    -2.9356711902    -0.7073554914
   37      C      -1.0524528482    -1.4822000068    -0.5779210110
   38      O      -0.6072527327    -1.4180787995     0.8332079474
   39      H      -3.9243221555    -0.9687159412     0.7532353812
   40      H      -2.9696976337    -0.6675108852    -1.4186047282
   41      H      -2.8490121719     3.3362289724     1.9014395431
   42      H      -1.8724538792    -1.7801952132     2.5138385796
   43      H      -1.8168638329    -3.9758300462     1.2559512988
   44      H      -3.3730782631    -3.3074599795     0.6740890348
   45      H      -0.8238481134    -3.6484048074    -0.8891501633
   46      H      -2.3791931587    -3.0191470030    -1.5240449348
   47      H      -0.2141851939    -1.2423797715    -1.2666277683
   48      H      -3.9046636727     2.6051105329     3.1644971725
   49      H      -4.6486324187     3.4153317341     1.7269470047
   50      H       4.6128726231    -1.7040800583    -3.2748992155
   51      H       2.8260191463    -1.9564791492    -3.4119980843
   52      H       3.8428620064    -3.1865362288    -2.5776680038
   53      H       0.8325482961     1.6685438368    -3.4307788759
   54      H       0.9794455003     3.4455285943    -3.0558367843
   55      H      -1.2075402789     3.2664861096    -1.6893548506
   56      H      -1.4314152683     2.9348401627    -3.4661853243
 ----------------------------------------------------------------

    9   -1510.3017079295      8.23E-09 Convergence criterion met
 Total energy in the final basis set = -1510.30170793
 Final energy is   -1510.30170792949
 **  OPTIMIZATION CONVERGED  **

                    Orbital Energies (a.u.)
 --------------------------------------------------------------

 Alpha MOs
 -- Occupied --
-18.944 -18.943 -18.922 -18.917 -18.885 -18.885 -18.883 -18.878
-18.863 -18.854 -10.108 -10.107 -10.091 -10.084 -10.080 -10.079
-10.056 -10.054 -10.051 -10.051 -10.050 -10.047 -10.037 -10.032
-10.029 -10.020 -10.014 -10.010 -10.010 -10.009  -1.028  -1.015
 -1.000  -0.994  -0.967  -0.961  -0.948  -0.944  -0.926  -0.919
 -0.759  -0.754  -0.727  -0.715  -0.709  -0.700  -0.692  -0.655
 -0.648  -0.621  -0.593  -0.575  -0.541  -0.537  -0.532  -0.528
 -0.510  -0.507  -0.487  -0.472  -0.459  -0.456  -0.448  -0.442
 -0.427  -0.425  -0.422  -0.412  -0.405  -0.404  -0.400  -0.398
 -0.397  -0.382  -0.371  -0.363  -0.358  -0.356  -0.351  -0.342
 -0.341  -0.336  -0.334  -0.328  -0.322  -0.321  -0.314  -0.310
 -0.305  -0.300  -0.298  -0.296  -0.287  -0.280  -0.275  -0.268
 -0.267  -0.258  -0.252  -0.245  -0.238  -0.234  -0.221  -0.200
 -0.174  -0.167  -0.162  -0.161  -0.161  -0.144  -0.142  -0.136
 -0.134

          Ground-State Mulliken Net Atomic Charges

     Atom                 Charge (a.u.)
  ----------------------------------------
      1 O                    -0.218070
      2 C                     0.214484
      3 C                    -0.081285
      4 C                    -0.080152
      5 C                     0.210655
      6 O                    -0.169298
      7 C                    -0.053422
      8 C                    -0.052862
      9 O                    -0.167583
     10 C                     0.217293
     11 C                    -0.080019
     12 C                    -0.084923
     13 C                     0.210641
     14 O                    -0.222827
     15 O                    -0.176683
     16 O                    -0.170303
     17 O                    -0.216088
     18 C                    -0.128110
     19 C                     0.024619
     20 C                    -0.143418
     21 C                    -0.143863
     22 C                     0.025397
     23 O                    -0.188985
     24 H                     0.103037
     25 H                     0.100321
     26 H                     0.086894
     27 H                     0.075583
     28 H                     0.079344
     29 H                     0.075287
     30 H                     0.076018
     31 H                     0.082020
     32 O                    -0.212465
     33 C                    -0.128808
     34 C                     0.024616
     35 C                    -0.144344
     36 C                    -0.144250
     37 C                     0.016376
     38 O                    -0.196288
     39 H                     0.083941
     40 H                     0.087940
     41 H                     0.090802
     42 H                     0.086316
     43 H                     0.077601
     44 H                     0.071617
     45 H                     0.088698
     46 H                     0.071954
     47 H                     0.101823
     48 H                     0.087269
     49 H                     0.086240
     50 H                     0.087007
     51 H                     0.088816
     52 H                     0.085823
     53 H                     0.102226
     54 H                     0.091976
     55 H                     0.100333
     56 H                     0.091080
  ----------------------------------------
  Sum of atomic charges =    -0.000000

                    Cartesian Multipole Moments
 -----------------------------------------------------------------
    Charge (ESU x 10^10)
                -0.0000
    Dipole Moment (Debye)
         X      -1.8597      Y       1.1343      Z      -1.2243
       Tot       2.4988
    Quadrupole Moments (Debye-Ang)
        XX    -158.0215     XY      -1.7914     YY    -152.6025
        XZ       0.0839     YZ      -6.1660     ZZ    -153.7491

 Total job time:  115.91s(wall), 5527.11s(cpu)
        *  Thank you very much for using Q-Chem.  Have a nice day.  *
