 Q-Chem 5.0, Q-Chem, Inc., Pleasanton, CA (2017)
 Q-Chem 5.0.1 for Intel X86 EM64T Linux

User input:
--------------------------------------------------------------
$molecule
0  1
O -3.94934 -3.66094 2.70899
C -3.26408 -4.56952 2.26188
C -3.36658 -6.02376 2.66595
C -2.08578 -6.86964 2.57712
C -0.80648 -6.12556 2.26437
O -0.02448 -6.87608 1.43334
C 1.34152 -6.94539 1.85585
C 2.00098 -8.20257 1.29841
O 1.6939 -9.32856 2.13551
C 0.37768 -9.51289 2.40521
C 0.11693 -10.7314 3.25838
C -1.36572 -11.02999 3.52459
C -2.35565 -10.30838 2.63239
O -3.55038 -10.5555 2.55415
O -2.57524 -4.32653 1.1142
O -1.86396 -9.93858 1.40968
O -0.21069 -8.63397 2.93956
C -2.59307 -9.74482 0.24783
C 0.56952 -12.0474 2.5963
C 0.80535 -13.10662 3.67141
C -0.61818 -13.38754 4.10621
C -1.38753 -12.51621 3.10605
O -0.58222 -12.52874 1.9524
H 0.67745 -10.59045 4.21314
H -1.66736 -10.90289 4.58539
H 1.4748 -11.9374 1.96052
H 1.20432 -14.01002 3.15646
H 1.50144 -12.81315 4.4864
H -0.83051 -14.46596 3.93288
H -0.85829 -13.11499 5.15673
H -2.42183 -12.90555 2.97784
O -0.40966 -5.12974 2.86052
C -2.44784 -3.08583 0.52509
C -3.74301 -6.01546 4.15289
C -4.2787 -7.37297 4.58751
C -2.98177 -8.07795 4.79882
C -1.99703 -7.08991 4.1722
O -2.4835 -5.89878 4.73527
H -4.18423 -6.45799 2.04897
H -2.22353 -7.77117 1.99448
H -1.9455 -2.38246 1.22319
H -4.4889 -5.23909 4.43194
H -4.83008 -7.34651 5.55381
H -4.9267 -7.80474 3.79358
H -2.75186 -8.03346 5.89057
H -3.02344 -9.14197 4.59557
H -0.98732 -7.32041 4.57005
H -3.44683 -2.689 0.24465
H -1.83077 -3.18072 -0.39177
H -1.90535 -9.42596 -0.56185
H -3.36626 -8.96098 0.39294
H -3.08318 -10.69431 -0.05528
H 1.69312 -8.3753 0.24373
H 3.10438 -8.07864 1.3237
H 1.50838 -6.8521 2.95585
H 1.85175 -6.08061 1.378
$end

$opt
CONSTRAINT
tors           1           2           3           4    -150.663
tors           3           4           5           6    -141.954
tors           4           5           6           7    -132.893
tors           5           6           7           8    +155.821
tors           6           7           8           9     -82.744
tors           7           8           9          10     +51.636
tors           8           9          10          11    +178.490
tors           9          10          11          12    -176.634
tors          11          12          13          14    +168.664
ENDCONSTRAINT
$end

$rem
JOBTYPE                   OPT
METHOD                    B3LYP
DFT_D                     d3_op
BASIS                     STO-3G
GEOM_OPT_MAX_CYCLES       100
GEOM_OPT_TOL_GRADIENT     300
GEOM_OPT_TOL_DISPLACEMENT 1200
GEOM_OPT_TOL_ENERGY       100
SYMMETRY                  False
THRESH                    12
SCF_CONVERGENCE           8
MAX_SUB_FILE_NUM          128
MEM_STATIC                400
MEM_TOTAL                 4000
$end
--------------------------------------------------------------

   15   -1510.0272180405      7.91E-09 Convergence criterion met
 Total energy in the final basis set = -1510.02721804
   14   -1510.1120617051      8.60E-09 Convergence criterion met
 Total energy in the final basis set = -1510.11206171
   14   -1510.1715737500      7.74E-09 Convergence criterion met
 Total energy in the final basis set = -1510.17157375
   14   -1510.2038189941      6.63E-09 Convergence criterion met
 Total energy in the final basis set = -1510.20381899
   13   -1510.2223656815      8.96E-09 Convergence criterion met
 Total energy in the final basis set = -1510.22236568
   14   -1510.2331614718      4.28E-09 Convergence criterion met
 Total energy in the final basis set = -1510.23316147
   14   -1510.2400835605      3.57E-09 Convergence criterion met
 Total energy in the final basis set = -1510.24008356
   13   -1510.2448049876      7.03E-09 Convergence criterion met
   11   -1510.2532018655      6.27E-09 Convergence criterion met
 Total energy in the final basis set = -1510.25320187
   11   -1510.2532293955      8.82E-09 Convergence criterion met
 Total energy in the final basis set = -1510.25322940
   11   -1510.2532418469      5.39E-09 Convergence criterion met
 Total energy in the final basis set = -1510.25324185
   11   -1510.2532488185      3.64E-09 Convergence criterion met
 Total energy in the final basis set = -1510.25324882
   11   -1510.2532547209      2.09E-09 Convergence criterion met
 Total energy in the final basis set = -1510.25325472
   11   -1510.2532612965      3.05E-09 Convergence criterion met
 Total energy in the final basis set = -1510.25326130

             Standard Nuclear Orientation (Angstroms)
    I     Atom           X                Y                Z
 ----------------------------------------------------------------
    1      O       5.8712420699    -0.6476426001     0.0134471269
    2      C       4.7605789857    -0.1476575755     0.2936400342
    3      C       3.3836210977    -0.8964757155     0.3733107936
    4      C       2.0999985634    -0.0394794089     0.0355370920
    5      C       2.2909951429     1.4206221153    -0.5018599025
    6      O       1.2431651415     2.2213408272     0.0975954690
    7      C       0.5796730203     3.0605662842    -0.9191978696
    8      C      -0.8784738908     3.4278985600    -0.4395306314
    9      O      -1.9742605480     2.4492596490    -0.6601140324
   10      C      -1.7425238302     1.1083045598    -0.2006626713
   11      C      -3.0777405547     0.3447546089    -0.5386161761
   12      C      -3.3171874903    -1.1742414935    -0.1355467826
   13      C      -2.5627827181    -1.9220049551     1.0367592148
   14      O      -2.9258623236    -3.0459278944     1.4530320847
   15      O       4.5844499090     1.1890351625     0.7759156403
   16      O      -1.4772372943    -1.1973678402     1.6151086446
   17      O      -0.6891444519     0.6896901683     0.3066221885
   18      C      -0.9497007905    -1.9437325631     2.7861747582
   19      C      -4.3866629060     1.0412641771     0.0627639234
   20      C      -5.5433888922     0.8473894688    -0.9898530383
   21      C      -5.7768852820    -0.7045204235    -0.8720616769
   22      C      -4.8350601968    -1.0721109958     0.3436020960
   23      O      -4.8039868735     0.1564363612     1.1721779028
   24      H      -3.1490100299     0.3928593680    -1.6419145886
   25      H      -3.2225933662    -1.8184654813    -1.0295274606
   26      H      -4.2291092300     2.0776112595     0.4184330723
   27      H      -6.4381077626     1.4121991404    -0.6822191469
   28      H      -5.2519460511     1.1651222991    -2.0036537508
   29      H      -6.8257467765    -0.9447892949    -0.6375540679
   30      H      -5.4881024798    -1.2451858680    -1.7877143526
   31      H      -5.1608770187    -1.9435767617     0.9443849113
   32      O       3.0235011280     1.8155493268    -1.4330758327
   33      C       5.8689007077     1.9227628409     0.7330100135
   34      C       3.2507401617    -2.0812981604    -0.6717683736
   35      C       2.0946612037    -3.0403560898    -0.1728204740
   36      C       0.8167939753    -2.1943575943    -0.5333037034
   37      C       1.4768780995    -0.9069116612    -1.1534760149
   38      O       2.6682322649    -1.4225052427    -1.8635699365
   39      H       3.3043995771    -1.2865022220     1.4062573796
   40      H       1.4005572130     0.0115257990     0.8858387442
   41      H       6.2233746275     2.0546354524    -0.3096350082
   42      H       4.2111473063    -2.5720372168    -0.9242802837
   43      H       2.1173970341    -3.9925175986    -0.7263411743
   44      H       2.1750170063    -3.2574578828     0.9043582894
   45      H       0.1978424505    -2.7064779819    -1.2872404137
   46      H       0.1816482091    -1.9394263742     0.3312412749
   47      H       0.8286588287    -0.3373126570    -1.8467354134
   48      H       6.6575498258     1.3998462133     1.3117287529
   49      H       5.6697547164     2.9127848344     1.1827625224
   50      H      -0.1174390019    -1.3303490150     3.1771667391
   51      H      -0.5731316270    -2.9464378732     2.4988797934
   52      H      -1.7237025735    -2.0676835469     3.5701635166
   53      H      -0.8244899546     3.6898997934     0.6416198111
   54      H      -1.2114440634     4.3251196295    -1.0002572883
   55      H       0.5389591065     2.5480800320    -1.9054528399
   56      H       1.1264997671     4.0209516690    -1.0663909938
 ----------------------------------------------------------------

   11   -1510.2532619481      4.00E-09 Convergence criterion met
 Total energy in the final basis set = -1510.25326195
 Final energy is   -1510.25326194806
 **  OPTIMIZATION CONVERGED  **

                    Orbital Energies (a.u.)
 --------------------------------------------------------------

 Alpha MOs
 -- Occupied --
-18.943 -18.931 -18.930 -18.910 -18.890 -18.887 -18.881 -18.872
-18.872 -18.869 -10.106 -10.102 -10.094 -10.092 -10.080 -10.075
-10.066 -10.062 -10.061 -10.059 -10.053 -10.052 -10.043 -10.040
-10.031 -10.024 -10.023 -10.022 -10.014 -10.009  -1.017  -1.012
 -1.006  -0.996  -0.974  -0.964  -0.944  -0.935  -0.931  -0.926
 -0.765  -0.755  -0.726  -0.720  -0.713  -0.703  -0.694  -0.665
 -0.657  -0.621  -0.597  -0.580  -0.545  -0.540  -0.538  -0.531
 -0.517  -0.508  -0.482  -0.476  -0.462  -0.453  -0.443  -0.440
 -0.434  -0.428  -0.424  -0.417  -0.409  -0.406  -0.406  -0.404
 -0.392  -0.384  -0.374  -0.369  -0.364  -0.360  -0.352  -0.347
 -0.343  -0.338  -0.334  -0.333  -0.326  -0.319  -0.315  -0.312
 -0.308  -0.305  -0.301  -0.298  -0.296  -0.288  -0.283  -0.272
 -0.264  -0.255  -0.250  -0.246  -0.238  -0.237  -0.228  -0.183
 -0.180  -0.171  -0.168  -0.154  -0.151  -0.148  -0.144  -0.138
 -0.135

          Ground-State Mulliken Net Atomic Charges

     Atom                 Charge (a.u.)
  ----------------------------------------
      1 O                    -0.214412
      2 C                     0.212982
      3 C                    -0.079880
      4 C                    -0.079800
      5 C                     0.218838
      6 O                    -0.178012
      7 C                    -0.046824
      8 C                    -0.048251
      9 O                    -0.181206
     10 C                     0.212110
     11 C                    -0.080505
     12 C                    -0.077637
     13 C                     0.209278
     14 O                    -0.219033
     15 O                    -0.169275
     16 O                    -0.155138
     17 O                    -0.193545
     18 C                    -0.128483
     19 C                     0.025738
     20 C                    -0.141963
     21 C                    -0.145775
     22 C                     0.024244
     23 O                    -0.192212
     24 H                     0.083759
     25 H                     0.084093
     26 H                     0.087508
     27 H                     0.078133
     28 H                     0.074268
     29 H                     0.079090
     30 H                     0.073653
     31 H                     0.088774
     32 O                    -0.206959
     33 C                    -0.127176
     34 C                     0.024150
     35 C                    -0.144279
     36 C                    -0.149323
     37 C                     0.028884
     38 O                    -0.190702
     39 H                     0.082593
     40 H                     0.102582
     41 H                     0.091750
     42 H                     0.088458
     43 H                     0.076157
     44 H                     0.070451
     45 H                     0.071770
     46 H                     0.085342
     47 H                     0.076106
     48 H                     0.088890
     49 H                     0.090081
     50 H                     0.092101
     51 H                     0.089602
     52 H                     0.091153
     53 H                     0.089558
     54 H                     0.090877
     55 H                     0.083389
     56 H                     0.084031
  ----------------------------------------
  Sum of atomic charges =     0.000000

                    Cartesian Multipole Moments
 -----------------------------------------------------------------
    Charge (ESU x 10^10)
                 0.0000
    Dipole Moment (Debye)
         X      -2.3797      Y       1.3702      Z       0.2761
       Tot       2.7598
    Quadrupole Moments (Debye-Ang)
        XX    -167.3526     XY       0.4344     YY    -153.4586
        XZ      16.8668     YZ      -1.7693     ZZ    -159.8157

 Total job time:  67.96s(wall), 3238.29s(cpu)
        *  Thank you very much for using Q-Chem.  Have a nice day.  *
