 Q-Chem 5.0, Q-Chem, Inc., Pleasanton, CA (2017)
 Q-Chem 5.0.1 for Intel X86 EM64T Linux

User input:
--------------------------------------------------------------
$molecule
0  1
O -5.9800922374 0.3950020169 -0.3197313903
C -4.770946971 0.3777046324 -0.6309099638
C -3.7916731687 -0.8489864202 -0.5905971409
C -2.3811864944 -0.526779719 0.0601285542
C -2.1581860217 0.9794160162 0.4456165203
O -1.2453456066 1.5294446683 -0.5141540705
C -0.6868221276 2.8206984294 -0.0498224383
C 0.7218569255 2.9372970626 -0.7307511705
O 1.7586671173 2.3870802354 0.1788062724
C 2.0761168825 1.0442616594 -0.2026281978
C 3.1773604601 0.4895978407 0.7595203689
C 3.6785257865 -0.9613183496 0.3679505635
C 3.0574557437 -1.525276152 -0.963417431
O 3.4733711106 -1.3619159347 -2.1294563032
O -4.0488815971 1.5155458849 -1.1181033377
O 1.9318566962 -2.3450393072 -0.6069102512
O 1.5338305912 0.4408184748 -1.1561362406
C 1.242748681 -2.8055561903 -1.8321755911
C 4.533621057 1.3172176009 0.6831650789
C 5.3909505041 0.9665745854 1.9617722507
C 5.8853892014 -0.4837739465 1.60490495
C 5.2315888614 -0.6900236171 0.1813420673
O 5.2704500033 0.6640113584 -0.4206080619
H 2.7688032676 0.5059811053 1.7868507565
H 3.4722637404 -1.6811037018 1.1793390648
H 4.3944308554 2.3972313933 0.4819892765
H 6.2334122955 1.6691155766 2.0625528227
H 4.791081601 0.9983278722 2.8853278729
H 6.9837342901 -0.5309271445 1.5353101924
H 5.5441063458 -1.2399449579 2.3299583556
H 5.7440895641 -1.416931278 -0.4777559247
O -2.5694126447 1.5877517714 1.4569749354
C -4.9075473426 2.721100371 -1.0890558923
C -4.3369669362 -1.9555831676 0.4013808165
C -3.529255556 -3.292448702 0.1644013858
C -2.1597832642 -2.9506008586 0.8615415863
C -2.4248883858 -1.4693639711 1.3391980185
O -3.8555186926 -1.481072613 1.7201837756
H -3.6720240697 -1.2347194705 -1.6201446476
H -1.5629284792 -0.8096695908 -0.6256664722
H -5.190391242 2.9882433158 -0.050249978
H -5.4405351264 -2.0489536428 0.4022953481
H -4.0326857102 -4.1407690974 0.6548751963
H -3.4145974695 -3.5214851692 -0.9071257424
H -1.9725258747 -3.6053685605 1.7275548859
H -1.3001330005 -3.0182609888 0.1758852146
H -1.8020701733 -1.1237965862 2.1867107185
H -5.8326470205 2.5774060851 -1.6836036145
H -4.3040315167 3.535682919 -1.5297319662
H 0.4285207925 -3.4740634406 -1.4958059716
H 1.9256457419 -3.363073276 -2.5053447372
H 0.8142085045 -1.949762546 -2.3935072109
H 0.7133868578 2.3751046464 -1.6884570128
H 0.9853837305 4.0007045357 -0.9032541012
H -0.6019418694 2.8485196012 1.0578726022
H -1.3415014378 3.662257798 -0.3693739227
$end

$rem
JOBTYPE                   OPT
METHOD                    B3LYP
DFT_D                     d3_op
BASIS                     STO-3G
GEOM_OPT_MAX_CYCLES       100
GEOM_OPT_TOL_GRADIENT     300
GEOM_OPT_TOL_DISPLACEMENT 1200
GEOM_OPT_TOL_ENERGY       100
SYMMETRY                  False
THRESH                    12
SCF_CONVERGENCE           8
MAX_SUB_FILE_NUM          128
MEM_STATIC                400
MEM_TOTAL                 4000
$end
--------------------------------------------------------------

   16   -1510.2843610477      5.28E-09 Convergence criterion met
 Total energy in the final basis set = -1510.28436105
   14   -1510.2838321701      2.57E-09 Convergence criterion met
 Total energy in the final basis set = -1510.28383217
   14   -1510.2864331557      2.70E-09 Convergence criterion met
 Total energy in the final basis set = -1510.28643316
   13   -1510.2873658909      5.70E-09 Convergence criterion met
 Total energy in the final basis set = -1510.28736589
   13   -1510.2886413934      5.02E-09 Convergence criterion met
 Total energy in the final basis set = -1510.28864139
   13   -1510.2902241657      9.09E-09 Convergence criterion met
 Total energy in the final basis set = -1510.29022417
   14   -1510.2919550161      8.81E-09 Convergence criterion met
 Total energy in the final basis set = -1510.29195502
   13   -1510.2924130469      8.73E-09 Convergence criterion met
   11   -1510.2991178980      9.96E-09 Convergence criterion met
 Total energy in the final basis set = -1510.29911790
   12   -1510.2991924111      3.72E-09 Convergence criterion met
 Total energy in the final basis set = -1510.29919241
   11   -1510.2991294203      9.14E-09 Convergence criterion met
 Total energy in the final basis set = -1510.29912942
   11   -1510.2992009825      9.00E-09 Convergence criterion met
 Total energy in the final basis set = -1510.29920098
   11   -1510.2991892482      5.16E-09 Convergence criterion met
 Total energy in the final basis set = -1510.29918925
   11   -1510.2991993420      2.94E-09 Convergence criterion met
 Total energy in the final basis set = -1510.29919934

             Standard Nuclear Orientation (Angstroms)
    I     Atom           X                Y                Z
 ----------------------------------------------------------------
    1      O      -5.0920682594     0.0846482499     0.7212565282
    2      C      -4.0544700921     0.1506995019     0.0291868368
    3      C      -2.9227922874    -0.9318778621    -0.0918520645
    4      C      -1.4538559420    -0.3650965055     0.1147675167
    5      C      -1.3696908764     1.1936497648     0.1995101668
    6      O      -0.9607072851     1.6680524849    -1.0981836077
    7      C      -0.7346143296     3.1293425402    -1.0670530459
    8      C       0.8133109293     3.3866739694    -1.1813252605
    9      O       1.5031196091     2.6015677010    -0.1291677790
   10      C       1.8146083518     1.2929269190    -0.6123343835
   11      C       2.3296794149     0.4327725823     0.5863049703
   12      C       2.5743731894    -1.0770474962     0.1856419274
   13      C       2.2277766506    -1.4289527294    -1.3092951122
   14      O       3.0277415710    -1.6442692721    -2.2419205281
   15      O      -3.7187455130     1.2642017476    -0.8072703348
   16      O       0.8037184682    -1.6683105332    -1.4115941123
   17      O       1.7244443093     0.9256427956    -1.8066625843
   18      C       0.4470637164    -1.9907860203    -2.8107226719
   19      C       3.7944312831     0.8703449839     1.0253980527
   20      C       4.1102065811     0.2112636660     2.4262971142
   21      C       4.3674898452    -1.2839433618     2.0071266951
   22      C       4.1332679705    -1.2074538371     0.4478256840
   23      O       4.6598536795     0.1290254586     0.0824459751
   24      H       1.6156150409     0.5313763235     1.4232152429
   25      H       1.9941268500    -1.7496247775     0.8404929810
   26      H       3.9805227745     1.9599724100     0.9602732528
   27      H       5.0081699311     0.6674757141     2.8725534451
   28      H       3.2710517631     0.3187226941     3.1320166756
   29      H       5.4020050365    -1.5927187120     2.2260707291
   30      H       3.6770302985    -1.9887352140     2.4973330307
   31      H       4.6291241311    -1.9928323073    -0.1546312280
   32      O      -1.5595758284     1.9340950844     1.1886864321
   33      C      -4.7185903122     2.3443078512    -0.6486642303
   34      C      -3.0344151616    -1.9438043073     1.1224255149
   35      C      -2.1137676032    -3.1927967988     0.8372655803
   36      C      -0.6847889597    -2.5830389531     1.0866104322
   37      C      -1.0560172361    -1.0952803878     1.4693823353
   38      O      -2.3303948416    -1.2246440067     2.2093451564
   39      H      -3.0178450103    -1.4365892349    -1.0711593922
   40      H      -0.7696420747    -0.6935677672    -0.6934419099
   41      H      -4.7200260543     2.7428795888     0.3866035612
   42      H      -4.0781669130    -2.1662098183     1.4186957389
   43      H      -2.3392040608    -4.0056258963     1.5457541703
   44      H      -2.2403812460    -3.5745692412    -0.1886286011
   45      H      -0.1681830493    -3.0869172773     1.9187634578
   46      H      -0.0510595142    -2.6042208238     0.1819985326
   47      H      -0.3086519581    -0.5571012289     2.0834545945
   48      H      -5.7415075991     1.9940012886    -0.8950911315
   49      H      -4.4184855957     3.1424488725    -1.3522108803
   50      H      -0.6235228969    -2.2663500908    -2.8002737933
   51      H       1.0494765668    -2.8364817086    -3.1992733591
   52      H       0.5984586053    -1.1118638005    -3.4700289179
   53      H       1.1804414071     3.0812468986    -2.1841293057
   54      H       1.0476013604     4.4541155601    -0.9947634605
   55      H      -1.1254018509     3.5296467335    -0.1061242019
   56      H      -1.2665372768     3.5891068781    -1.9255969629
 ----------------------------------------------------------------

    9   -1510.2991988680      3.37E-09 Convergence criterion met
 Total energy in the final basis set = -1510.29919887
 Final energy is   -1510.29919886799
 **  OPTIMIZATION CONVERGED  **

                    Orbital Energies (a.u.)
 --------------------------------------------------------------

 Alpha MOs
 -- Occupied --
-18.943 -18.937 -18.935 -18.927 -18.890 -18.889 -18.881 -18.878
-18.874 -18.871 -10.110 -10.101 -10.099 -10.096 -10.077 -10.069
-10.066 -10.064 -10.064 -10.060 -10.053 -10.052 -10.044 -10.039
-10.035 -10.023 -10.023 -10.022 -10.015 -10.007  -1.025  -1.014
 -1.008  -1.003  -0.973  -0.965  -0.948  -0.938  -0.935  -0.933
 -0.768  -0.758  -0.729  -0.721  -0.713  -0.704  -0.695  -0.663
 -0.662  -0.620  -0.599  -0.577  -0.549  -0.542  -0.540  -0.533
 -0.515  -0.506  -0.490  -0.475  -0.468  -0.461  -0.452  -0.446
 -0.435  -0.427  -0.425  -0.419  -0.415  -0.413  -0.410  -0.405
 -0.399  -0.381  -0.375  -0.369  -0.363  -0.359  -0.351  -0.349
 -0.345  -0.341  -0.340  -0.336  -0.329  -0.327  -0.324  -0.315
 -0.309  -0.307  -0.302  -0.301  -0.295  -0.285  -0.283  -0.277
 -0.269  -0.256  -0.253  -0.248  -0.243  -0.237  -0.227  -0.194
 -0.179  -0.178  -0.167  -0.161  -0.158  -0.152  -0.148  -0.147
 -0.139

          Ground-State Mulliken Net Atomic Charges

     Atom                 Charge (a.u.)
  ----------------------------------------
      1 O                    -0.208689
      2 C                     0.211771
      3 C                    -0.077826
      4 C                    -0.091452
      5 C                     0.210681
      6 O                    -0.172693
      7 C                    -0.056232
      8 C                    -0.051536
      9 O                    -0.171500
     10 C                     0.216197
     11 C                    -0.078929
     12 C                    -0.082883
     13 C                     0.220587
     14 O                    -0.209133
     15 O                    -0.170101
     16 O                    -0.177960
     17 O                    -0.203650
     18 C                    -0.127848
     19 C                     0.025736
     20 C                    -0.143607
     21 C                    -0.144125
     22 C                     0.025358
     23 O                    -0.188006
     24 H                     0.087384
     25 H                     0.085963
     26 H                     0.086601
     27 H                     0.079211
     28 H                     0.075045
     29 H                     0.078906
     30 H                     0.073665
     31 H                     0.089336
     32 O                    -0.218525
     33 C                    -0.128215
     34 C                     0.024009
     35 C                    -0.144588
     36 C                    -0.154428
     37 C                     0.023987
     38 O                    -0.190398
     39 H                     0.083087
     40 H                     0.104461
     41 H                     0.092512
     42 H                     0.088781
     43 H                     0.076095
     44 H                     0.070493
     45 H                     0.069232
     46 H                     0.087968
     47 H                     0.075700
     48 H                     0.090638
     49 H                     0.089214
     50 H                     0.086125
     51 H                     0.090824
     52 H                     0.096381
     53 H                     0.098938
     54 H                     0.090827
     55 H                     0.100839
     56 H                     0.085776
  ----------------------------------------
  Sum of atomic charges =    -0.000000

                    Cartesian Multipole Moments
 -----------------------------------------------------------------
    Charge (ESU x 10^10)
                -0.0000
    Dipole Moment (Debye)
         X      -0.1629      Y       0.3121      Z      -0.8143
       Tot       0.8872
    Quadrupole Moments (Debye-Ang)
        XX    -171.0242     XY      -2.0292     YY    -144.9169
        XZ      19.7066     YZ      -4.4449     ZZ    -164.8744

 Total job time:  101.88s(wall), 4853.32s(cpu)
        *  Thank you very much for using Q-Chem.  Have a nice day.  *
