 Q-Chem 5.0, Q-Chem, Inc., Pleasanton, CA (2017)
 Q-Chem 5.0.1 for Intel X86 EM64T Linux

User input:
--------------------------------------------------------------
$molecule
0  1
O -3.94934 -3.66094 2.70899
C -3.26408 -4.56952 2.26188
C -3.36658 -6.02376 2.66595
C -2.05157 -6.76965 2.94566
C -0.7919 -5.93239 2.96328
O -0.06247 -6.16773 1.83281
C 1.28486 -5.69249 1.92287
C 2.1974 -6.52715 1.03027
O 2.77011 -7.60496 1.78737
C 2.15507 -8.80573 1.6494
C 2.81 -9.89881 2.45989
C 2.20857 -11.29825 2.26464
C 1.30856 -11.46811 1.05723
O 1.6818 -11.76139 -0.06938
O -2.46802 -4.31186 1.19062
O -0.02607 -11.36517 1.29801
O 1.12373 -8.92575 1.00099
C -1.00394 -11.51106 0.33661
C 4.27893 -10.16166 2.06645
C 5.01366 -10.79964 3.24411
C 4.37797 -12.17482 3.26024
C 3.50817 -12.08753 1.99999
O 4.2205 -11.22329 1.14896
H 2.77639 -9.56845 3.52285
H 1.66777 -11.6811 3.15843
H 4.8191 -9.2517 1.72568
H 6.07996 -10.90448 2.93964
H 4.96227 -10.24221 4.20406
H 5.18218 -12.93393 3.13823
H 3.76587 -12.40578 4.15891
H 3.30439 -13.10552 1.59943
O -0.56531 -5.03274 3.76438
C -2.28203 -3.06134 0.64026
C -4.09133 -6.23449 4.01014
C -4.63621 -7.66128 4.09478
C -3.35656 -8.44227 4.31238
C -2.33675 -7.30149 4.35964
O -3.05025 -6.24446 4.9575
H -3.92806 -6.51881 1.84196
H -1.90646 -7.60167 2.2176
H -1.84471 -2.3737 1.39544
H -4.91207 -5.50636 4.1885
H -5.25511 -7.73619 5.0174
H -5.24203 -7.97448 3.21736
H -3.41014 -8.93419 5.30929
H -3.12007 -9.19745 3.53173
H -1.41171 -7.62909 4.8839
H -3.24942 -2.65455 0.27576
H -1.58216 -3.14214 -0.21657
H -1.99924 -11.37388 0.8069
H -0.95474 -12.52753 -0.10897
H -0.87565 -10.74529 -0.45813
H 1.74395 -6.8026 0.05098
H 3.064 -5.88038 0.77428
H 1.70154 -5.61199 2.95435
H 1.26401 -4.66924 1.48688
$end

$opt
CONSTRAINT
tors           1           2           3           4    -134.547
tors           3           4           5           6    -106.445
tors           4           5           6           7    -164.846
tors           5           6           7           8    +152.092
tors           6           7           8           9     -92.721
tors           7           8           9          10     +98.553
tors           8           9          10          11    +179.513
tors           9          10          11          12    -176.073
tors          11          12          13          14     +87.140
ENDCONSTRAINT
$end

$rem
JOBTYPE                   OPT
METHOD                    B3LYP
DFT_D                     d3_op
BASIS                     STO-3G
GEOM_OPT_MAX_CYCLES       100
GEOM_OPT_TOL_GRADIENT     300
GEOM_OPT_TOL_DISPLACEMENT 1200
GEOM_OPT_TOL_ENERGY       100
SYMMETRY                  False
THRESH                    12
SCF_CONVERGENCE           8
MAX_SUB_FILE_NUM          128
MEM_STATIC                400
MEM_TOTAL                 4000
$end
--------------------------------------------------------------

   15   -1510.1537866097      6.05E-09 Convergence criterion met
 Total energy in the final basis set = -1510.15378661
   14   -1510.2226487407      6.20E-09 Convergence criterion met
 Total energy in the final basis set = -1510.22264874
   14   -1510.2589645548      5.13E-09 Convergence criterion met
 Total energy in the final basis set = -1510.25896455
   14   -1510.2746017455      5.87E-09 Convergence criterion met
 Total energy in the final basis set = -1510.27460175
   14   -1510.2801579622      3.26E-09 Convergence criterion met
 Total energy in the final basis set = -1510.28015796
    2   -1510.2801579622      9.61E-10 Convergence criterion met
 Total energy in the final basis set = -1510.28015796
   14   -1510.2824830078      2.77E-09 Convergence criterion met
 Total energy in the final basis set = -1510.28248301
   13   -1510.2832878373      2.97E-09 Convergence criterion met
   11   -1510.2842690119      6.86E-09 Convergence criterion met
 Total energy in the final basis set = -1510.28426901
   11   -1510.2842989182      5.56E-09 Convergence criterion met
 Total energy in the final basis set = -1510.28429892
    9   -1510.2843154642      9.98E-09 Convergence criterion met
 Total energy in the final basis set = -1510.28431546
   11   -1510.2843249138      1.81E-09 Convergence criterion met
 Total energy in the final basis set = -1510.28432491
    9   -1510.2843285498      9.29E-09 Convergence criterion met
 Total energy in the final basis set = -1510.28432855
    9   -1510.2843298959      8.37E-09 Convergence criterion met
 Total energy in the final basis set = -1510.28432990

             Standard Nuclear Orientation (Angstroms)
    I     Atom           X                Y                Z
 ----------------------------------------------------------------
    1      O      -5.9800922374     0.3950020169    -0.3197313903
    2      C      -4.7709469710     0.3777046324    -0.6309099638
    3      C      -3.7916731687    -0.8489864202    -0.5905971409
    4      C      -2.3811864944    -0.5267797190     0.0601285542
    5      C      -2.1581860217     0.9794160162     0.4456165203
    6      O      -1.2453456066     1.5294446683    -0.5141540705
    7      C      -0.6868221276     2.8206984294    -0.0498224383
    8      C       0.7218569255     2.9372970626    -0.7307511705
    9      O       1.7586671173     2.3870802354     0.1788062724
   10      C       2.0761168825     1.0442616594    -0.2026281978
   11      C       3.1773604601     0.4895978407     0.7595203689
   12      C       3.6785257865    -0.9613183496     0.3679505635
   13      C       3.0574557437    -1.5252761520    -0.9634174310
   14      O       3.4733711106    -1.3619159347    -2.1294563032
   15      O      -4.0488815971     1.5155458849    -1.1181033377
   16      O       1.9318566962    -2.3450393072    -0.6069102512
   17      O       1.5338305912     0.4408184748    -1.1561362406
   18      C       1.2427486810    -2.8055561903    -1.8321755911
   19      C       4.5336210570     1.3172176009     0.6831650789
   20      C       5.3909505041     0.9665745854     1.9617722507
   21      C       5.8853892014    -0.4837739465     1.6049049500
   22      C       5.2315888614    -0.6900236171     0.1813420673
   23      O       5.2704500033     0.6640113584    -0.4206080619
   24      H       2.7688032676     0.5059811053     1.7868507565
   25      H       3.4722637404    -1.6811037018     1.1793390648
   26      H       4.3944308554     2.3972313933     0.4819892765
   27      H       6.2334122955     1.6691155766     2.0625528227
   28      H       4.7910816010     0.9983278722     2.8853278729
   29      H       6.9837342901    -0.5309271445     1.5353101924
   30      H       5.5441063458    -1.2399449579     2.3299583556
   31      H       5.7440895641    -1.4169312780    -0.4777559247
   32      O      -2.5694126447     1.5877517714     1.4569749354
   33      C      -4.9075473426     2.7211003710    -1.0890558923
   34      C      -4.3369669362    -1.9555831676     0.4013808165
   35      C      -3.5292555560    -3.2924487020     0.1644013858
   36      C      -2.1597832642    -2.9506008586     0.8615415863
   37      C      -2.4248883858    -1.4693639711     1.3391980185
   38      O      -3.8555186926    -1.4810726130     1.7201837756
   39      H      -3.6720240697    -1.2347194705    -1.6201446476
   40      H      -1.5629284792    -0.8096695908    -0.6256664722
   41      H      -5.1903912420     2.9882433158    -0.0502499780
   42      H      -5.4405351264    -2.0489536428     0.4022953481
   43      H      -4.0326857102    -4.1407690974     0.6548751963
   44      H      -3.4145974695    -3.5214851692    -0.9071257424
   45      H      -1.9725258747    -3.6053685605     1.7275548859
   46      H      -1.3001330005    -3.0182609888     0.1758852146
   47      H      -1.8020701733    -1.1237965862     2.1867107185
   48      H      -5.8326470205     2.5774060851    -1.6836036145
   49      H      -4.3040315167     3.5356829190    -1.5297319662
   50      H       0.4285207925    -3.4740634406    -1.4958059716
   51      H       1.9256457419    -3.3630732760    -2.5053447372
   52      H       0.8142085045    -1.9497625460    -2.3935072109
   53      H       0.7133868578     2.3751046464    -1.6884570128
   54      H       0.9853837305     4.0007045357    -0.9032541012
   55      H      -0.6019418694     2.8485196012     1.0578726022
   56      H      -1.3415014378     3.6622577980    -0.3693739227
 ----------------------------------------------------------------

    9   -1510.2843298204      3.25E-09 Convergence criterion met
 Total energy in the final basis set = -1510.28432982
 Final energy is   -1510.28432982037
 **  OPTIMIZATION CONVERGED  **

                    Orbital Energies (a.u.)
 --------------------------------------------------------------

 Alpha MOs
 -- Occupied --
-18.942 -18.939 -18.926 -18.921 -18.889 -18.888 -18.885 -18.880
-18.867 -18.861 -10.108 -10.102 -10.096 -10.090 -10.076 -10.073
-10.067 -10.062 -10.059 -10.058 -10.057 -10.057 -10.042 -10.038
-10.034 -10.033 -10.022 -10.020 -10.019 -10.018  -1.022  -1.016
 -1.004  -0.998  -0.971  -0.968  -0.946  -0.940  -0.931  -0.925
 -0.765  -0.762  -0.728  -0.722  -0.715  -0.705  -0.697  -0.664
 -0.657  -0.619  -0.597  -0.579  -0.547  -0.544  -0.538  -0.537
 -0.515  -0.510  -0.488  -0.474  -0.462  -0.455  -0.452  -0.449
 -0.434  -0.431  -0.429  -0.415  -0.413  -0.412  -0.405  -0.404
 -0.398  -0.380  -0.371  -0.368  -0.364  -0.354  -0.354  -0.349
 -0.345  -0.340  -0.334  -0.332  -0.330  -0.327  -0.326  -0.314
 -0.309  -0.306  -0.305  -0.301  -0.295  -0.285  -0.277  -0.275
 -0.272  -0.258  -0.252  -0.248  -0.246  -0.235  -0.232  -0.189
 -0.180  -0.169  -0.167  -0.161  -0.158  -0.146  -0.145  -0.142
 -0.141

          Ground-State Mulliken Net Atomic Charges

     Atom                 Charge (a.u.)
  ----------------------------------------
      1 O                    -0.207749
      2 C                     0.213528
      3 C                    -0.078178
      4 C                    -0.080401
      5 C                     0.212996
      6 O                    -0.173022
      7 C                    -0.050063
      8 C                    -0.052547
      9 O                    -0.172797
     10 C                     0.213724
     11 C                    -0.078342
     12 C                    -0.081560
     13 C                     0.214919
     14 O                    -0.215237
     15 O                    -0.168614
     16 O                    -0.176019
     17 O                    -0.204971
     18 C                    -0.128949
     19 C                     0.025212
     20 C                    -0.143392
     21 C                    -0.144471
     22 C                     0.025803
     23 O                    -0.187331
     24 H                     0.086358
     25 H                     0.084020
     26 H                     0.086874
     27 H                     0.078481
     28 H                     0.073589
     29 H                     0.078234
     30 H                     0.073460
     31 H                     0.086511
     32 O                    -0.220363
     33 C                    -0.127796
     34 C                     0.023942
     35 C                    -0.144500
     36 C                    -0.143551
     37 C                     0.025661
     38 O                    -0.187920
     39 H                     0.085510
     40 H                     0.088985
     41 H                     0.093296
     42 H                     0.090116
     43 H                     0.078058
     44 H                     0.072395
     45 H                     0.077772
     46 H                     0.074263
     47 H                     0.083923
     48 H                     0.091209
     49 H                     0.090031
     50 H                     0.082200
     51 H                     0.087909
     52 H                     0.091918
     53 H                     0.108755
     54 H                     0.088936
     55 H                     0.096002
     56 H                     0.083184
  ----------------------------------------
  Sum of atomic charges =     0.000000

                    Cartesian Multipole Moments
 -----------------------------------------------------------------
    Charge (ESU x 10^10)
                -0.0000
    Dipole Moment (Debye)
         X       0.9073      Y       0.1946      Z       0.2286
       Tot       0.9557
    Quadrupole Moments (Debye-Ang)
        XX    -173.1320     XY      -1.5078     YY    -144.5066
        XZ      22.1861     YZ      -1.7206     ZZ    -164.6377

 Total job time:  54.42s(wall), 2591.85s(cpu)
        *  Thank you very much for using Q-Chem.  Have a nice day.  *
