 Q-Chem 5.0, Q-Chem, Inc., Pleasanton, CA (2017)
 Q-Chem 5.0.1 for Intel X86 EM64T Linux

User input:
--------------------------------------------------------------
$molecule
0  1
O -5.5695777127 0.9732830173 1.0265105065
C -4.9058653952 0.6794814824 0.010755375
C -4.2157255197 -0.6895147052 -0.3275320661
C -2.6556419909 -0.659752422 -0.0167476578
C -2.143755977 0.7681669755 0.3706858703
O -1.3986031412 1.2751788109 -0.7417358142
C -0.8504868561 2.620552125 -0.4454548167
C 0.5331509603 2.7371770879 -1.1773372568
O 1.6408897278 2.3320476045 -0.2801536127
C 1.9632330169 0.9454741854 -0.4802090542
C 3.1444657273 0.6068896246 0.4923375746
C 3.7481637324 -0.8488763072 0.3917154489
C 3.5139180702 -1.5798482913 -0.9784031306
O 3.4630013198 -1.0887266419 -2.1248279792
O -4.5616304177 1.6122329642 -1.0236906004
O 3.3953753016 -2.9840964749 -0.7034498271
O 1.323967528 0.187014374 -1.2385135549
C 3.2096953511 -3.7283594823 -1.9703006481
C 4.4491674663 1.5081851725 0.3294141749
C 5.1428886844 1.5767771336 1.7446351346
C 5.6579318468 0.0958226279 1.8859675004
C 5.3008069637 -0.4968873479 0.4635478932
O 5.3856222625 0.6676191247 -0.4498481457
H 2.738208004 0.7556003535 1.5106466569
H 3.4169645678 -1.5044245436 1.2153982788
H 4.2778207651 2.4807046863 -0.171099955
H 5.9808977723 2.2920675783 1.7239818101
H 4.4449448101 1.8693145516 2.5451678614
H 6.7446326201 0.056081308 2.0608784307
H 5.1500959103 -0.4534839602 2.6952189521
H 5.9662371525 -1.3110672099 0.1160710238
O -2.319888901 1.3883570195 1.4423968418
C -5.0815036913 2.9561524242 -0.6837175653
C -4.6939651032 -1.8088549698 0.6853499368
C -4.1860776411 -3.2150763198 0.1731327399
C -2.6621543068 -3.152209732 0.5623644966
C -2.5689479237 -1.7014133197 1.17984163
O -3.8615322625 -1.5455614115 1.8826588169
H -4.4079417171 -0.9493311498 -1.3836601933
H -2.0750414983 -0.9963192826 -0.8935714841
H -4.6658453822 3.3192831621 0.2787549604
H -5.7684895706 -1.7543829353 0.9461977316
H -4.7060788047 -4.0294723619 0.7021168409
H -4.3418577378 -3.3417070585 -0.9102899347
H -2.4083657093 -3.9082707193 1.3224314444
H -1.9936035296 -3.2817990468 -0.3035428722
H -1.7255559683 -1.5329110163 1.8769194997
H -6.1884538346 2.9630246902 -0.6132727119
H -4.7601961797 3.6246330127 -1.5035625654
H 3.0821146185 -4.789282106 -1.6867059188
H 4.0903378793 -3.626749683 -2.6372213256
H 2.3123634479 -3.3784558359 -2.5201681557
H 0.5147976886 2.102274949 -2.0885425901
H 0.7269359999 3.7946640845 -1.4498731266
H -0.744762419 2.7623012784 0.6520481121
H -1.5503565926 3.3938465064 -0.8326939562
$end

$rem
JOBTYPE                   OPT
METHOD                    B3LYP
DFT_D                     d3_op
BASIS                     STO-3G
GEOM_OPT_MAX_CYCLES       100
GEOM_OPT_TOL_GRADIENT     300
GEOM_OPT_TOL_DISPLACEMENT 1200
GEOM_OPT_TOL_ENERGY       100
SYMMETRY                  False
THRESH                    12
SCF_CONVERGENCE           8
MAX_SUB_FILE_NUM          128
MEM_STATIC                400
MEM_TOTAL                 4000
$end
--------------------------------------------------------------

   16   -1510.2771382874      4.19E-09 Convergence criterion met
 Total energy in the final basis set = -1510.27713829
   13   -1510.2786676007      6.30E-09 Convergence criterion met
 Total energy in the final basis set = -1510.27866760
   13   -1510.2801439345      6.44E-09 Convergence criterion met
 Total energy in the final basis set = -1510.28014393
   14   -1510.2815736503      1.34E-09 Convergence criterion met
 Total energy in the final basis set = -1510.28157365
   14   -1510.2830617084      1.36E-09 Convergence criterion met
 Total energy in the final basis set = -1510.28306171
   14   -1510.2845458173      3.90E-09 Convergence criterion met
 Total energy in the final basis set = -1510.28454582
   14   -1510.2861252075      4.64E-09 Convergence criterion met
 Total energy in the final basis set = -1510.28612521
   15   -1510.2838853679      3.46E-09 Convergence criterion met
   11   -1510.3058578301      7.13E-09 Convergence criterion met
 Total energy in the final basis set = -1510.30585783
   12   -1510.3058789373      9.49E-09 Convergence criterion met
 Total energy in the final basis set = -1510.30587894
   12   -1510.3059014239      5.08E-09 Convergence criterion met
 Total energy in the final basis set = -1510.30590142
   12   -1510.3059072656      3.17E-09 Convergence criterion met
 Total energy in the final basis set = -1510.30590727
   12   -1510.3059085303      1.70E-09 Convergence criterion met
 Total energy in the final basis set = -1510.30590853
    9   -1510.3059116408      9.70E-09 Convergence criterion met
 Total energy in the final basis set = -1510.30591164

             Standard Nuclear Orientation (Angstroms)
    I     Atom           X                Y                Z
 ----------------------------------------------------------------
    1      O      -1.0623228423     1.2151472190     1.6701601313
    2      C      -2.2197950011     0.9246904940     1.2826063404
    3      C      -2.6909820278    -0.4305337409     0.6359893568
    4      C      -2.0822135378    -0.6459144295    -0.8100571080
    5      C      -1.6048356853     0.7054397483    -1.4395427500
    6      O      -0.9751130621     0.4717927274    -2.7019328238
    7      C      -0.6497851990     1.7690654310    -3.3518875180
    8      C       0.7901237317     2.2596459998    -2.9389783101
    9      O       0.9360157453     2.1243768099    -1.4719724495
   10      C       1.6630247015     0.9222238313    -1.1747048603
   11      C       1.5578415065     0.6151771354     0.3434362339
   12      C       2.1399682828    -0.8076464582     0.7167083858
   13      C       2.8036323112    -1.5713796424    -0.4849016480
   14      O       4.0200478070    -1.7086127710    -0.7278169874
   15      O      -3.3628867056     1.7561274653     1.4865808006
   16      O       1.7677995258    -2.2575866813    -1.2267674056
   17      O       2.2731749342     0.2564672700    -2.0443426451
   18      C       2.3467008636    -2.9192126113    -2.4133881131
   19      C       2.4761777431     1.5625876279     1.2332838616
   20      C       1.9472131598     1.4537959364     2.7164183332
   21      C       2.4792271328     0.0284749585     3.1189039124
   22      C       3.2249959196    -0.4091807545     1.7970748287
   23      O       3.7786649096     0.8617556073     1.2691883523
   24      H       0.4968676661     0.7081854511     0.6733738473
   25      H       1.3147713057    -1.4266289367     1.1208838814
   26      H       2.5927869621     2.5922962973     0.8429675691
   27      H       2.3882508001     2.2435987528     3.3450685633
   28      H       0.8475139284     1.5258558082     2.7533414036
   29      H       3.1858473061     0.0819951516     3.9624236713
   30      H       1.6653130506    -0.6663947740     3.3812049177
   31      H       4.0339136070    -1.1537125390     1.9263710255
   32      O      -1.8324430540     1.8437419389    -0.9661414158
   33      C      -2.9386283136     3.0637554848     2.0377098038
   34      C      -2.0263776997    -1.6418456432     1.4092174156
   35      C      -2.5907572773    -3.0050458380     0.8388836710
   36      C      -1.7646026740    -3.1497598444    -0.4944592562
   37      C      -0.9912545282    -1.7754706522    -0.5233947944
   38      O      -0.6388126011    -1.5908742523     0.9035824145
   39      H      -3.7942258715    -0.4633091473     0.6335850932
   40      H      -2.8530045154    -1.0509176209    -1.4920525653
   41      H      -2.2487543413     3.5828778088     1.3415800225
   42      H      -2.0424071122    -1.5461631556     2.5121824456
   43      H      -2.3877002384    -3.8323648410     1.5369910057
   44      H      -3.6766379173    -2.9530772989     0.6592718372
   45      H      -1.0458283822    -3.9824355375    -0.4314384115
   46      H      -2.4025216418    -3.2983258306    -1.3802547104
   47      H      -0.0506072216    -1.7661398316    -1.1231152708
   48      H      -2.4342869103     2.9498025461     3.0190986100
   49      H      -3.8623297310     3.6582447105     2.1614233687
   50      H       1.5084922556    -3.4309799400    -2.9215612103
   51      H       3.1198317514    -3.6630042461    -2.1311124816
   52      H       2.8026780415    -2.1786906006    -3.1021674218
   53      H       1.5682677964     1.6393809536    -3.4334464648
   54      H       0.9164189968     3.3287367511    -3.2039455195
   55      H      -1.4028093453     2.5295820110    -3.0573652813
   56      H      -0.6936791984     1.5899949138    -4.4453339545
 ----------------------------------------------------------------

    9   -1510.3059117641      9.85E-09 Convergence criterion met
 Total energy in the final basis set = -1510.30591176
 Final energy is   -1510.30591176406
 **  OPTIMIZATION CONVERGED  **

                    Orbital Energies (a.u.)
 --------------------------------------------------------------

 Alpha MOs
 -- Occupied --
-18.947 -18.935 -18.932 -18.915 -18.892 -18.889 -18.877 -18.871
-18.868 -18.854 -10.111 -10.103 -10.095 -10.081 -10.078 -10.070
-10.065 -10.062 -10.051 -10.050 -10.043 -10.041 -10.040 -10.040
-10.022 -10.019 -10.011 -10.008 -10.002  -9.997  -1.027  -1.011
 -1.008  -0.990  -0.975  -0.952  -0.948  -0.935  -0.934  -0.917
 -0.767  -0.745  -0.726  -0.719  -0.703  -0.700  -0.684  -0.662
 -0.648  -0.618  -0.593  -0.570  -0.548  -0.540  -0.529  -0.520
 -0.513  -0.498  -0.487  -0.474  -0.460  -0.457  -0.447  -0.438
 -0.431  -0.424  -0.418  -0.414  -0.410  -0.407  -0.400  -0.398
 -0.393  -0.382  -0.370  -0.366  -0.358  -0.355  -0.353  -0.344
 -0.341  -0.337  -0.330  -0.326  -0.321  -0.318  -0.316  -0.309
 -0.306  -0.304  -0.297  -0.288  -0.285  -0.281  -0.277  -0.263
 -0.263  -0.255  -0.251  -0.242  -0.235  -0.233  -0.213  -0.198
 -0.176  -0.170  -0.164  -0.159  -0.156  -0.151  -0.147  -0.132
 -0.126

          Ground-State Mulliken Net Atomic Charges

     Atom                 Charge (a.u.)
  ----------------------------------------
      1 O                    -0.223898
      2 C                     0.222445
      3 C                    -0.079868
      4 C                    -0.081524
      5 C                     0.212486
      6 O                    -0.168341
      7 C                    -0.052098
      8 C                    -0.056128
      9 O                    -0.171648
     10 C                     0.210250
     11 C                    -0.092535
     12 C                    -0.091854
     13 C                     0.216970
     14 O                    -0.216107
     15 O                    -0.166944
     16 O                    -0.180612
     17 O                    -0.212558
     18 C                    -0.127399
     19 C                     0.025398
     20 C                    -0.147903
     21 C                    -0.143943
     22 C                     0.024234
     23 O                    -0.192884
     24 H                     0.112610
     25 H                     0.104860
     26 H                     0.079554
     27 H                     0.070383
     28 H                     0.089188
     29 H                     0.072416
     30 H                     0.073162
     31 H                     0.082879
     32 O                    -0.206609
     33 C                    -0.127647
     34 C                     0.026430
     35 C                    -0.145314
     36 C                    -0.142694
     37 C                     0.012275
     38 O                    -0.193230
     39 H                     0.086463
     40 H                     0.086380
     41 H                     0.095537
     42 H                     0.082726
     43 H                     0.077965
     44 H                     0.073158
     45 H                     0.079152
     46 H                     0.072009
     47 H                     0.114533
     48 H                     0.087755
     49 H                     0.089462
     50 H                     0.083189
     51 H                     0.086568
     52 H                     0.092682
     53 H                     0.102302
     54 H                     0.089123
     55 H                     0.096389
     56 H                     0.090804
  ----------------------------------------
  Sum of atomic charges =    -0.000000

                    Cartesian Multipole Moments
 -----------------------------------------------------------------
    Charge (ESU x 10^10)
                -0.0000
    Dipole Moment (Debye)
         X      -4.8116      Y      -0.2227      Z      -1.0028
       Tot       4.9200
    Quadrupole Moments (Debye-Ang)
        XX    -172.9010     XY       2.2018     YY    -150.0674
        XZ       0.2374     YZ      -2.4758     ZZ    -147.2092

 Total job time:  230.10s(wall), 10957.38s(cpu)
        *  Thank you very much for using Q-Chem.  Have a nice day.  *
