 Q-Chem 5.0, Q-Chem, Inc., Pleasanton, CA (2017)
 Q-Chem 5.0.1 for Intel X86 EM64T Linux

User input:
--------------------------------------------------------------
$molecule
0  1
O -3.94934 -3.66094 2.70899
C -3.26408 -4.56952 2.26188
C -3.36658 -6.02376 2.66595
C -2.32914 -6.54822 3.67218
C -1.4151 -5.51779 4.29734
O -0.16234 -5.62416 3.76375
C 0.77049 -4.69605 4.3274
C 2.161 -5.31969 4.38797
O 2.36192 -5.94452 5.66551
C 2.07998 -7.27003 5.71712
C 2.32202 -7.87035 7.08156
C 2.10785 -9.38855 7.16805
C 2.03947 -10.12271 5.84403
O 2.66654 -9.82787 4.83685
O -2.23365 -4.26496 1.4308
O 1.09399 -11.09501 5.75912
O 1.34366 -7.77548 4.87796
C 0.83418 -11.82945 4.62107
C 3.7991 -7.76756 7.51834
C 3.89043 -7.85975 9.04069
C 3.55349 -9.32056 9.25334
C 3.45591 -9.7917 7.79774
O 4.37626 -8.9804 7.11141
H 1.69487 -7.30129 7.8045
H 1.25322 -9.70017 7.80895
H 4.3054 -6.84405 7.16201
H 4.95828 -7.69849 9.31318
H 3.25724 -7.13958 9.6022
H 4.41188 -9.80697 9.76783
H 2.61226 -9.51636 9.81129
H 3.63711 -10.88827 7.73456
O -1.8099 -4.58539 4.98932
C -1.92706 -2.98877 1.00816
C -4.65599 -6.30821 3.47599
C -5.01539 -7.79213 3.38998
C -3.94354 -8.3939 4.27337
C -3.24417 -7.12237 4.76289
O -4.27507 -6.16859 4.82297
H -3.42257 -6.61593 1.72507
H -1.69619 -7.33642 3.20291
H -1.68435 -2.34517 1.88073
H -5.52423 -5.69546 3.14772
H -6.00026 -7.92265 3.89339
H -5.0732 -8.20675 2.36066
H -4.43852 -8.91401 5.12353
H -3.23948 -9.08631 3.76295
H -2.69858 -7.31755 5.71286
H -2.78245 -2.55561 0.44688
H -1.04361 -3.02996 0.33864
H 0.01909 -12.55158 4.83228
H 1.74129 -12.39283 4.3142
H 0.51198 -11.15741 3.79698
H 2.42106 -5.94951 3.50657
H 2.88217 -4.47416 4.37585
H 0.49916 -4.22965 5.30253
H 0.83971 -3.87515 3.5801
$end

$opt
CONSTRAINT
tors           1           2           3           4    -100.153
tors           3           4           5           6    -106.445
tors           4           5           6           7    -178.796
tors           5           6           7           8    +146.179
tors           6           7           8           9     -92.721
tors           7           8           9          10     +94.400
tors           8           9          10          11    +179.513
tors           9          10          11          12    -176.073
tors          11          12          13          14     +33.820
ENDCONSTRAINT
$end

$rem
JOBTYPE                   OPT
METHOD                    B3LYP
DFT_D                     d3_op
BASIS                     STO-3G
GEOM_OPT_MAX_CYCLES       100
GEOM_OPT_TOL_GRADIENT     300
GEOM_OPT_TOL_DISPLACEMENT 1200
GEOM_OPT_TOL_ENERGY       100
SYMMETRY                  False
THRESH                    12
SCF_CONVERGENCE           8
MAX_SUB_FILE_NUM          128
MEM_STATIC                400
MEM_TOTAL                 4000
$end
--------------------------------------------------------------

   15   -1510.1388416194      7.03E-09 Convergence criterion met
 Total energy in the final basis set = -1510.13884162
   14   -1510.2095038748      6.84E-09 Convergence criterion met
 Total energy in the final basis set = -1510.20950387
   14   -1510.2476339416      6.58E-09 Convergence criterion met
 Total energy in the final basis set = -1510.24763394
   14   -1510.2651087609      2.01E-09 Convergence criterion met
 Total energy in the final basis set = -1510.26510876
   13   -1510.2717782284      9.71E-09 Convergence criterion met
 Total energy in the final basis set = -1510.27177823
   13   -1510.2747648338      4.64E-09 Convergence criterion met
 Total energy in the final basis set = -1510.27476483
   12   -1510.2760968723      9.28E-09 Convergence criterion met
 Total energy in the final basis set = -1510.27609687
   12   -1510.2764800175      7.18E-09 Convergence criterion met
   12   -1510.2771677018      3.96E-09 Convergence criterion met
 Total energy in the final basis set = -1510.27716770
   11   -1510.2772010231      7.64E-09 Convergence criterion met
 Total energy in the final basis set = -1510.27720102
   11   -1510.2772180425      3.52E-09 Convergence criterion met
 Total energy in the final basis set = -1510.27721804
   11   -1510.2772298271      2.22E-09 Convergence criterion met
 Total energy in the final basis set = -1510.27722983
   10   -1510.2772347172      4.56E-09 Convergence criterion met
 Total energy in the final basis set = -1510.27723472
    9   -1510.2772370708      6.07E-09 Convergence criterion met
 Total energy in the final basis set = -1510.27723707

             Standard Nuclear Orientation (Angstroms)
    I     Atom           X                Y                Z
 ----------------------------------------------------------------
    1      O      -5.5695777127     0.9732830173     1.0265105065
    2      C      -4.9058653952     0.6794814824     0.0107553750
    3      C      -4.2157255197    -0.6895147052    -0.3275320661
    4      C      -2.6556419909    -0.6597524220    -0.0167476578
    5      C      -2.1437559770     0.7681669755     0.3706858703
    6      O      -1.3986031412     1.2751788109    -0.7417358142
    7      C      -0.8504868561     2.6205521250    -0.4454548167
    8      C       0.5331509603     2.7371770879    -1.1773372568
    9      O       1.6408897278     2.3320476045    -0.2801536127
   10      C       1.9632330169     0.9454741854    -0.4802090542
   11      C       3.1444657273     0.6068896246     0.4923375746
   12      C       3.7481637324    -0.8488763072     0.3917154489
   13      C       3.5139180702    -1.5798482913    -0.9784031306
   14      O       3.4630013198    -1.0887266419    -2.1248279792
   15      O      -4.5616304177     1.6122329642    -1.0236906004
   16      O       3.3953753016    -2.9840964749    -0.7034498271
   17      O       1.3239675280     0.1870143740    -1.2385135549
   18      C       3.2096953511    -3.7283594823    -1.9703006481
   19      C       4.4491674663     1.5081851725     0.3294141749
   20      C       5.1428886844     1.5767771336     1.7446351346
   21      C       5.6579318468     0.0958226279     1.8859675004
   22      C       5.3008069637    -0.4968873479     0.4635478932
   23      O       5.3856222625     0.6676191247    -0.4498481457
   24      H       2.7382080040     0.7556003535     1.5106466569
   25      H       3.4169645678    -1.5044245436     1.2153982788
   26      H       4.2778207651     2.4807046863    -0.1710999550
   27      H       5.9808977723     2.2920675783     1.7239818101
   28      H       4.4449448101     1.8693145516     2.5451678614
   29      H       6.7446326201     0.0560813080     2.0608784307
   30      H       5.1500959103    -0.4534839602     2.6952189521
   31      H       5.9662371525    -1.3110672099     0.1160710238
   32      O      -2.3198889010     1.3883570195     1.4423968418
   33      C      -5.0815036913     2.9561524242    -0.6837175653
   34      C      -4.6939651032    -1.8088549698     0.6853499368
   35      C      -4.1860776411    -3.2150763198     0.1731327399
   36      C      -2.6621543068    -3.1522097320     0.5623644966
   37      C      -2.5689479237    -1.7014133197     1.1798416300
   38      O      -3.8615322625    -1.5455614115     1.8826588169
   39      H      -4.4079417171    -0.9493311498    -1.3836601933
   40      H      -2.0750414983    -0.9963192826    -0.8935714841
   41      H      -4.6658453822     3.3192831621     0.2787549604
   42      H      -5.7684895706    -1.7543829353     0.9461977316
   43      H      -4.7060788047    -4.0294723619     0.7021168409
   44      H      -4.3418577378    -3.3417070585    -0.9102899347
   45      H      -2.4083657093    -3.9082707193     1.3224314444
   46      H      -1.9936035296    -3.2817990468    -0.3035428722
   47      H      -1.7255559683    -1.5329110163     1.8769194997
   48      H      -6.1884538346     2.9630246902    -0.6132727119
   49      H      -4.7601961797     3.6246330127    -1.5035625654
   50      H       3.0821146185    -4.7892821060    -1.6867059188
   51      H       4.0903378793    -3.6267496830    -2.6372213256
   52      H       2.3123634479    -3.3784558359    -2.5201681557
   53      H       0.5147976886     2.1022749490    -2.0885425901
   54      H       0.7269359999     3.7946640845    -1.4498731266
   55      H      -0.7447624190     2.7623012784     0.6520481121
   56      H      -1.5503565926     3.3938465064    -0.8326939562
 ----------------------------------------------------------------

    9   -1510.2772374545      5.91E-09 Convergence criterion met
 Total energy in the final basis set = -1510.27723745
 Final energy is   -1510.27723745450
 **  OPTIMIZATION CONVERGED  **

                    Orbital Energies (a.u.)
 --------------------------------------------------------------

 Alpha MOs
 -- Occupied --
-18.932 -18.931 -18.931 -18.927 -18.889 -18.885 -18.880 -18.875
-18.872 -18.869 -10.101 -10.097 -10.096 -10.093 -10.074 -10.071
-10.063 -10.061 -10.061 -10.060 -10.058 -10.056 -10.039 -10.037
-10.036 -10.034 -10.022 -10.020 -10.018 -10.017  -1.016  -1.011
 -1.006  -1.003  -0.972  -0.967  -0.940  -0.934  -0.933  -0.928
 -0.764  -0.761  -0.727  -0.722  -0.716  -0.704  -0.695  -0.661
 -0.660  -0.618  -0.596  -0.578  -0.546  -0.544  -0.538  -0.535
 -0.515  -0.509  -0.483  -0.468  -0.462  -0.453  -0.450  -0.449
 -0.435  -0.431  -0.428  -0.414  -0.410  -0.409  -0.407  -0.404
 -0.397  -0.377  -0.368  -0.365  -0.361  -0.356  -0.352  -0.350
 -0.345  -0.341  -0.336  -0.331  -0.329  -0.327  -0.319  -0.314
 -0.307  -0.304  -0.303  -0.298  -0.293  -0.286  -0.278  -0.274
 -0.272  -0.256  -0.253  -0.249  -0.246  -0.235  -0.231  -0.186
 -0.176  -0.173  -0.167  -0.158  -0.156  -0.147  -0.145  -0.141
 -0.141

          Ground-State Mulliken Net Atomic Charges

     Atom                 Charge (a.u.)
  ----------------------------------------
      1 O                    -0.204569
      2 C                     0.208261
      3 C                    -0.077879
      4 C                    -0.079132
      5 C                     0.206544
      6 O                    -0.168034
      7 C                    -0.053321
      8 C                    -0.051862
      9 O                    -0.177394
     10 C                     0.211049
     11 C                    -0.079648
     12 C                    -0.079022
     13 C                     0.212189
     14 O                    -0.205807
     15 O                    -0.172976
     16 O                    -0.173561
     17 O                    -0.204468
     18 C                    -0.129151
     19 C                     0.026364
     20 C                    -0.141952
     21 C                    -0.145218
     22 C                     0.025264
     23 O                    -0.187950
     24 H                     0.085303
     25 H                     0.086471
     26 H                     0.088370
     27 H                     0.078249
     28 H                     0.074415
     29 H                     0.078408
     30 H                     0.074132
     31 H                     0.082547
     32 O                    -0.214943
     33 C                    -0.129763
     34 C                     0.025499
     35 C                    -0.144623
     36 C                    -0.143237
     37 C                     0.025992
     38 O                    -0.185154
     39 H                     0.085895
     40 H                     0.090369
     41 H                     0.091364
     42 H                     0.087220
     43 H                     0.077718
     44 H                     0.073060
     45 H                     0.077580
     46 H                     0.074635
     47 H                     0.083836
     48 H                     0.088606
     49 H                     0.088051
     50 H                     0.088010
     51 H                     0.087083
     52 H                     0.090819
     53 H                     0.105339
     54 H                     0.088162
     55 H                     0.099604
     56 H                     0.083258
  ----------------------------------------
  Sum of atomic charges =    -0.000000

                    Cartesian Multipole Moments
 -----------------------------------------------------------------
    Charge (ESU x 10^10)
                -0.0000
    Dipole Moment (Debye)
         X       0.8668      Y      -0.3228      Z      -0.6711
       Tot       1.1428
    Quadrupole Moments (Debye-Ang)
        XX    -162.7747     XY      -1.8709     YY    -142.8916
        XZ      21.3340     YZ      -0.4154     ZZ    -167.3038

 Total job time:  54.56s(wall), 2597.98s(cpu)
        *  Thank you very much for using Q-Chem.  Have a nice day.  *
