 Q-Chem 5.0, Q-Chem, Inc., Pleasanton, CA (2017)
 Q-Chem 5.0.1 for Intel X86 EM64T Linux

User input:
--------------------------------------------------------------
$molecule
0  1
O -6.224812023 -1.3844404182 0.9176937251
C -5.090166473 -1.0429467644 0.5185436773
C -4.2003138597 0.0922489218 1.1360612928
C -2.8372451246 0.4405468803 0.4029789405
C -2.5938247792 -0.2431605226 -0.995885193
O -1.6238024945 -1.2976765794 -0.8232935704
C -0.8205310515 -1.4712909633 -2.0556159088
C 0.6377742529 -1.8399481987 -1.6233958022
O 1.4355728703 -0.5913335896 -1.5289671455
C 2.2420585498 -0.5930900255 -0.3499527326
C 3.0737510281 0.7354741267 -0.2993611255
C 4.3568955054 0.6294795415 0.6256904783
C 4.5327484525 -0.7702817968 1.3191358357
O 5.1123768984 -1.7779052508 0.8610906329
O -4.3927715043 -1.7070611604 -0.5360814234
O 3.9783234296 -0.6813167704 2.6394439811
O 2.2512570189 -1.5173034923 0.4951208827
C 4.0254373753 -2.0097772781 3.2892605799
C 3.7360062942 1.0770235815 -1.7010918245
C 4.2375970004 2.5738536346 -1.6670692398
C 5.5238700943 2.4438431555 -0.7692642389
C 5.5063540222 0.9004959072 -0.4361344416
O 4.9858563475 0.2844970291 -1.6794427218
H 2.4020235257 1.5476301942 0.0361530007
H 4.3329082652 1.4013032793 1.4152220749
H 3.1088807801 0.8001247945 -2.5703035545
H 4.4851287963 2.9202221692 -2.6830877079
H 3.4839637189 3.2525576276 -1.2364146039
H 6.4353716925 2.7060712236 -1.3296831389
H 5.4753896496 3.0664824898 0.1382469695
H 6.4856618191 0.4578685859 -0.1703750973
O -2.9589790967 0.1848932449 -2.1118203409
C -5.2301924299 -2.7674707603 -1.138672697
C -4.9373148886 1.5029411147 1.1139745942
C -4.290615842 2.4055505543 2.2352242453
C -2.8931167122 2.7303160498 1.5882224111
C -3.0242593457 2.0047519686 0.1902312346
O -4.4628772202 2.1259638264 -0.1414415328
H -3.9981592813 -0.2069366895 2.1815062304
H -1.9748568359 0.2017850432 1.0495775699
H -6.1409672487 -2.3446607669 -1.6098732566
H -6.0428277065 1.4386247396 1.1304291331
H -4.8880675109 3.3192967826 2.3842053503
H -4.2047621995 1.8778631996 3.1985834907
H -2.751566537 3.8139098418 1.4497970757
H -2.050406836 2.3359257245 2.1780691146
H -2.4068023515 2.428971418 -0.6248909992
H -5.5369397542 -3.5192115002 -0.3829720232
H -4.6018458665 -3.2478069522 -1.910974644
H 3.6323052869 -1.8668699133 4.3126071888
H 5.0600951289 -2.4067158955 3.3395135583
H 3.3919796835 -2.7407645978 2.7459771501
H 0.6489881876 -2.3628047906 -0.6424634379
H 1.1056440163 -2.4969749028 -2.3883523063
H -0.8305315525 -0.5468137447 -2.6721900092
H -1.2401489415 -2.2963958875 -2.6743786882
$end

$rem
JOBTYPE                   OPT
METHOD                    B3LYP
DFT_D                     d3_op
BASIS                     STO-3G
GEOM_OPT_MAX_CYCLES       100
GEOM_OPT_TOL_GRADIENT     300
GEOM_OPT_TOL_DISPLACEMENT 1200
GEOM_OPT_TOL_ENERGY       100
SYMMETRY                  False
THRESH                    12
SCF_CONVERGENCE           8
MAX_SUB_FILE_NUM          128
MEM_STATIC                400
MEM_TOTAL                 4000
$end
--------------------------------------------------------------

   16   -1510.2750880218      5.39E-09 Convergence criterion met
 Total energy in the final basis set = -1510.27508802
   14   -1510.2787886646      6.09E-09 Convergence criterion met
 Total energy in the final basis set = -1510.27878866
   14   -1510.2809783774      5.49E-09 Convergence criterion met
 Total energy in the final basis set = -1510.28097838
   13   -1510.2823846056      9.78E-09 Convergence criterion met
 Total energy in the final basis set = -1510.28238461
   13   -1510.2832538225      5.38E-09 Convergence criterion met
 Total energy in the final basis set = -1510.28325382
   13   -1510.2841917223      7.54E-09 Convergence criterion met
 Total energy in the final basis set = -1510.28419172
   13   -1510.2851091648      8.65E-09 Convergence criterion met
 Total energy in the final basis set = -1510.28510916
   13   -1510.2860448180      8.75E-09 Convergence criterion met
   12   -1510.2991170722      5.69E-09 Convergence criterion met
 Total energy in the final basis set = -1510.29911707
   11   -1510.2991673839      6.66E-09 Convergence criterion met
 Total energy in the final basis set = -1510.29916738
   11   -1510.2991917775      5.60E-09 Convergence criterion met
 Total energy in the final basis set = -1510.29919178
   11   -1510.2992004669      4.93E-09 Convergence criterion met
 Total energy in the final basis set = -1510.29920047
   11   -1510.2991985752      2.48E-09 Convergence criterion met
 Total energy in the final basis set = -1510.29919858
    9   -1510.2991996228      5.16E-09 Convergence criterion met
 Total energy in the final basis set = -1510.29919962

             Standard Nuclear Orientation (Angstroms)
    I     Atom           X                Y                Z
 ----------------------------------------------------------------
    1      O      -5.1891627731     0.1370816434     0.2167142565
    2      C      -4.0483870173    -0.3293024533     0.4192825481
    3      C      -2.8490713428     0.3755359149     1.1493138170
    4      C      -1.4707967458     0.3029270917     0.3638046167
    5      C      -1.4835864749    -0.6337866709    -0.8868554880
    6      O      -0.9217275453    -1.8975723352    -0.4813615939
    7      C      -0.7609441040    -2.7891683305    -1.6503765974
    8      C       0.7779965324    -2.9239680154    -1.9508077893
    9      O       1.3609075239    -1.5646973387    -2.0622888663
   10      C       1.7740804200    -1.0954235859    -0.7770557805
   11      C       2.1979851982     0.4028572442    -0.9119632000
   12      C       2.5872020621     1.0448233983     0.4789080658
   13      C       2.3828926054     0.1007142370     1.7218723362
   14      O       3.2662197932    -0.4492775539     2.4096004602
   15      O      -3.6336393360    -1.6366310764     0.0061829174
   16      O       0.9814097865     0.1143606634     2.0841159036
   17      O       1.8345412688    -1.7951656564     0.2601291123
   18      C       0.7468000260    -0.7962755211     3.2262940427
   19      C       3.5759337435     0.5269434948    -1.6975065171
   20      C       3.8066452599     2.0441832137    -2.0698700043
   21      C       4.2261528372     2.6402571140    -0.6745333799
   22      C       4.1243375046     1.3600558808     0.2444778012
   23      O       4.5781133843     0.2624983910    -0.6420972730
   24      H       1.3894272078     0.9579518292    -1.4201065816
   25      H       2.0093488426     1.9695310817     0.6519412209
   26      H       3.6842230646    -0.1895841002    -2.5347552246
   27      H       4.6155113514     2.1392109126    -2.8115607283
   28      H       2.8962505130     2.5117687317    -2.4779290086
   29      H       5.2600101070     3.0204150594    -0.6932979917
   30      H       3.5572930967     3.4486481958    -0.3384001739
   31      H       4.7287101503     1.3792462192     1.1718331875
   32      O      -1.8425734616    -0.3703117836    -2.0550966658
   33      C      -4.7036904139    -2.2929024768    -0.7787026916
   34      C      -3.1040654344     1.9382834944     1.1727808082
   35      C      -2.0729350849     2.6154805329     2.1562686332
   36      C      -0.7488423125     2.5461147020     1.3094182067
   37      C      -1.2699617628     1.8356038310    -0.0030458738
   38      O      -2.6430887211     2.3602233359    -0.1707113245
   39      H      -2.7499964188    -0.0530477285     2.1639954368
   40      H      -0.6422091531    -0.0281254093     1.0232596087
   41      H      -4.9297701029    -1.7263388067    -1.7051461430
   42      H      -4.1676245022     2.2104974482     1.3190104855
   43      H      -2.3683710056     3.6555680276     2.3668753742
   44      H      -1.9931413946     2.0708121703     3.1107211496
   45      H      -0.3541614497     3.5497709210     1.0863978605
   46      H       0.0290230706     1.9360178572     1.8011967713
   47      H      -0.6742218766     2.0179972440    -0.9182784662
   48      H      -5.6376697223    -2.3981787608    -0.1900484147
   49      H      -4.3164258977    -3.2941149054    -1.0428961946
   50      H      -0.3115396258    -0.6611430061     3.5157921874
   51      H       1.4054715371    -0.5524216077     4.0840019744
   52      H       0.9193278056    -1.8513841143     2.9309045687
   53      H       1.2802047459    -3.4859951879    -1.1352519625
   54      H       0.9448735501    -3.4279392617    -2.9241576646
   55      H      -1.2890758292    -2.3371098634    -2.5182676651
   56      H      -1.1941332214    -3.7808638510    -1.4048756919
 ----------------------------------------------------------------

    9   -1510.2991994752      2.91E-09 Convergence criterion met
 Total energy in the final basis set = -1510.29919948
 Final energy is   -1510.29919947516
 **  OPTIMIZATION CONVERGED  **

                    Orbital Energies (a.u.)
 --------------------------------------------------------------

 Alpha MOs
 -- Occupied --
-18.943 -18.938 -18.935 -18.926 -18.890 -18.889 -18.881 -18.878
-18.875 -18.870 -10.110 -10.102 -10.099 -10.095 -10.077 -10.068
-10.066 -10.064 -10.064 -10.060 -10.053 -10.052 -10.044 -10.039
-10.035 -10.023 -10.022 -10.022 -10.015 -10.007  -1.025  -1.014
 -1.009  -1.002  -0.973  -0.964  -0.948  -0.938  -0.936  -0.932
 -0.768  -0.758  -0.729  -0.721  -0.714  -0.704  -0.695  -0.663
 -0.663  -0.620  -0.599  -0.577  -0.549  -0.542  -0.540  -0.533
 -0.515  -0.506  -0.490  -0.475  -0.469  -0.461  -0.453  -0.446
 -0.435  -0.427  -0.425  -0.419  -0.415  -0.413  -0.411  -0.405
 -0.399  -0.381  -0.375  -0.369  -0.363  -0.359  -0.351  -0.349
 -0.345  -0.341  -0.340  -0.335  -0.329  -0.326  -0.324  -0.315
 -0.309  -0.307  -0.303  -0.301  -0.295  -0.285  -0.283  -0.276
 -0.269  -0.257  -0.253  -0.248  -0.243  -0.237  -0.227  -0.193
 -0.179  -0.178  -0.167  -0.161  -0.158  -0.153  -0.148  -0.147
 -0.139

          Ground-State Mulliken Net Atomic Charges

     Atom                 Charge (a.u.)
  ----------------------------------------
      1 O                    -0.208872
      2 C                     0.211917
      3 C                    -0.077676
      4 C                    -0.093212
      5 C                     0.211050
      6 O                    -0.173056
      7 C                    -0.056373
      8 C                    -0.051476
      9 O                    -0.171567
     10 C                     0.216807
     11 C                    -0.078719
     12 C                    -0.082756
     13 C                     0.220925
     14 O                    -0.208853
     15 O                    -0.169587
     16 O                    -0.178179
     17 O                    -0.203779
     18 C                    -0.127712
     19 C                     0.025638
     20 C                    -0.143820
     21 C                    -0.143855
     22 C                     0.025125
     23 O                    -0.188520
     24 H                     0.087412
     25 H                     0.085494
     26 H                     0.086829
     27 H                     0.079235
     28 H                     0.074932
     29 H                     0.078889
     30 H                     0.073567
     31 H                     0.089715
     32 O                    -0.219119
     33 C                    -0.128054
     34 C                     0.023862
     35 C                    -0.144482
     36 C                    -0.153231
     37 C                     0.023761
     38 O                    -0.190524
     39 H                     0.082552
     40 H                     0.105549
     41 H                     0.092851
     42 H                     0.088819
     43 H                     0.076184
     44 H                     0.070581
     45 H                     0.069797
     46 H                     0.086271
     47 H                     0.076452
     48 H                     0.090376
     49 H                     0.089312
     50 H                     0.085999
     51 H                     0.091011
     52 H                     0.096853
     53 H                     0.098637
     54 H                     0.090808
     55 H                     0.100799
     56 H                     0.085411
  ----------------------------------------
  Sum of atomic charges =     0.000000

                    Cartesian Multipole Moments
 -----------------------------------------------------------------
    Charge (ESU x 10^10)
                -0.0000
    Dipole Moment (Debye)
         X       0.0994      Y      -0.7208      Z       0.2193
       Tot       0.7599
    Quadrupole Moments (Debye-Ang)
        XX    -175.6516     XY      16.3668     YY    -150.3082
        XZ      -9.5113     YZ       8.0546     ZZ    -155.3399

 Total job time:  122.95s(wall), 5862.87s(cpu)
        *  Thank you very much for using Q-Chem.  Have a nice day.  *
