 Q-Chem 5.0, Q-Chem, Inc., Pleasanton, CA (2017)
 Q-Chem 5.0.1 for Intel X86 EM64T Linux

User input:
--------------------------------------------------------------
$molecule
0  1
O -3.94934 -3.66094 2.70899
C -3.26408 -4.56952 2.26188
C -3.36658 -6.02376 2.66595
C -2.33601 -6.99409 2.06575
C -1.20984 -6.37372 1.2689
O -1.42049 -6.57409 -0.06561
C -0.20698 -6.68553 -0.81675
C -0.37769 -7.69864 -1.94396
O 0.0462 -8.998 -1.50251
C -0.76669 -10.0261 -1.85089
C -0.2616 -11.36505 -1.36843
C -0.81703 -12.57847 -2.12828
C -1.49167 -12.27732 -3.45149
O -0.92735 -12.19876 -4.53313
O -2.45118 -4.20517 1.23527
O -2.84137 -12.12295 -3.40669
O -1.94674 -9.85557 -2.13195
C -3.62992 -11.85443 -4.50581
C 1.25772 -11.58449 -1.56596
C 1.75506 -12.63344 -0.57229
C 1.12716 -13.88554 -1.14678
C 0.5056 -13.31485 -2.42665
O 1.36612 -12.26393 -2.78974
H -0.48587 -11.40721 -0.27867
H -1.50646 -13.211 -1.52629
H 1.86864 -10.66174 -1.46803
H 2.85971 -12.70111 -0.69876
H 1.5227 -12.43253 0.49566
H 1.93965 -14.60657 -1.38765
H 0.36156 -14.37219 -0.50442
H 0.37469 -14.11979 -3.1838
O -0.27845 -5.72887 1.73886
C -2.30142 -2.92339 0.74414
C -3.05626 -6.21336 4.16614
C -3.68831 -7.51109 4.66913
C -2.78549 -8.53709 4.01602
C -1.75969 -7.61713 3.34619
O -1.68155 -6.51072 4.21127
H -4.41688 -6.33408 2.46723
H -2.84311 -7.75014 1.42275
H -1.92111 -2.25056 1.54212
H -3.39158 -5.35913 4.79454
H -3.52814 -7.55101 5.77051
H -4.77234 -7.6236 4.45217
H -2.29963 -9.1384 4.81642
H -3.2818 -9.2102 3.2838
H -0.80861 -8.16338 3.15889
H -3.27243 -2.54358 0.36079
H -1.5697 -2.93817 -0.08951
H -4.68866 -11.77785 -4.18385
H -3.54056 -12.6739 -5.25068
H -3.32586 -10.89095 -4.96808
H -1.3723 -7.61717 -2.43684
H 0.36948 -7.41334 -2.71637
H 0.72268 -6.87024 -0.22861
H -0.08849 -5.69721 -1.31327
$end

$opt
CONSTRAINT
tors           1           2           3           4    -175.268
tors           3           4           5           6    -105.090
tors           4           5           6           7    -149.101
tors           5           6           7           8    +144.346
tors           6           7           8           9     -92.721
tors           7           8           9          10    +136.334
tors           8           9          10          11    +179.513
tors           9          10          11          12    -158.811
tors          11          12          13          14     +87.440
ENDCONSTRAINT
$end

$rem
JOBTYPE                   OPT
METHOD                    B3LYP
DFT_D                     d3_op
BASIS                     STO-3G
GEOM_OPT_MAX_CYCLES       100
GEOM_OPT_TOL_GRADIENT     300
GEOM_OPT_TOL_DISPLACEMENT 1200
GEOM_OPT_TOL_ENERGY       100
SYMMETRY                  False
THRESH                    12
SCF_CONVERGENCE           8
MAX_SUB_FILE_NUM          128
MEM_STATIC                400
MEM_TOTAL                 4000
$end
--------------------------------------------------------------

   15   -1510.1321349645      6.75E-09 Convergence criterion met
 Total energy in the final basis set = -1510.13213496
   13   -1510.2033704936      5.13E-09 Convergence criterion met
 Total energy in the final basis set = -1510.20337049
   14   -1510.2416504227      1.52E-09 Convergence criterion met
 Total energy in the final basis set = -1510.24165042
    2   -1510.2416504226      2.19E-09 Convergence criterion met
 Total energy in the final basis set = -1510.24165042
   14   -1510.2594845556      5.13E-09 Convergence criterion met
 Total energy in the final basis set = -1510.25948456
   13   -1510.2669952676      5.21E-09 Convergence criterion met
 Total energy in the final basis set = -1510.26699527
   14   -1510.2709294597      2.89E-09 Convergence criterion met
 Total energy in the final basis set = -1510.27092946
   13   -1510.2731814428      2.91E-09 Convergence criterion met
   12   -1510.2751850105      2.78E-09 Convergence criterion met
 Total energy in the final basis set = -1510.27518501
   11   -1510.2752243581      7.88E-09 Convergence criterion met
 Total energy in the final basis set = -1510.27522436
   10   -1510.2752351916      8.67E-09 Convergence criterion met
 Total energy in the final basis set = -1510.27523519
   10   -1510.2752531001      9.00E-09 Convergence criterion met
 Total energy in the final basis set = -1510.27525310
    9   -1510.2752619181      8.70E-09 Convergence criterion met
 Total energy in the final basis set = -1510.27526192
    9   -1510.2752657318      5.23E-09 Convergence criterion met
 Total energy in the final basis set = -1510.27526573

             Standard Nuclear Orientation (Angstroms)
    I     Atom           X                Y                Z
 ----------------------------------------------------------------
    1      O      -6.2248120230    -1.3844404182     0.9176937251
    2      C      -5.0901664730    -1.0429467644     0.5185436773
    3      C      -4.2003138597     0.0922489218     1.1360612928
    4      C      -2.8372451246     0.4405468803     0.4029789405
    5      C      -2.5938247792    -0.2431605226    -0.9958851930
    6      O      -1.6238024945    -1.2976765794    -0.8232935704
    7      C      -0.8205310515    -1.4712909633    -2.0556159088
    8      C       0.6377742529    -1.8399481987    -1.6233958022
    9      O       1.4355728703    -0.5913335896    -1.5289671455
   10      C       2.2420585498    -0.5930900255    -0.3499527326
   11      C       3.0737510281     0.7354741267    -0.2993611255
   12      C       4.3568955054     0.6294795415     0.6256904783
   13      C       4.5327484525    -0.7702817968     1.3191358357
   14      O       5.1123768984    -1.7779052508     0.8610906329
   15      O      -4.3927715043    -1.7070611604    -0.5360814234
   16      O       3.9783234296    -0.6813167704     2.6394439811
   17      O       2.2512570189    -1.5173034923     0.4951208827
   18      C       4.0254373753    -2.0097772781     3.2892605799
   19      C       3.7360062942     1.0770235815    -1.7010918245
   20      C       4.2375970004     2.5738536346    -1.6670692398
   21      C       5.5238700943     2.4438431555    -0.7692642389
   22      C       5.5063540222     0.9004959072    -0.4361344416
   23      O       4.9858563475     0.2844970291    -1.6794427218
   24      H       2.4020235257     1.5476301942     0.0361530007
   25      H       4.3329082652     1.4013032793     1.4152220749
   26      H       3.1088807801     0.8001247945    -2.5703035545
   27      H       4.4851287963     2.9202221692    -2.6830877079
   28      H       3.4839637189     3.2525576276    -1.2364146039
   29      H       6.4353716925     2.7060712236    -1.3296831389
   30      H       5.4753896496     3.0664824898     0.1382469695
   31      H       6.4856618191     0.4578685859    -0.1703750973
   32      O      -2.9589790967     0.1848932449    -2.1118203409
   33      C      -5.2301924299    -2.7674707603    -1.1386726970
   34      C      -4.9373148886     1.5029411147     1.1139745942
   35      C      -4.2906158420     2.4055505543     2.2352242453
   36      C      -2.8931167122     2.7303160498     1.5882224111
   37      C      -3.0242593457     2.0047519686     0.1902312346
   38      O      -4.4628772202     2.1259638264    -0.1414415328
   39      H      -3.9981592813    -0.2069366895     2.1815062304
   40      H      -1.9748568359     0.2017850432     1.0495775699
   41      H      -6.1409672487    -2.3446607669    -1.6098732566
   42      H      -6.0428277065     1.4386247396     1.1304291331
   43      H      -4.8880675109     3.3192967826     2.3842053503
   44      H      -4.2047621995     1.8778631996     3.1985834907
   45      H      -2.7515665370     3.8139098418     1.4497970757
   46      H      -2.0504068360     2.3359257245     2.1780691146
   47      H      -2.4068023515     2.4289714180    -0.6248909992
   48      H      -5.5369397542    -3.5192115002    -0.3829720232
   49      H      -4.6018458665    -3.2478069522    -1.9109746440
   50      H       3.6323052869    -1.8668699133     4.3126071888
   51      H       5.0600951289    -2.4067158955     3.3395135583
   52      H       3.3919796835    -2.7407645978     2.7459771501
   53      H       0.6489881876    -2.3628047906    -0.6424634379
   54      H       1.1056440163    -2.4969749028    -2.3883523063
   55      H      -0.8305315525    -0.5468137447    -2.6721900092
   56      H      -1.2401489415    -2.2963958875    -2.6743786882
 ----------------------------------------------------------------

    9   -1510.2752674753      4.90E-09 Convergence criterion met
 Total energy in the final basis set = -1510.27526748
 Final energy is   -1510.27526747527
 **  OPTIMIZATION CONVERGED  **

                    Orbital Energies (a.u.)
 --------------------------------------------------------------

 Alpha MOs
 -- Occupied --
-18.947 -18.941 -18.921 -18.917 -18.890 -18.887 -18.886 -18.878
-18.865 -18.860 -10.108 -10.105 -10.097 -10.090 -10.074 -10.072
-10.071 -10.061 -10.061 -10.059 -10.058 -10.054 -10.042 -10.041
-10.036 -10.033 -10.022 -10.021 -10.021 -10.019  -1.021  -1.019
 -1.001  -0.998  -0.972  -0.970  -0.945  -0.941  -0.927  -0.924
 -0.765  -0.763  -0.728  -0.723  -0.715  -0.706  -0.697  -0.667
 -0.654  -0.617  -0.599  -0.578  -0.547  -0.545  -0.539  -0.537
 -0.515  -0.513  -0.489  -0.478  -0.464  -0.456  -0.453  -0.448
 -0.433  -0.432  -0.426  -0.416  -0.414  -0.412  -0.403  -0.402
 -0.400  -0.385  -0.370  -0.369  -0.361  -0.358  -0.353  -0.348
 -0.346  -0.335  -0.333  -0.332  -0.330  -0.326  -0.323  -0.315
 -0.314  -0.308  -0.306  -0.301  -0.299  -0.294  -0.277  -0.273
 -0.273  -0.257  -0.250  -0.244  -0.237  -0.236  -0.234  -0.186
 -0.183  -0.167  -0.165  -0.162  -0.158  -0.147  -0.144  -0.144
 -0.141

          Ground-State Mulliken Net Atomic Charges

     Atom                 Charge (a.u.)
  ----------------------------------------
      1 O                    -0.213505
      2 C                     0.212259
      3 C                    -0.079164
      4 C                    -0.080086
      5 C                     0.220566
      6 O                    -0.182173
      7 C                    -0.049124
      8 C                    -0.053179
      9 O                    -0.173571
     10 C                     0.215046
     11 C                    -0.077449
     12 C                    -0.081469
     13 C                     0.213160
     14 O                    -0.216919
     15 O                    -0.163787
     16 O                    -0.173133
     17 O                    -0.209787
     18 C                    -0.128188
     19 C                     0.023711
     20 C                    -0.144059
     21 C                    -0.144114
     22 C                     0.025381
     23 O                    -0.188605
     24 H                     0.085095
     25 H                     0.083872
     26 H                     0.089906
     27 H                     0.078268
     28 H                     0.072556
     29 H                     0.078062
     30 H                     0.073239
     31 H                     0.086386
     32 O                    -0.217346
     33 C                    -0.124525
     34 C                     0.025127
     35 C                    -0.142925
     36 C                    -0.145008
     37 C                     0.026061
     38 O                    -0.186496
     39 H                     0.085967
     40 H                     0.084875
     41 H                     0.092965
     42 H                     0.087653
     43 H                     0.078684
     44 H                     0.074045
     45 H                     0.078003
     46 H                     0.073273
     47 H                     0.084858
     48 H                     0.092364
     49 H                     0.094190
     50 H                     0.085935
     51 H                     0.086804
     52 H                     0.092404
     53 H                     0.107396
     54 H                     0.087229
     55 H                     0.096878
     56 H                     0.082398
  ----------------------------------------
  Sum of atomic charges =    -0.000000

                    Cartesian Multipole Moments
 -----------------------------------------------------------------
    Charge (ESU x 10^10)
                -0.0000
    Dipole Moment (Debye)
         X       0.1523      Y       1.0711      Z       1.3749
       Tot       1.7495
    Quadrupole Moments (Debye-Ang)
        XX    -177.8923     XY      14.7042     YY    -152.9776
        XZ       0.9123     YZ       5.7089     ZZ    -156.6253

 Total job time:  53.41s(wall), 2541.45s(cpu)
        *  Thank you very much for using Q-Chem.  Have a nice day.  *
