 Q-Chem 5.0, Q-Chem, Inc., Pleasanton, CA (2017)
 Q-Chem 5.0.1 for Intel X86 EM64T Linux

User input:
--------------------------------------------------------------
$molecule
0  1
O -3.94934 -3.66094 2.70899
C -3.26408 -4.56952 2.26188
C -3.36658 -6.02376 2.66595
C -2.08915 -6.87319 2.56349
C -0.811 -6.1325 2.23825
O -0.30411 -6.58058 1.05178
C 0.97489 -6.01937 0.73802
C 1.95619 -7.12491 0.36255
O 2.68389 -7.54923 1.52585
C 2.46898 -8.83117 1.91263
C 3.27013 -9.2199 3.13235
C 3.13416 -10.69011 3.55456
C 2.527 -11.62024 2.52358
O 3.14801 -12.41591 1.83379
O -2.54369 -4.31529 1.13636
O 1.16692 -11.68831 2.519
O 1.65074 -9.53677 1.34318
C 0.43121 -12.53358 1.71449
C 4.79438 -9.11497 2.92062
C 5.48337 -8.93616 4.27171
C 5.27932 -10.31057 4.87369
C 4.63551 -11.03556 3.68487
O 5.19323 -10.41047 2.55561
H 2.96833 -8.51994 3.94421
H 2.60373 -10.84712 4.51956
H 5.09428 -8.29913 2.22747
H 6.56867 -8.79601 4.06388
H 5.11825 -8.08851 4.89063
H 6.27785 -10.74064 5.1103
H 4.62472 -10.3449 5.77141
H 4.80932 -12.13134 3.76928
O -0.35112 -5.22224 2.91956
C -2.39438 -3.06851 0.56587
C -3.6581 -6.18169 4.17587
C -4.28509 -7.5494 4.44882
C -3.08448 -8.45309 4.26378
C -1.9928 -7.41241 3.99885
O -2.38881 -6.30485 4.76993
H -4.21613 -6.44981 2.08691
H -2.22307 -7.69748 1.82516
H -1.90777 -2.37615 1.28577
H -4.31268 -5.38218 4.58626
H -4.58074 -7.57298 5.52227
H -5.16765 -7.79402 3.81947
H -2.88612 -8.9765 5.22564
H -3.16866 -9.19437 3.43982
H -0.98864 -7.83535 4.22546
H -3.38338 -2.6633 0.26304
H -1.75237 -3.15601 -0.33452
H -0.64863 -12.37683 1.91419
H 0.68644 -13.59191 1.93574
H 0.63278 -12.31397 0.64419
H 1.45519 -7.90684 -0.25078
H 2.72464 -6.67778 -0.30421
H 1.43683 -5.31622 1.46717
H 0.80243 -5.43145 -0.18948
$end

$opt
CONSTRAINT
tors           1           2           3           4    -151.270
tors           3           4           5           6    -118.062
tors           4           5           6           7    -174.292
tors           5           6           7           8    +130.010
tors           6           7           8           9     -92.721
tors           7           8           9          10    +115.581
tors           8           9          10          11    +179.513
tors           9          10          11          12    -176.073
tors          11          12          13          14    +103.422
ENDCONSTRAINT
$end

$rem
JOBTYPE                   OPT
METHOD                    B3LYP
DFT_D                     d3_op
BASIS                     STO-3G
GEOM_OPT_MAX_CYCLES       100
GEOM_OPT_TOL_GRADIENT     300
GEOM_OPT_TOL_DISPLACEMENT 1200
GEOM_OPT_TOL_ENERGY       100
SYMMETRY                  False
THRESH                    12
SCF_CONVERGENCE           8
MAX_SUB_FILE_NUM          128
MEM_STATIC                400
MEM_TOTAL                 4000
$end
--------------------------------------------------------------

   15   -1510.1509463370      5.75E-09 Convergence criterion met
 Total energy in the final basis set = -1510.15094634
   14   -1510.2205616307      6.31E-09 Convergence criterion met
 Total energy in the final basis set = -1510.22056163
   14   -1510.2573620992      5.62E-09 Convergence criterion met
 Total energy in the final basis set = -1510.25736210
   14   -1510.2733623933      6.31E-09 Convergence criterion met
 Total energy in the final basis set = -1510.27336239
   14   -1510.2795717465      4.09E-09 Convergence criterion met
 Total energy in the final basis set = -1510.27957175
   13   -1510.2825280497      5.41E-09 Convergence criterion met
 Total energy in the final basis set = -1510.28252805
   13   -1510.2841117090      2.99E-09 Convergence criterion met
 Total energy in the final basis set = -1510.28411171
   12   -1510.2847533290      7.59E-09 Convergence criterion met
   11   -1510.2858745620      5.51E-09 Convergence criterion met
 Total energy in the final basis set = -1510.28587456
   11   -1510.2859024351      5.54E-09 Convergence criterion met
 Total energy in the final basis set = -1510.28590244
   11   -1510.2859197868      2.15E-09 Convergence criterion met
 Total energy in the final basis set = -1510.28591979
    9   -1510.2859273219      8.40E-09 Convergence criterion met
 Total energy in the final basis set = -1510.28592732
   10   -1510.2859358978      6.63E-09 Convergence criterion met
 Total energy in the final basis set = -1510.28593590
    9   -1510.2859383577      6.49E-09 Convergence criterion met
 Total energy in the final basis set = -1510.28593836

             Standard Nuclear Orientation (Angstroms)
    I     Atom           X                Y                Z
 ----------------------------------------------------------------
    1      O      -6.1557291260     0.3867344024     0.3334412505
    2      C      -5.0238298241     0.3227222796    -0.1906769079
    3      C      -4.1335141530    -0.9566297108    -0.3671115494
    4      C      -2.5700433969    -0.7018350325    -0.3848758131
    5      C      -2.1392269716     0.7716908919    -0.0585796816
    6      O      -1.4608089960     1.2863440229    -1.2151648745
    7      C      -0.9007781990     2.6307310952    -0.9377304711
    8      C       0.5994832855     2.6069263776    -1.3888635984
    9      O       1.4395266323     2.2396865620    -0.2197982181
   10      C       2.0883426208     0.9875248287    -0.4494545447
   11      C       2.9704775817     0.6434067790     0.7959275526
   12      C       3.8146173142    -0.6817468508     0.6058579003
   13      C       3.4940039396    -1.4778876960    -0.7130632646
   14      O       4.1697343042    -1.5257092309    -1.7618725431
   15      O      -4.3790851476     1.4238906876    -0.8426490320
   16      O       2.3128451666    -2.2582542553    -0.4636900463
   17      O       1.9580033864     0.3108514782    -1.4957628730
   18      C       1.9022301756    -2.9565006100    -1.7009690203
   19      C       4.1343545902     1.7131929258     0.9677892099
   20      C       4.8156817447     1.4981475979     2.3770441588
   21      C       5.6878860997     0.2166952179     2.1036760537
   22      C       5.2914148390    -0.1036577271     0.6100018494
   23      O       5.1506085790     1.2409708039     0.0011382611
   24      H       2.3212501398     0.5991251332     1.6891755666
   25      H       3.6457808966    -1.3635268173     1.4583925096
   26      H       3.8258743478     2.7523827707     0.7411148081
   27      H       5.4395445080     2.3669195366     2.6403924348
   28      H       4.0711723401     1.3432275775     3.1743187848
   29      H       6.7644115247     0.4393932450     2.1763802193
   30      H       5.4514765651    -0.6149788654     2.7863756935
   31      H       6.0174405969    -0.7108630938     0.0355358289
   32      O      -2.2298980568     1.3782386079     1.0312516528
   33      C      -5.1639349864     2.6653388985    -0.6600482855
   34      C      -4.2730528029    -1.9608852018     0.8545416855
   35      C      -3.7952859854    -3.3863906143     0.3736719540
   36      C      -2.2384384357    -3.1678746796     0.2874958293
   37      C      -2.1093496882    -1.6740093592     0.7858016865
   38      O      -3.1981728695    -1.5347839773     1.7799050336
   39      H      -4.4494239370    -1.4429597192    -1.3093772371
   40      H      -2.1275282650    -0.9785339794    -1.3574297492
   41      H      -5.1802432591     2.9770857649     0.4043647042
   42      H      -5.2604835532    -1.9252513253     1.3551824951
   43      H      -4.0538336587    -4.1504069023     1.1241230036
   44      H      -4.2420186530    -3.6730769939    -0.5915378797
   45      H      -1.6949200478    -3.8478776594     0.9623909972
   46      H      -1.8471221877    -3.2968307054    -0.7343450858
   47      H      -1.1340278758    -1.4115807547     1.2392618715
   48      H      -6.2086291577     2.5407939291    -1.0103250425
   49      H      -4.6559084233     3.4393542402    -1.2639886130
   50      H       1.0121828073    -3.5563088475    -1.4346248150
   51      H       2.7004309417    -3.6263229085    -2.0816970033
   52      H       1.6371978711    -2.2330397934    -2.4992961509
   53      H       0.7515831578     1.8568175424    -2.1952708618
   54      H       0.9218340572     3.6125013101    -1.7315010181
   55      H      -1.0005422826     2.8531217632     0.1477237158
   56      H      -1.4680010328     3.3856642899    -1.5238017182
 ----------------------------------------------------------------

    9   -1510.2859390610      2.59E-09 Convergence criterion met
 Total energy in the final basis set = -1510.28593906
 Final energy is   -1510.28593906103
 **  OPTIMIZATION CONVERGED  **

                    Orbital Energies (a.u.)
 --------------------------------------------------------------

 Alpha MOs
 -- Occupied --
-18.942 -18.940 -18.926 -18.918 -18.888 -18.888 -18.886 -18.881
-18.866 -18.860 -10.107 -10.105 -10.097 -10.090 -10.072 -10.069
-10.068 -10.061 -10.060 -10.059 -10.056 -10.055 -10.041 -10.040
-10.036 -10.032 -10.021 -10.020 -10.020 -10.019  -1.022  -1.018
 -1.005  -0.996  -0.970  -0.969  -0.945  -0.942  -0.931  -0.924
 -0.764  -0.763  -0.728  -0.723  -0.714  -0.705  -0.696  -0.666
 -0.655  -0.619  -0.598  -0.577  -0.546  -0.544  -0.538  -0.536
 -0.513  -0.511  -0.488  -0.475  -0.461  -0.454  -0.452  -0.449
 -0.434  -0.431  -0.430  -0.416  -0.415  -0.412  -0.404  -0.402
 -0.400  -0.384  -0.371  -0.366  -0.362  -0.354  -0.352  -0.349
 -0.343  -0.340  -0.334  -0.332  -0.331  -0.326  -0.324  -0.313
 -0.312  -0.306  -0.306  -0.301  -0.296  -0.290  -0.275  -0.273
 -0.272  -0.256  -0.253  -0.246  -0.244  -0.234  -0.234  -0.189
 -0.181  -0.166  -0.164  -0.163  -0.160  -0.149  -0.144  -0.144
 -0.141

          Ground-State Mulliken Net Atomic Charges

     Atom                 Charge (a.u.)
  ----------------------------------------
      1 O                    -0.209461
      2 C                     0.214012
      3 C                    -0.078836
      4 C                    -0.078955
      5 C                     0.216165
      6 O                    -0.174917
      7 C                    -0.055972
      8 C                    -0.055860
      9 O                    -0.172578
     10 C                     0.215941
     11 C                    -0.077307
     12 C                    -0.082035
     13 C                     0.216023
     14 O                    -0.216116
     15 O                    -0.168322
     16 O                    -0.177484
     17 O                    -0.207347
     18 C                    -0.128592
     19 C                     0.024895
     20 C                    -0.144138
     21 C                    -0.143595
     22 C                     0.024592
     23 O                    -0.189798
     24 H                     0.088323
     25 H                     0.083675
     26 H                     0.086441
     27 H                     0.078281
     28 H                     0.074112
     29 H                     0.077989
     30 H                     0.073438
     31 H                     0.088755
     32 O                    -0.221473
     33 C                    -0.127422
     34 C                     0.024436
     35 C                    -0.143465
     36 C                    -0.144103
     37 C                     0.026143
     38 O                    -0.187078
     39 H                     0.085582
     40 H                     0.087216
     41 H                     0.093099
     42 H                     0.089991
     43 H                     0.078496
     44 H                     0.073142
     45 H                     0.078530
     46 H                     0.072916
     47 H                     0.084613
     48 H                     0.092421
     49 H                     0.090637
     50 H                     0.083359
     51 H                     0.086461
     52 H                     0.091897
     53 H                     0.109091
     54 H                     0.086697
     55 H                     0.105195
     56 H                     0.082289
  ----------------------------------------
  Sum of atomic charges =    -0.000000

                    Cartesian Multipole Moments
 -----------------------------------------------------------------
    Charge (ESU x 10^10)
                -0.0000
    Dipole Moment (Debye)
         X      -0.7495      Y       0.1193      Z      -0.2429
       Tot       0.7968
    Quadrupole Moments (Debye-Ang)
        XX    -170.6685     XY      -0.7297     YY    -145.1691
        XZ      21.6974     YZ      -1.9067     ZZ    -163.6230

 Total job time:  55.34s(wall), 2634.07s(cpu)
        *  Thank you very much for using Q-Chem.  Have a nice day.  *
