 Q-Chem 5.0, Q-Chem, Inc., Pleasanton, CA (2017)
 Q-Chem 5.0.1 for Intel X86 EM64T Linux

User input:
--------------------------------------------------------------
$molecule
0  1
O -6.155729126 0.3867344024 0.3334412505
C -5.0238298241 0.3227222796 -0.1906769079
C -4.133514153 -0.9566297108 -0.3671115494
C -2.5700433969 -0.7018350325 -0.3848758131
C -2.1392269716 0.7716908919 -0.0585796816
O -1.460808996 1.2863440229 -1.2151648745
C -0.900778199 2.6307310952 -0.9377304711
C 0.5994832855 2.6069263776 -1.3888635984
O 1.4395266323 2.239686562 -0.2197982181
C 2.0883426208 0.9875248287 -0.4494545447
C 2.9704775817 0.643406779 0.7959275526
C 3.8146173142 -0.6817468508 0.6058579003
C 3.4940039396 -1.477887696 -0.7130632646
O 4.1697343042 -1.5257092309 -1.7618725431
O -4.3790851476 1.4238906876 -0.842649032
O 2.3128451666 -2.2582542553 -0.4636900463
O 1.9580033864 0.3108514782 -1.495762873
C 1.9022301756 -2.95650061 -1.7009690203
C 4.1343545902 1.7131929258 0.9677892099
C 4.8156817447 1.4981475979 2.3770441588
C 5.6878860997 0.2166952179 2.1036760537
C 5.291414839 -0.1036577271 0.6100018494
O 5.150608579 1.2409708039 0.0011382611
H 2.3212501398 0.5991251332 1.6891755666
H 3.6457808966 -1.3635268173 1.4583925096
H 3.8258743478 2.7523827707 0.7411148081
H 5.439544508 2.3669195366 2.6403924348
H 4.0711723401 1.3432275775 3.1743187848
H 6.7644115247 0.439393245 2.1763802193
H 5.4514765651 -0.6149788654 2.7863756935
H 6.0174405969 -0.7108630938 0.0355358289
O -2.2298980568 1.3782386079 1.0312516528
C -5.1639349864 2.6653388985 -0.6600482855
C -4.2730528029 -1.9608852018 0.8545416855
C -3.7952859854 -3.3863906143 0.373671954
C -2.2384384357 -3.1678746796 0.2874958293
C -2.1093496882 -1.6740093592 0.7858016865
O -3.1981728695 -1.5347839773 1.7799050336
H -4.449423937 -1.4429597192 -1.3093772371
H -2.127528265 -0.9785339794 -1.3574297492
H -5.1802432591 2.9770857649 0.4043647042
H -5.2604835532 -1.9252513253 1.3551824951
H -4.0538336587 -4.1504069023 1.1241230036
H -4.242018653 -3.6730769939 -0.5915378797
H -1.6949200478 -3.8478776594 0.9623909972
H -1.8471221877 -3.2968307054 -0.7343450858
H -1.1340278758 -1.4115807547 1.2392618715
H -6.2086291577 2.5407939291 -1.0103250425
H -4.6559084233 3.4393542402 -1.263988613
H 1.0121828073 -3.5563088475 -1.434624815
H 2.7004309417 -3.6263229085 -2.0816970033
H 1.6371978711 -2.2330397934 -2.4992961509
H 0.7515831578 1.8568175424 -2.1952708618
H 0.9218340572 3.6125013101 -1.7315010181
H -1.0005422826 2.8531217632 0.1477237158
H -1.4680010328 3.3856642899 -1.5238017182
$end

$rem
JOBTYPE                   OPT
METHOD                    B3LYP
DFT_D                     d3_op
BASIS                     STO-3G
GEOM_OPT_MAX_CYCLES       100
GEOM_OPT_TOL_GRADIENT     300
GEOM_OPT_TOL_DISPLACEMENT 1200
GEOM_OPT_TOL_ENERGY       100
SYMMETRY                  False
THRESH                    12
SCF_CONVERGENCE           8
MAX_SUB_FILE_NUM          128
MEM_STATIC                400
MEM_TOTAL                 4000
$end
--------------------------------------------------------------

   16   -1510.2859482432      6.66E-09 Convergence criterion met
 Total energy in the final basis set = -1510.28594824
   14   -1510.2867796907      4.58E-09 Convergence criterion met
 Total energy in the final basis set = -1510.28677969
   14   -1510.2883795942      4.79E-09 Convergence criterion met
 Total energy in the final basis set = -1510.28837959
   14   -1510.2897246924      3.98E-09 Convergence criterion met
 Total energy in the final basis set = -1510.28972469
   15   -1510.2920984687      2.30E-09 Convergence criterion met
 Total energy in the final basis set = -1510.29209847
   15   -1510.2762217775      4.09E-09 Convergence criterion met
 Total energy in the final basis set = -1510.27622178
   15   -1510.2930613669      3.05E-09 Convergence criterion met
 Total energy in the final basis set = -1510.29306137
   14   -1510.2925504177      8.78E-09 Convergence criterion met
   12   -1510.3060170935      4.33E-09 Convergence criterion met
 Total energy in the final basis set = -1510.30601709
   12   -1510.3060390535      4.14E-09 Convergence criterion met
 Total energy in the final basis set = -1510.30603905
   11   -1510.3060406311      5.08E-09 Convergence criterion met
 Total energy in the final basis set = -1510.30604063
   11   -1510.3060467318      7.42E-09 Convergence criterion met
 Total energy in the final basis set = -1510.30604673
   10   -1510.3060489908      8.00E-09 Convergence criterion met
 Total energy in the final basis set = -1510.30604899
   11   -1510.3060631559      1.66E-09 Convergence criterion met
 Total energy in the final basis set = -1510.30606316

             Standard Nuclear Orientation (Angstroms)
    I     Atom           X                Y                Z
 ----------------------------------------------------------------
    1      O      -1.0670233075     1.0837172596     1.8143643129
    2      C      -2.2309920676     0.8244208418     1.4244029634
    3      C      -2.7143296804    -0.4807884842     0.6889479624
    4      C      -2.1371882405    -0.5854643732    -0.7820840229
    5      C      -1.6730373530     0.8103503562    -1.3174765087
    6      O      -1.0863869537     0.6750441520    -2.6141011816
    7      C      -0.7717485585     2.0174931367    -3.1707141935
    8      C       0.6813766729     2.4719970207    -2.7624457737
    9      O       0.8677297225     2.2314253585    -1.3136544321
   10      C       1.5893762414     1.0046246423    -1.1239236926
   11      C       1.5208182834     0.5901869015     0.3710759059
   12      C       2.1166139378    -0.8518041187     0.6305331078
   13      C       2.7530336156    -1.5266316351    -0.6367326402
   14      O       3.9632161991    -1.6345601016    -0.9217274685
   15      O      -3.3695207833     1.6386497339     1.7086768341
   16      O       1.7022694490    -2.1733049577    -1.3933806535
   17      O       2.1673879429     0.3970100333    -2.0558990230
   18      C       2.2531553308    -2.7467044548    -2.6381270923
   19      C       2.4527314323     1.4774878326     1.3076440366
   20      C       1.9546515303     1.2578750891     2.7894631474
   21      C       2.5045096750    -0.1877852118     3.0775711184
   22      C       3.2244588294    -0.5238393315     1.7119166546
   23      O       3.7594170455     0.7854924577     1.2656002993
   24      H       0.4668020257     0.6538785316     0.7291535718
   25      H       1.3031305357    -1.5013810918     1.0097124055
   26      H       2.5545151057     2.5335928450     0.9906584107
   27      H       2.4021288425     2.0043971196     3.4646818168
   28      H       0.8553604915     1.3173539146     2.8517417310
   29      H       3.2287863929    -0.1896403595     3.9078122662
   30      H       1.7014965059    -0.9069747171     3.3053739391
   31      H       4.0405343152    -1.2697713734     1.7701960925
   32      O      -1.8796113433     1.9082100970    -0.7483646668
   33      C      -2.9340900737     2.9011743272     2.3489806424
   34      C      -2.0300010727    -1.7426023380     1.3578825180
   35      C      -2.6061586650    -3.0633709080     0.7071508116
   36      C      -1.8192196254    -3.1053371941    -0.6567169060
   37      C      -1.0425705913    -1.7334907679    -0.6038657585
   38      O      -0.6552083580    -1.6523743679     0.8235010310
   39      H      -3.8172815778    -0.5171022179     0.7081007596
   40      H      -2.9219965996    -0.9390704797    -1.4765075226
   41      H      -2.2591407016     3.4733933117     1.6802332040
   42      H      -2.0191169919    -1.7245238415     2.4649147658
   43      H      -2.3788808696    -3.9375820960     1.3375357456
   44      H      -3.6972621438    -3.0058154056     0.5647189501
   45      H      -1.1015682946    -3.9411667732    -0.6795189285
   46      H      -2.4832697681    -3.1848589552    -1.5320908032
   47      H      -0.1163663154    -1.6842095648    -1.2238889494
   48      H      -2.4092184720     2.7137926170     3.3080989953
   49      H      -3.8551990340     3.4828613428     2.5366884511
   50      H       1.4100831660    -3.2506360791    -3.1460486226
   51      H       3.0555824932    -3.4832194838    -2.4286689173
   52      H       2.6634214167    -1.9535079885    -3.2963576972
   53      H       1.4419566624     1.8866283380    -3.3224267956
   54      H       0.8056268325     3.5571165740    -2.9530478080
   55      H      -1.5127640064     2.7560873618    -2.7998425431
   56      H      -0.8455531613     1.9220382116    -4.2730070084
 ----------------------------------------------------------------

    9   -1510.3060634411      6.99E-09 Convergence criterion met
 Total energy in the final basis set = -1510.30606344
 Final energy is   -1510.30606344109
 **  OPTIMIZATION CONVERGED  **

                    Orbital Energies (a.u.)
 --------------------------------------------------------------

 Alpha MOs
 -- Occupied --
-18.948 -18.935 -18.932 -18.915 -18.892 -18.889 -18.877 -18.870
-18.868 -18.854 -10.111 -10.103 -10.095 -10.081 -10.078 -10.071
-10.065 -10.062 -10.051 -10.050 -10.043 -10.041 -10.040 -10.039
-10.022 -10.019 -10.011 -10.008 -10.001  -9.996  -1.027  -1.011
 -1.008  -0.990  -0.975  -0.952  -0.949  -0.935  -0.933  -0.917
 -0.767  -0.745  -0.726  -0.719  -0.704  -0.700  -0.684  -0.662
 -0.648  -0.618  -0.593  -0.570  -0.548  -0.540  -0.529  -0.520
 -0.513  -0.499  -0.487  -0.473  -0.460  -0.457  -0.447  -0.438
 -0.431  -0.424  -0.418  -0.414  -0.410  -0.407  -0.400  -0.398
 -0.393  -0.382  -0.370  -0.366  -0.358  -0.355  -0.353  -0.344
 -0.341  -0.337  -0.330  -0.326  -0.321  -0.318  -0.316  -0.309
 -0.306  -0.304  -0.297  -0.288  -0.285  -0.281  -0.277  -0.263
 -0.263  -0.255  -0.251  -0.242  -0.235  -0.233  -0.213  -0.198
 -0.176  -0.170  -0.164  -0.159  -0.156  -0.151  -0.147  -0.132
 -0.126

          Ground-State Mulliken Net Atomic Charges

     Atom                 Charge (a.u.)
  ----------------------------------------
      1 O                    -0.224271
      2 C                     0.222500
      3 C                    -0.080021
      4 C                    -0.081559
      5 C                     0.212507
      6 O                    -0.168211
      7 C                    -0.051999
      8 C                    -0.056036
      9 O                    -0.171552
     10 C                     0.210152
     11 C                    -0.092074
     12 C                    -0.091913
     13 C                     0.216840
     14 O                    -0.216185
     15 O                    -0.167138
     16 O                    -0.180533
     17 O                    -0.212517
     18 C                    -0.127599
     19 C                     0.025472
     20 C                    -0.148376
     21 C                    -0.143919
     22 C                     0.024304
     23 O                    -0.192951
     24 H                     0.112121
     25 H                     0.104915
     26 H                     0.079637
     27 H                     0.070243
     28 H                     0.089850
     29 H                     0.072323
     30 H                     0.073116
     31 H                     0.082763
     32 O                    -0.206244
     33 C                    -0.127643
     34 C                     0.026478
     35 C                    -0.145319
     36 C                    -0.142716
     37 C                     0.012510
     38 O                    -0.193072
     39 H                     0.086395
     40 H                     0.086444
     41 H                     0.095389
     42 H                     0.082803
     43 H                     0.078012
     44 H                     0.073218
     45 H                     0.079158
     46 H                     0.071998
     47 H                     0.114289
     48 H                     0.087787
     49 H                     0.089367
     50 H                     0.083089
     51 H                     0.086967
     52 H                     0.092380
     53 H                     0.102296
     54 H                     0.089257
     55 H                     0.096307
     56 H                     0.090957
  ----------------------------------------
  Sum of atomic charges =    -0.000000

                    Cartesian Multipole Moments
 -----------------------------------------------------------------
    Charge (ESU x 10^10)
                -0.0000
    Dipole Moment (Debye)
         X      -4.8376      Y      -0.1575      Z      -0.9275
       Tot       4.9282
    Quadrupole Moments (Debye-Ang)
        XX    -172.4154     XY       1.9742     YY    -149.6450
        XZ       0.8986     YZ      -2.8105     ZZ    -147.7528

 Total job time:  196.16s(wall), 9338.49s(cpu)
        *  Thank you very much for using Q-Chem.  Have a nice day.  *
