 Q-Chem 5.0, Q-Chem, Inc., Pleasanton, CA (2017)
 Q-Chem 5.0.1 for Intel X86 EM64T Linux

User input:
--------------------------------------------------------------
$molecule
0  1
O -3.94934 -3.66094 2.70899
C -3.26408 -4.56952 2.26188
C -3.36658 -6.02376 2.66595
C -2.07125 -6.85173 2.64526
C -0.78828 -6.09065 2.39463
O -0.54646 -6.01809 1.05236
C 0.68551 -5.36087 0.73683
C 1.58766 -6.29246 -0.06591
O 2.58706 -6.86517 0.79204
C 2.28313 -8.08075 1.31082
C 3.38075 -8.63832 2.18547
C 3.4117 -10.17026 2.28773
C 2.59925 -10.91833 1.24993
O 3.05584 -11.49749 0.27491
O -2.59214 -4.32503 1.1063
O 1.26114 -10.99416 1.47551
O 1.11987 -8.43858 1.43836
C 0.36635 -11.64483 0.65193
C 4.81784 -8.35728 1.68491
C 5.79009 -8.42025 2.86175
C 5.78801 -9.90587 3.14926
C 4.91036 -10.40489 1.99573
O 5.16698 -9.50121 0.94983
H 3.24833 -8.16089 3.18258
H 3.13236 -10.56956 3.28757
H 4.94018 -7.38667 1.15889
H 6.79347 -8.13678 2.46969
H 5.5393 -7.76865 3.72627
H 6.82936 -10.28422 3.04623
H 5.37049 -10.19952 4.13669
H 5.13631 -11.47324 1.78229
O 0.0241 -5.80914 3.2701
C -2.47224 -3.08425 0.5152
C -3.7969 -6.18662 4.13615
C -4.40803 -7.57066 4.35321
C -3.16885 -8.43529 4.29578
C -2.09125 -7.36393 4.10537
O -2.58081 -6.26529 4.83375
H -4.1344 -6.4655 1.99239
H -2.09632 -7.72614 1.95592
H -1.95761 -2.38191 1.20525
H -4.50869 -5.40478 4.47967
H -4.81642 -7.6068 5.38852
H -5.20866 -7.83686 3.62988
H -3.03583 -8.92333 5.28731
H -3.1592 -9.20427 3.49339
H -1.10659 -7.76674 4.43131
H -3.47479 -2.68589 0.2501
H -1.87016 -3.17983 -0.41144
H -0.65453 -11.54572 1.07448
H 0.62287 -12.72362 0.58365
H 0.37954 -11.18957 -0.36146
H 1.0506 -7.01388 -0.72309
H 2.16772 -5.64091 -0.75462
H 1.24539 -4.85484 1.55572
H 0.38247 -4.54077 0.05061
$end

$opt
CONSTRAINT
tors           1           2           3           4    -147.649
tors           3           4           5           6     -88.796
tors           4           5           6           7    -177.411
tors           5           6           7           8    +121.735
tors           6           7           8           9    -100.886
tors           7           8           9          10     +94.533
tors           8           9          10          11    +179.104
tors           9          10          11          12    -154.042
tors          11          12          13          14    +103.744
ENDCONSTRAINT
$end

$rem
JOBTYPE                   OPT
METHOD                    B3LYP
DFT_D                     d3_op
BASIS                     STO-3G
GEOM_OPT_MAX_CYCLES       100
GEOM_OPT_TOL_GRADIENT     300
GEOM_OPT_TOL_DISPLACEMENT 1200
GEOM_OPT_TOL_ENERGY       100
SYMMETRY                  False
THRESH                    12
SCF_CONVERGENCE           8
MAX_SUB_FILE_NUM          128
MEM_STATIC                400
MEM_TOTAL                 4000
$end
--------------------------------------------------------------

   15   -1510.1369964354      7.19E-09 Convergence criterion met
 Total energy in the final basis set = -1510.13699644
   14   -1510.2073871278      4.63E-09 Convergence criterion met
 Total energy in the final basis set = -1510.20738713
   14   -1510.2451535648      4.59E-09 Convergence criterion met
 Total energy in the final basis set = -1510.24515356
    2   -1510.2451535649      8.80E-10 Convergence criterion met
 Total energy in the final basis set = -1510.24515356
   14   -1510.2626888750      5.33E-09 Convergence criterion met
 Total energy in the final basis set = -1510.26268888
   14   -1510.2704173289      1.81E-09 Convergence criterion met
 Total energy in the final basis set = -1510.27041733
   13   -1510.2746805044      3.88E-09 Convergence criterion met
 Total energy in the final basis set = -1510.27468050
   13   -1510.2773741806      5.14E-09 Convergence criterion met
   11   -1510.2846214772      5.66E-09 Convergence criterion met
 Total energy in the final basis set = -1510.28462148
   11   -1510.2846784699      5.08E-09 Convergence criterion met
 Total energy in the final basis set = -1510.28467847
   11   -1510.2847073595      5.80E-09 Convergence criterion met
 Total energy in the final basis set = -1510.28470736
   11   -1510.2847238334      3.38E-09 Convergence criterion met
 Total energy in the final basis set = -1510.28472383
   11   -1510.2847301506      1.86E-09 Convergence criterion met
 Total energy in the final basis set = -1510.28473015
    9   -1510.2847325840      8.77E-09 Convergence criterion met
 Total energy in the final basis set = -1510.28473258

             Standard Nuclear Orientation (Angstroms)
    I     Atom           X                Y                Z
 ----------------------------------------------------------------
    1      O      -6.0165359843     0.7686520709     0.0637231631
    2      C      -4.8211235706     0.7045792403    -0.2958002961
    3      C      -4.0388188892    -0.6072724102    -0.6754522491
    4      C      -2.4882254108    -0.6335447698    -0.3394407854
    5      C      -1.8414104122     0.7292744574     0.0831496332
    6      O      -1.3991411291     1.3891763636    -1.1137855663
    7      C      -0.7197115581     2.6610953772    -0.7764776717
    8      C       0.7401400817     2.6007807208    -1.3578373586
    9      O       1.7108136755     2.2739889509    -0.2830631857
   10      C       1.9545637037     0.8660266708    -0.2547497605
   11      C       2.9985542817     0.5276001976     0.8678241035
   12      C       3.7887608414    -0.8079026329     0.5470291349
   13      C       3.1720175867    -1.6632872731    -0.6202742668
   14      O       3.5868276851    -1.7636883827    -1.7942573682
   15      O      -3.9770763718     1.8472773134    -0.4483100112
   16      O       2.1106021937    -2.4534066821    -0.0583125017
   17      O       1.4306388420     0.0524917832    -1.0504705959
   18      C       1.4217655998    -3.2024316418    -1.1310198957
   19      C       4.1844488250     1.5797170968     0.8354574590
   20      C       5.1432716157     1.3324641870     2.0665904547
   21      C       5.9509916093     0.0708724485     1.5831566733
   22      C       5.2309134480    -0.2349463925     0.2131117979
   23      O       4.9689403436     1.1173300405    -0.3341994867
   24      H       2.4843839760     0.4870694094     1.8458347353
   25      H       3.8156709719    -1.4511582932     1.4446411871
   26      H       3.8472126608     2.6240449905     0.6919686721
   27      H       5.8016407904     2.2012048444     2.2243559700
   28      H       4.5788433544     1.1442165737     2.9940336681
   29      H       7.0121161557     0.3141190512     1.4132693805
   30      H       5.8890450708    -0.7732038638     2.2882752230
   31      H       5.8057133288    -0.8411272294    -0.5136003039
   32      O      -1.6399443537     1.1584838002     1.2403816005
   33      C      -4.6911502949     3.0760700226    -0.0334199907
   34      C      -4.5549876181    -1.7851804819     0.2523588483
   35      C      -4.0366673120    -3.1664413557    -0.3130770860
   36      C      -2.5318882305    -3.1438311897     0.1496220338
   37      C      -2.4482337135    -1.7182178519     0.8213868863
   38      O      -3.7634172857    -1.5827052252     1.4884636423
   39      H      -4.2125702541    -0.8138512813    -1.7480722055
   40      H      -1.9275128562    -0.9853746010    -1.2240271671
   41      H      -5.0281082989     3.0134961709     1.0212197947
   42      H      -5.6396286333    -1.7289180567     0.4701817259
   43      H      -4.5895495271    -4.0029141070     0.1429498222
   44      H      -4.1418715051    -3.2284769957    -1.4081149839
   45      H      -2.3276317289    -3.9300841064     0.8937874353
   46      H      -1.8237782453    -3.2543456379    -0.6867634878
   47      H      -1.6261767558    -1.5754269221     1.5489641014
   48      H      -5.5736070388     3.2703133042    -0.6768005116
   49      H      -3.9630041374     3.9006040143    -0.1424836657
   50      H       0.7053173505    -3.8768293234    -0.6265133300
   51      H       2.1322886345    -3.7982547291    -1.7394166945
   52      H       0.8717793754    -2.5127537267    -1.8044123156
   53      H       0.7835444624     1.8343867099    -2.1609903951
   54      H       1.0445335997     3.5914512920    -1.7519669136
   55      H      -0.7059524114     2.7823518384     0.3295398952
   56      H      -1.2869845798     3.4945283496    -1.2417581899
 ----------------------------------------------------------------

    9   -1510.2847338379      5.24E-09 Convergence criterion met
 Total energy in the final basis set = -1510.28473384
 Final energy is   -1510.28473383787
 **  OPTIMIZATION CONVERGED  **

                    Orbital Energies (a.u.)
 --------------------------------------------------------------

 Alpha MOs
 -- Occupied --
-18.944 -18.942 -18.926 -18.919 -18.885 -18.885 -18.884 -18.879
-18.869 -18.860 -10.107 -10.104 -10.099 -10.090 -10.074 -10.070
-10.067 -10.058 -10.058 -10.057 -10.056 -10.055 -10.040 -10.040
-10.035 -10.031 -10.020 -10.019 -10.019 -10.018  -1.022  -1.018
 -1.005  -0.996  -0.969  -0.968  -0.944  -0.941  -0.932  -0.924
 -0.763  -0.761  -0.727  -0.722  -0.712  -0.703  -0.694  -0.667
 -0.655  -0.619  -0.597  -0.579  -0.545  -0.543  -0.537  -0.535
 -0.511  -0.510  -0.488  -0.477  -0.460  -0.454  -0.450  -0.449
 -0.437  -0.430  -0.428  -0.417  -0.415  -0.410  -0.403  -0.402
 -0.399  -0.385  -0.373  -0.365  -0.363  -0.355  -0.352  -0.346
 -0.341  -0.336  -0.332  -0.331  -0.330  -0.329  -0.322  -0.312
 -0.311  -0.306  -0.305  -0.300  -0.296  -0.291  -0.275  -0.274
 -0.271  -0.258  -0.249  -0.245  -0.243  -0.233  -0.232  -0.191
 -0.182  -0.166  -0.163  -0.160  -0.158  -0.151  -0.143  -0.143
 -0.141

          Ground-State Mulliken Net Atomic Charges

     Atom                 Charge (a.u.)
  ----------------------------------------
      1 O                    -0.211413
      2 C                     0.212840
      3 C                    -0.077165
      4 C                    -0.080368
      5 C                     0.219057
      6 O                    -0.171944
      7 C                    -0.057281
      8 C                    -0.053271
      9 O                    -0.169993
     10 C                     0.215577
     11 C                    -0.076656
     12 C                    -0.082029
     13 C                     0.214639
     14 O                    -0.218643
     15 O                    -0.167511
     16 O                    -0.175125
     17 O                    -0.209825
     18 C                    -0.128805
     19 C                     0.023155
     20 C                    -0.144990
     21 C                    -0.142986
     22 C                     0.023746
     23 O                    -0.191656
     24 H                     0.088754
     25 H                     0.083819
     26 H                     0.090095
     27 H                     0.077914
     28 H                     0.073545
     29 H                     0.077623
     30 H                     0.073264
     31 H                     0.088364
     32 O                    -0.221233
     33 C                    -0.126431
     34 C                     0.023940
     35 C                    -0.144878
     36 C                    -0.143127
     37 C                     0.025055
     38 O                    -0.190161
     39 H                     0.086265
     40 H                     0.087671
     41 H                     0.094134
     42 H                     0.090070
     43 H                     0.078354
     44 H                     0.073085
     45 H                     0.077576
     46 H                     0.072985
     47 H                     0.088141
     48 H                     0.090745
     49 H                     0.090630
     50 H                     0.084197
     51 H                     0.088186
     52 H                     0.088973
     53 H                     0.106300
     54 H                     0.089294
     55 H                     0.104474
     56 H                     0.083023
  ----------------------------------------
  Sum of atomic charges =     0.000000

                    Cartesian Multipole Moments
 -----------------------------------------------------------------
    Charge (ESU x 10^10)
                 0.0000
    Dipole Moment (Debye)
         X      -0.0871      Y       0.6133      Z      -0.0495
       Tot       0.6215
    Quadrupole Moments (Debye-Ang)
        XX    -168.0122     XY      -1.5783     YY    -145.2025
        XZ      18.7092     YZ      -0.5341     ZZ    -163.8270

 Total job time:  66.59s(wall), 3172.31s(cpu)
        *  Thank you very much for using Q-Chem.  Have a nice day.  *
