 Q-Chem 5.0, Q-Chem, Inc., Pleasanton, CA (2017)
 Q-Chem 5.0.1 for Intel X86 EM64T Linux

User input:
--------------------------------------------------------------
$molecule
0  1
O -6.0165359843 0.7686520709 0.0637231631
C -4.8211235706 0.7045792403 -0.2958002961
C -4.0388188892 -0.6072724102 -0.6754522491
C -2.4882254108 -0.6335447698 -0.3394407854
C -1.8414104122 0.7292744574 0.0831496332
O -1.3991411291 1.3891763636 -1.1137855663
C -0.7197115581 2.6610953772 -0.7764776717
C 0.7401400817 2.6007807208 -1.3578373586
O 1.7108136755 2.2739889509 -0.2830631857
C 1.9545637037 0.8660266708 -0.2547497605
C 2.9985542817 0.5276001976 0.8678241035
C 3.7887608414 -0.8079026329 0.5470291349
C 3.1720175867 -1.6632872731 -0.6202742668
O 3.5868276851 -1.7636883827 -1.7942573682
O -3.9770763718 1.8472773134 -0.4483100112
O 2.1106021937 -2.4534066821 -0.0583125017
O 1.430638842 0.0524917832 -1.0504705959
C 1.4217655998 -3.2024316418 -1.1310198957
C 4.184448825 1.5797170968 0.835457459
C 5.1432716157 1.332464187 2.0665904547
C 5.9509916093 0.0708724485 1.5831566733
C 5.230913448 -0.2349463925 0.2131117979
O 4.9689403436 1.1173300405 -0.3341994867
H 2.484383976 0.4870694094 1.8458347353
H 3.8156709719 -1.4511582932 1.4446411871
H 3.8472126608 2.6240449905 0.6919686721
H 5.8016407904 2.2012048444 2.22435597
H 4.5788433544 1.1442165737 2.9940336681
H 7.0121161557 0.3141190512 1.4132693805
H 5.8890450708 -0.7732038638 2.288275223
H 5.8057133288 -0.8411272294 -0.5136003039
O -1.6399443537 1.1584838002 1.2403816005
C -4.6911502949 3.0760700226 -0.0334199907
C -4.5549876181 -1.7851804819 0.2523588483
C -4.036667312 -3.1664413557 -0.313077086
C -2.5318882305 -3.1438311897 0.1496220338
C -2.4482337135 -1.7182178519 0.8213868863
O -3.7634172857 -1.5827052252 1.4884636423
H -4.2125702541 -0.8138512813 -1.7480722055
H -1.9275128562 -0.985374601 -1.2240271671
H -5.0281082989 3.0134961709 1.0212197947
H -5.6396286333 -1.7289180567 0.4701817259
H -4.5895495271 -4.002914107 0.1429498222
H -4.1418715051 -3.2284769957 -1.4081149839
H -2.3276317289 -3.9300841064 0.8937874353
H -1.8237782453 -3.2543456379 -0.6867634878
H -1.6261767558 -1.5754269221 1.5489641014
H -5.5736070388 3.2703133042 -0.6768005116
H -3.9630041374 3.9006040143 -0.1424836657
H 0.7053173505 -3.8768293234 -0.62651333
H 2.1322886345 -3.7982547291 -1.7394166945
H 0.8717793754 -2.5127537267 -1.8044123156
H 0.7835444624 1.8343867099 -2.1609903951
H 1.0445335997 3.591451292 -1.7519669136
H -0.7059524114 2.7823518384 0.3295398952
H -1.2869845798 3.4945283496 -1.2417581899
$end

$rem
JOBTYPE                   OPT
METHOD                    B3LYP
DFT_D                     d3_op
BASIS                     STO-3G
GEOM_OPT_MAX_CYCLES       100
GEOM_OPT_TOL_GRADIENT     300
GEOM_OPT_TOL_DISPLACEMENT 1200
GEOM_OPT_TOL_ENERGY       100
SYMMETRY                  False
THRESH                    12
SCF_CONVERGENCE           8
MAX_SUB_FILE_NUM          128
MEM_STATIC                400
MEM_TOTAL                 4000
$end
--------------------------------------------------------------

   16   -1510.2846545719      5.47E-09 Convergence criterion met
 Total energy in the final basis set = -1510.28465457
   14   -1510.2678642749      6.89E-09 Convergence criterion met
 Total energy in the final basis set = -1510.26786427
   14   -1510.2860894009      6.93E-09 Convergence criterion met
 Total energy in the final basis set = -1510.28608940
   14   -1510.2877660389      2.07E-09 Convergence criterion met
 Total energy in the final basis set = -1510.28776604
   15   -1510.2886055385      3.02E-09 Convergence criterion met
 Total energy in the final basis set = -1510.28860554
   14   -1510.2901447707      9.06E-09 Convergence criterion met
 Total energy in the final basis set = -1510.29014477
   15   -1510.2917386340      2.09E-09 Convergence criterion met
 Total energy in the final basis set = -1510.29173863
   14   -1510.2931346873      2.59E-09 Convergence criterion met
   12   -1510.3056809492      2.35E-09 Convergence criterion met
 Total energy in the final basis set = -1510.30568095
   10   -1510.3056853862      6.89E-09 Convergence criterion met
 Total energy in the final basis set = -1510.30568539
    9   -1510.3056870291      8.44E-09 Convergence criterion met
 Total energy in the final basis set = -1510.30568703
    9   -1510.3056888309      8.85E-09 Convergence criterion met
 Total energy in the final basis set = -1510.30568883
    9   -1510.3056903743      4.62E-09 Convergence criterion met
 Total energy in the final basis set = -1510.30569037
    9   -1510.3056914255      7.81E-09 Convergence criterion met
 Total energy in the final basis set = -1510.30569143

             Standard Nuclear Orientation (Angstroms)
    I     Atom           X                Y                Z
 ----------------------------------------------------------------
    1      O      -0.9021418338     1.0734319933     1.9043456808
    2      C      -2.0844608191     0.9718737075     1.4947752621
    3      C      -2.7140885545    -0.2422991643     0.7135812955
    4      C      -2.2564874778    -0.2894312708    -0.7994108153
    5      C      -1.6684606306     1.0741602964    -1.2863202937
    6      O      -1.2888371284     0.9591865056    -2.6586045950
    7      C      -0.6779051916     2.2248438964    -3.1370663358
    8      C       0.8857248709     2.1860457328    -2.9585055367
    9      O       1.2288960582     2.0257949619    -1.5270992687
   10      C       1.3898190429     0.6347180233    -1.2153478987
   11      C       1.5282337952     0.4522417776     0.3228286875
   12      C       2.1321302884    -0.9547585808     0.7261403360
   13      C       2.6136452582    -1.8128662610    -0.4958204984
   14      O       3.7087151002    -1.7501606729    -1.0943981119
   15      O      -3.1181742635     1.9072203638     1.8036015072
   16      O       1.5992813468    -2.7931796167    -0.7835203362
   17      O       1.3686924001    -0.2727155158    -2.0817454056
   18      C       1.9768022561    -3.5609501246    -1.9896442638
   19      C       2.5601817048     1.4427074154     1.0095918332
   20      C       2.2241357801     1.4625695880     2.5520910739
   21      C       2.7768979479     0.0567146185     2.9947482993
   22      C       3.3512875235    -0.4956655309     1.6292369001
   23      O       3.8491790288     0.7170787035     0.9390291835
   24      H       0.5179261062     0.5764876358     0.7841814915
   25      H       1.3696280044    -1.5386553133     1.2713282704
   26      H       2.6377305229     2.4330290280     0.5206865291
   27      H       2.7564515127     2.2844780075     3.0568887960
   28      H       1.1400523954     1.5663062115     2.7243212571
   29      H       3.5796099266     0.1525235888     3.7431748588
   30      H       1.9886475577    -0.5971720002     3.4000589366
   31      H       4.1616315831    -1.2442640296     1.7219236618
   32      O      -1.5838886000     2.1286569841    -0.6137542890
   33      C      -2.5376284488     3.0834221096     2.4915886141
   34      C      -2.0716696754    -1.5892990066     1.2454816314
   35      C      -2.7772795479    -2.8280344801     0.5607894195
   36      C      -2.0903751322    -2.8340077453    -0.8572052650
   37      C      -1.2304274426    -1.5171371626    -0.7754588147
   38      O      -0.7336827965    -1.5483331718     0.6180035701
   39      H      -3.8126461385    -0.2034751676     0.8139731835
   40      H      -3.1081528864    -0.5341278361    -1.4601800447
   41      H      -1.8099018170     3.6059317990     1.8376746823
   42      H      -1.9799402097    -1.6471559404     2.3472876384
   43      H      -2.5635027772    -3.7520341199     1.1208210157
   44      H      -3.8697604196    -2.6961873986     0.5017431809
   45      H      -1.4271571509    -3.7057787729    -0.9764161183
   46      H      -2.8154180346    -2.8199417392    -1.6865941522
   47      H      -0.3739043349    -1.4370853506    -1.4771548352
   48      H      -2.0268023184     2.7942788848     3.4325822164
   49      H      -3.3858084422     3.7549735457     2.7183491929
   50      H       1.1948658958    -4.3314060307    -2.1219121610
   51      H       2.9654755430    -4.0507655373    -1.8760229338
   52      H       2.0086189456    -2.9083681858    -2.8864244328
   53      H       1.3086136178     1.3402625088    -3.5415545856
   54      H       1.3224367677     3.1477001166    -3.2962781819
   55      H      -1.0996154624     3.0823002575    -2.5712122190
   56      H      -0.9318891629     2.3117243767    -4.2132056459
 ----------------------------------------------------------------

    9   -1510.3056918135      4.90E-09 Convergence criterion met
 Total energy in the final basis set = -1510.30569181
 Final energy is   -1510.30569181352
 **  OPTIMIZATION CONVERGED  **

                    Orbital Energies (a.u.)
 --------------------------------------------------------------

 Alpha MOs
 -- Occupied --
-18.948 -18.937 -18.935 -18.908 -18.892 -18.891 -18.874 -18.873
-18.867 -18.846 -10.113 -10.105 -10.096 -10.080 -10.075 -10.074
-10.063 -10.063 -10.056 -10.046 -10.043 -10.040 -10.040 -10.039
-10.022 -10.019 -10.009 -10.008 -10.001  -9.996  -1.029  -1.012
 -1.009  -0.986  -0.974  -0.951  -0.950  -0.936  -0.935  -0.911
 -0.767  -0.744  -0.727  -0.720  -0.704  -0.699  -0.683  -0.663
 -0.645  -0.619  -0.593  -0.570  -0.548  -0.540  -0.528  -0.520
 -0.515  -0.500  -0.486  -0.470  -0.461  -0.458  -0.443  -0.439
 -0.433  -0.426  -0.417  -0.414  -0.411  -0.406  -0.398  -0.394
 -0.392  -0.382  -0.371  -0.366  -0.359  -0.356  -0.348  -0.345
 -0.341  -0.335  -0.332  -0.330  -0.322  -0.318  -0.313  -0.308
 -0.307  -0.304  -0.295  -0.289  -0.285  -0.278  -0.274  -0.265
 -0.260  -0.256  -0.252  -0.244  -0.236  -0.231  -0.213  -0.200
 -0.177  -0.171  -0.165  -0.156  -0.153  -0.150  -0.146  -0.128
 -0.124

          Ground-State Mulliken Net Atomic Charges

     Atom                 Charge (a.u.)
  ----------------------------------------
      1 O                    -0.223519
      2 C                     0.223008
      3 C                    -0.080715
      4 C                    -0.081548
      5 C                     0.210428
      6 O                    -0.167984
      7 C                    -0.052646
      8 C                    -0.053517
      9 O                    -0.170100
     10 C                     0.210230
     11 C                    -0.092565
     12 C                    -0.084467
     13 C                     0.210245
     14 O                    -0.221443
     15 O                    -0.166928
     16 O                    -0.173336
     17 O                    -0.219299
     18 C                    -0.129321
     19 C                     0.023487
     20 C                    -0.147820
     21 C                    -0.143913
     22 C                     0.024449
     23 O                    -0.192826
     24 H                     0.115904
     25 H                     0.098049
     26 H                     0.083145
     27 H                     0.070159
     28 H                     0.087484
     29 H                     0.072262
     30 H                     0.072517
     31 H                     0.080286
     32 O                    -0.207751
     33 C                    -0.127710
     34 C                     0.025617
     35 C                    -0.144869
     36 C                    -0.141503
     37 C                     0.022162
     38 O                    -0.187359
     39 H                     0.086577
     40 H                     0.087634
     41 H                     0.095309
     42 H                     0.082828
     43 H                     0.078881
     44 H                     0.072902
     45 H                     0.081539
     46 H                     0.072870
     47 H                     0.105462
     48 H                     0.088578
     49 H                     0.089773
     50 H                     0.081357
     51 H                     0.085756
     52 H                     0.088491
     53 H                     0.102026
     54 H                     0.091110
     55 H                     0.099090
     56 H                     0.091524
  ----------------------------------------
  Sum of atomic charges =    -0.000000

                    Cartesian Multipole Moments
 -----------------------------------------------------------------
    Charge (ESU x 10^10)
                 0.0000
    Dipole Moment (Debye)
         X      -4.6899      Y       0.4038      Z      -0.4901
       Tot       4.7327
    Quadrupole Moments (Debye-Ang)
        XX    -169.3924     XY       1.9344     YY    -149.7238
        XZ       1.8736     YZ      -3.5653     ZZ    -148.4953

 Total job time:  166.72s(wall), 7935.32s(cpu)
        *  Thank you very much for using Q-Chem.  Have a nice day.  *
