 Q-Chem 5.0, Q-Chem, Inc., Pleasanton, CA (2017)
 Q-Chem 5.0.1 for Intel X86 EM64T Linux

User input:
--------------------------------------------------------------
$molecule
0  1
O -3.94934 -3.66094 2.70899
C -3.26408 -4.56952 2.26188
C -3.36658 -6.02376 2.66595
C -2.14191 -6.91468 2.40081
C -0.88858 -6.21408 1.92497
O -0.84178 -6.22305 0.55999
C 0.37971 -5.69248 0.03492
C 0.97115 -6.65238 -0.99218
O 1.9004 -7.54154 -0.35283
C 2.0402 -8.7574 -0.93702
C 3.03795 -9.64048 -0.22617
C 3.25172 -11.02039 -0.86525
C 2.73123 -11.18145 -2.27941
O 3.38416 -11.01068 -3.29876
O -2.46523 -4.25079 1.2098
O 1.45302 -11.6344 -2.39124
O 1.37279 -9.07553 -1.91102
C 0.81717 -11.8798 -3.59045
C 4.47131 -9.07704 -0.23638
C 5.25757 -9.66553 0.93335
C 5.41816 -11.09861 0.47029
C 4.79719 -11.00466 -0.92909
O 5.08051 -9.69011 -1.34233
H 2.68308 -9.72873 0.82573
H 2.89379 -11.88075 -0.2577
H 4.513 -7.96636 -0.20839
H 6.25822 -9.17645 0.93108
H 4.79163 -9.54005 1.93441
H 6.50555 -11.3254 0.40531
H 4.90485 -11.86165 1.09462
H 5.19765 -11.81444 -1.5789
O 0.05089 -5.92239 2.65887
C -2.30948 -2.97905 0.69521
C -3.46515 -6.15305 4.2039
C -4.11369 -7.48546 4.57677
C -2.99422 -8.4433 4.2397
C -1.90051 -7.45187 3.82915
O -2.13994 -6.32574 4.63241
H -4.31325 -6.41095 2.22816
H -2.34703 -7.76975 1.71757
H -1.89917 -2.3003 1.47317
H -4.02533 -5.32137 4.68487
H -4.25885 -7.48622 5.68104
H -5.0852 -7.69345 4.07898
H -2.69905 -8.97956 5.16914
H -3.21938 -9.17556 3.43443
H -0.90109 -7.92823 3.94109
H -3.28452 -2.59002 0.33183
H -1.6017 -3.01307 -0.15733
H -0.21337 -12.23741 -3.38916
H 1.36286 -12.66192 -4.16029
H 0.76111 -10.94714 -4.19165
H 0.15537 -7.12453 -1.58519
H 1.58359 -6.03995 -1.69015
H 1.15911 -5.33535 0.74462
H 0.06635 -4.79404 -0.53829
$end

$opt
CONSTRAINT
tors           1           2           3           4    -158.648
tors           3           4           5           6     -93.540
tors           4           5           6           7    -174.292
tors           5           6           7           8    +130.010
tors           6           7           8           9     -92.721
tors           7           8           9          10    +151.767
tors           8           9          10          11    +179.513
tors           9          10          11          12    -178.910
tors          11          12          13          14     +93.364
ENDCONSTRAINT
$end

$rem
JOBTYPE                   OPT
METHOD                    B3LYP
DFT_D                     d3_op
BASIS                     STO-3G
GEOM_OPT_MAX_CYCLES       100
GEOM_OPT_TOL_GRADIENT     300
GEOM_OPT_TOL_DISPLACEMENT 1200
GEOM_OPT_TOL_ENERGY       100
SYMMETRY                  False
THRESH                    12
SCF_CONVERGENCE           8
MAX_SUB_FILE_NUM          128
MEM_STATIC                400
MEM_TOTAL                 4000
$end
--------------------------------------------------------------

   15   -1510.1474470104      6.26E-09 Convergence criterion met
 Total energy in the final basis set = -1510.14744701
   14   -1510.2174288157      6.28E-09 Convergence criterion met
 Total energy in the final basis set = -1510.21742882
   13   -1510.2546345901      7.84E-09 Convergence criterion met
 Total energy in the final basis set = -1510.25463459
   14   -1510.2711982004      5.61E-09 Convergence criterion met
 Total energy in the final basis set = -1510.27119820
   14   -1510.2776050480      3.71E-09 Convergence criterion met
 Total energy in the final basis set = -1510.27760505
   13   -1510.2802411391      8.17E-09 Convergence criterion met
 Total energy in the final basis set = -1510.28024114
   13   -1510.2813046374      4.31E-09 Convergence criterion met
 Total energy in the final basis set = -1510.28130464
   12   -1510.2817728067      4.86E-09 Convergence criterion met
   12   -1510.2825415864      2.22E-09 Convergence criterion met
 Total energy in the final basis set = -1510.28254159
   11   -1510.2825670348      6.28E-09 Convergence criterion met
 Total energy in the final basis set = -1510.28256703
   11   -1510.2825795543      2.92E-09 Convergence criterion met
 Total energy in the final basis set = -1510.28257955
   11   -1510.2825860472      1.94E-09 Convergence criterion met
 Total energy in the final basis set = -1510.28258605
    9   -1510.2825886545      7.96E-09 Convergence criterion met
 Total energy in the final basis set = -1510.28258865
    9   -1510.2825908701      7.83E-09 Convergence criterion met
 Total energy in the final basis set = -1510.28259087

             Standard Nuclear Orientation (Angstroms)
    I     Atom           X                Y                Z
 ----------------------------------------------------------------
    1      O      -6.5076096768     1.2170970227     0.1502885204
    2      C      -5.2819580372     1.0257207686    -0.0046254765
    3      C      -4.6340495800    -0.0913975233    -0.9021446628
    4      C      -3.1361997548    -0.5119704954    -0.5838985184
    5      C      -2.4010079803     0.3067681752     0.5340429150
    6      O      -1.6754514546     1.3746672893    -0.1012002907
    7      C      -0.8550325307     2.0924284046     0.9009710214
    8      C       0.6117300393     2.2219546407     0.3737080081
    9      O       1.3842019449     1.0626073222     0.8881248830
   10      C       2.4542828284     0.7333063197     0.0010479487
   11      C       3.2308096382    -0.4829900801     0.6073348821
   12      C       4.4703163112    -0.9426434066    -0.2640729790
   13      C       4.7292789235    -0.0574651155    -1.5387091061
   14      O       5.4908890968     0.9271257382    -1.6401772316
   15      O      -4.2727804475     1.8445973805     0.5878156886
   16      O       4.0054602583    -0.6437900628    -2.6316624868
   17      O       2.6864174134     1.3285288365    -1.0754774475
   18      C       4.1518537235     0.2015228854    -3.8368773323
   19      C       3.9403048679    -0.1163978844     1.9828704413
   20      C       4.3201899197    -1.4647112635     2.7106933554
   21      C       5.5489240521    -1.9377036446     1.8489311208
   22      C       5.6466927996    -0.7708862783     0.7883275628
   23      O       5.2456897261     0.4321553747     1.5560227025
   24      H       2.5098987195    -1.3086502725     0.7497272667
   25      H       4.3517621833    -1.9912099855    -0.5891739775
   26      H       3.3841950705     0.6169124955     2.5987455606
   27      H       4.6090817042    -1.2698176420     3.7557743063
   28      H       3.4890093570    -2.1879722875     2.7023539368
   29      H       6.4693930912    -1.9891767860     2.4518166534
   30      H       5.3829672222    -2.9172711228     1.3729307901
   31      H       6.6444962483    -0.6195078586     0.3333941791
   32      O      -2.3259806414     0.0327875705     1.7518943987
   33      C      -4.8823042249     2.8609563190     1.4747554153
   34      C      -5.3904686064    -1.4663606665    -0.6558079740
   35      C      -5.0484682998    -2.4638176909    -1.8304074829
   36      C      -3.5792735479    -2.8858430210    -1.4545075723
   37      C      -3.3430502809    -2.0279824167    -0.1503971904
   38      O      -4.6692994131    -2.0295979860     0.5083970455
   39      H      -4.7285792212     0.2345059804    -1.9550239943
   40      H      -2.5252391467    -0.4345750576    -1.5007892698
   41      H      -5.4565736448     2.3889606984     2.2977629099
   42      H      -6.4678270252    -1.3428785132    -0.4295397685
   43      H      -5.7340435966    -3.3258271901    -1.8127104432
   44      H      -5.1142028726    -1.9811129101    -2.8184939911
   45      H      -3.5149102728    -3.9613289464    -1.2243586035
   46      H      -2.8511234704    -2.6499534671    -2.2469117211
   47      H      -2.5699396157    -2.4118879448     0.5429984341
   48      H      -5.5579337123     3.5370252358     0.9120005917
   49      H      -4.0397860573     3.4402755412     1.8948751784
   50      H       3.5979771426    -0.3130663598    -4.6436851878
   51      H       5.2151336222     0.3168984655    -4.1316195584
   52      H       3.7192726508     1.2097882702    -3.6728996642
   53      H       0.6387695241     2.2431961467    -0.7372727005
   54      H       1.0688672261     3.1633724491     0.7510179824
   55      H      -0.8921214240     1.5332630290     1.8624483333
   56      H      -1.2861790126     3.1057349797     1.0513545284
 ----------------------------------------------------------------

    9   -1510.2825916001      3.57E-09 Convergence criterion met
 Total energy in the final basis set = -1510.28259160
 Final energy is   -1510.28259160011
 **  OPTIMIZATION CONVERGED  **

                    Orbital Energies (a.u.)
 --------------------------------------------------------------

 Alpha MOs
 -- Occupied --
-18.947 -18.939 -18.926 -18.918 -18.888 -18.886 -18.885 -18.880
-18.870 -18.858 -10.106 -10.106 -10.100 -10.088 -10.076 -10.072
-10.069 -10.060 -10.060 -10.060 -10.056 -10.052 -10.042 -10.039
-10.038 -10.032 -10.022 -10.021 -10.020 -10.018  -1.021  -1.019
 -1.005  -0.995  -0.971  -0.969  -0.944  -0.942  -0.932  -0.922
 -0.765  -0.762  -0.729  -0.723  -0.714  -0.705  -0.697  -0.668
 -0.653  -0.618  -0.598  -0.577  -0.546  -0.543  -0.539  -0.536
 -0.514  -0.513  -0.487  -0.478  -0.462  -0.455  -0.452  -0.449
 -0.432  -0.432  -0.425  -0.418  -0.417  -0.410  -0.405  -0.401
 -0.399  -0.387  -0.370  -0.369  -0.362  -0.356  -0.352  -0.345
 -0.344  -0.337  -0.333  -0.332  -0.330  -0.329  -0.324  -0.314
 -0.313  -0.308  -0.306  -0.300  -0.298  -0.294  -0.274  -0.273
 -0.272  -0.257  -0.249  -0.246  -0.243  -0.236  -0.233  -0.187
 -0.184  -0.169  -0.163  -0.161  -0.159  -0.151  -0.146  -0.143
 -0.139

          Ground-State Mulliken Net Atomic Charges

     Atom                 Charge (a.u.)
  ----------------------------------------
      1 O                    -0.212373
      2 C                     0.212898
      3 C                    -0.077598
      4 C                    -0.080609
      5 C                     0.219779
      6 O                    -0.175325
      7 C                    -0.054705
      8 C                    -0.051145
      9 O                    -0.173412
     10 C                     0.213950
     11 C                    -0.078090
     12 C                    -0.081706
     13 C                     0.214836
     14 O                    -0.216186
     15 O                    -0.166431
     16 O                    -0.175581
     17 O                    -0.208048
     18 C                    -0.128387
     19 C                     0.025210
     20 C                    -0.143411
     21 C                    -0.144433
     22 C                     0.025563
     23 O                    -0.188114
     24 H                     0.086465
     25 H                     0.083685
     26 H                     0.086167
     27 H                     0.078229
     28 H                     0.073734
     29 H                     0.077907
     30 H                     0.073183
     31 H                     0.087069
     32 O                    -0.218817
     33 C                    -0.125608
     34 C                     0.024374
     35 C                    -0.144334
     36 C                    -0.143884
     37 C                     0.025373
     38 O                    -0.188936
     39 H                     0.086200
     40 H                     0.085210
     41 H                     0.094086
     42 H                     0.089540
     43 H                     0.078836
     44 H                     0.073609
     45 H                     0.078168
     46 H                     0.073408
     47 H                     0.086521
     48 H                     0.091713
     49 H                     0.091630
     50 H                     0.085062
     51 H                     0.086027
     52 H                     0.092154
     53 H                     0.101825
     54 H                     0.086025
     55 H                     0.106871
     56 H                     0.081827
  ----------------------------------------
  Sum of atomic charges =    -0.000000

                    Cartesian Multipole Moments
 -----------------------------------------------------------------
    Charge (ESU x 10^10)
                 0.0000
    Dipole Moment (Debye)
         X      -0.9217      Y      -0.7881      Z      -0.9973
       Tot       1.5702
    Quadrupole Moments (Debye-Ang)
        XX    -180.0407     XY     -15.4164     YY    -151.6291
        XZ       8.9867     YZ       6.0876     ZZ    -155.4889

 Total job time:  51.49s(wall), 2447.33s(cpu)
        *  Thank you very much for using Q-Chem.  Have a nice day.  *
