 Q-Chem 5.0, Q-Chem, Inc., Pleasanton, CA (2017)
 Q-Chem 5.0.1 for Intel X86 EM64T Linux

User input:
--------------------------------------------------------------
$molecule
0  1
O -6.5076096768 1.2170970227 0.1502885204
C -5.2819580372 1.0257207686 -0.0046254765
C -4.63404958 -0.0913975233 -0.9021446628
C -3.1361997548 -0.5119704954 -0.5838985184
C -2.4010079803 0.3067681752 0.534042915
O -1.6754514546 1.3746672893 -0.1012002907
C -0.8550325307 2.0924284046 0.9009710214
C 0.6117300393 2.2219546407 0.3737080081
O 1.3842019449 1.0626073222 0.888124883
C 2.4542828284 0.7333063197 0.0010479487
C 3.2308096382 -0.4829900801 0.6073348821
C 4.4703163112 -0.9426434066 -0.264072979
C 4.7292789235 -0.0574651155 -1.5387091061
O 5.4908890968 0.9271257382 -1.6401772316
O -4.2727804475 1.8445973805 0.5878156886
O 4.0054602583 -0.6437900628 -2.6316624868
O 2.6864174134 1.3285288365 -1.0754774475
C 4.1518537235 0.2015228854 -3.8368773323
C 3.9403048679 -0.1163978844 1.9828704413
C 4.3201899197 -1.4647112635 2.7106933554
C 5.5489240521 -1.9377036446 1.8489311208
C 5.6466927996 -0.7708862783 0.7883275628
O 5.2456897261 0.4321553747 1.5560227025
H 2.5098987195 -1.3086502725 0.7497272667
H 4.3517621833 -1.9912099855 -0.5891739775
H 3.3841950705 0.6169124955 2.5987455606
H 4.6090817042 -1.269817642 3.7557743063
H 3.489009357 -2.1879722875 2.7023539368
H 6.4693930912 -1.989176786 2.4518166534
H 5.3829672222 -2.9172711228 1.3729307901
H 6.6444962483 -0.6195078586 0.3333941791
O -2.3259806414 0.0327875705 1.7518943987
C -4.8823042249 2.860956319 1.4747554153
C -5.3904686064 -1.4663606665 -0.655807974
C -5.0484682998 -2.4638176909 -1.8304074829
C -3.5792735479 -2.885843021 -1.4545075723
C -3.3430502809 -2.0279824167 -0.1503971904
O -4.6692994131 -2.029597986 0.5083970455
H -4.7285792212 0.2345059804 -1.9550239943
H -2.5252391467 -0.4345750576 -1.5007892698
H -5.4565736448 2.3889606984 2.2977629099
H -6.4678270252 -1.3428785132 -0.4295397685
H -5.7340435966 -3.3258271901 -1.8127104432
H -5.1142028726 -1.9811129101 -2.8184939911
H -3.5149102728 -3.9613289464 -1.2243586035
H -2.8511234704 -2.6499534671 -2.2469117211
H -2.5699396157 -2.4118879448 0.5429984341
H -5.5579337123 3.5370252358 0.9120005917
H -4.0397860573 3.4402755412 1.8948751784
H 3.5979771426 -0.3130663598 -4.6436851878
H 5.2151336222 0.3168984655 -4.1316195584
H 3.7192726508 1.2097882702 -3.6728996642
H 0.6387695241 2.2431961467 -0.7372727005
H 1.0688672261 3.1633724491 0.7510179824
H -0.892121424 1.533263029 1.8624483333
H -1.2861790126 3.1057349797 1.0513545284
$end

$rem
JOBTYPE                   OPT
METHOD                    B3LYP
DFT_D                     d3_op
BASIS                     STO-3G
GEOM_OPT_MAX_CYCLES       100
GEOM_OPT_TOL_GRADIENT     300
GEOM_OPT_TOL_DISPLACEMENT 1200
GEOM_OPT_TOL_ENERGY       100
SYMMETRY                  False
THRESH                    12
SCF_CONVERGENCE           8
MAX_SUB_FILE_NUM          128
MEM_STATIC                400
MEM_TOTAL                 4000
$end
--------------------------------------------------------------

   16   -1510.2825099811      5.70E-09 Convergence criterion met
 Total energy in the final basis set = -1510.28250998
   13   -1510.2835008171      8.00E-09 Convergence criterion met
 Total energy in the final basis set = -1510.28350082
   13   -1510.2841878962      1.00E-08 Convergence criterion met
 Total energy in the final basis set = -1510.28418790
   13   -1510.2850331791      5.80E-09 Convergence criterion met
 Total energy in the final basis set = -1510.28503318
   13   -1510.2858450569      6.48E-09 Convergence criterion met
 Total energy in the final basis set = -1510.28584506
   14   -1510.2866165199      5.00E-09 Convergence criterion met
 Total energy in the final basis set = -1510.28661652
   14   -1510.2875414864      6.04E-09 Convergence criterion met
 Total energy in the final basis set = -1510.28754149
   14   -1510.2859384095      5.33E-09 Convergence criterion met
   12   -1510.3054895953      6.00E-09 Convergence criterion met
 Total energy in the final basis set = -1510.30548960
   12   -1510.3055407336      5.79E-09 Convergence criterion met
 Total energy in the final basis set = -1510.30554073
   11   -1510.3055807170      7.67E-09 Convergence criterion met
 Total energy in the final basis set = -1510.30558072
   11   -1510.3055980845      6.89E-09 Convergence criterion met
 Total energy in the final basis set = -1510.30559808
   10   -1510.3056186145      8.60E-09 Convergence criterion met
 Total energy in the final basis set = -1510.30561861
   10   -1510.3056135238      5.68E-09 Convergence criterion met
 Total energy in the final basis set = -1510.30561352

             Standard Nuclear Orientation (Angstroms)
    I     Atom           X                Y                Z
 ----------------------------------------------------------------
    1      O      -1.2847289285     0.7675384366     1.8657356606
    2      C      -2.3892429963     0.5746773769     1.3009154772
    3      C      -2.7823916060    -0.6316215875     0.3672713858
    4      C      -2.1582712185    -0.5045393763    -1.0802179328
    5      C      -1.6697184429     0.9451203054    -1.3987020249
    6      O      -1.1338055758     0.9744084491    -2.7227825284
    7      C      -0.5910468356     2.3198095065    -3.0359284626
    8      C       0.9398667021     2.3932016606    -2.6781888462
    9      O       1.1337422429     2.1787500550    -1.2258121668
   10      C       1.3770351604     0.7901589545    -0.9607417806
   11      C       1.3663059648     0.5398802922     0.5748574950
   12      C       2.0818510942    -0.8114865922     0.9882406904
   13      C       2.7700702545    -1.5577457785    -0.2080466061
   14      O       3.9030721584    -1.3523973933    -0.6933663921
   15      O      -3.5504059514     1.3733794169     1.5292511524
   16      O       1.9001094649    -2.6234080140    -0.6300329514
   17      O       1.5275513532    -0.0670908552    -1.8647897196
   18      C       2.4737646202    -3.2944091370    -1.8165920216
   19      C       2.2059707989     1.6015958132     1.4016898283
   20      C       1.7247524012     1.5087457931     2.9025528123
   21      C       2.3992279111     0.1577144868     3.3473040087
   22      C       3.1509636799    -0.2652607125     2.0230300214
   23      O       3.5705384974     1.0270790355     1.4312427858
   24      H       0.3046018491     0.5305307690     0.9260201985
   25      H       1.3437800586    -1.4996080602     1.4362271459
   26      H       2.2151021090     2.6174762483     0.9616689202
   27      H       2.1019080928     2.3624583959     3.4876235995
   28      H       0.6246788056     1.4764634961     2.9681287699
   29      H       3.1200985386     0.3149510729     4.1654075727
   30      H       1.6632171850    -0.5984287460     3.6641574830
   31      H       4.0293932845    -0.9239034205     2.1657736518
   32      O      -1.7671619123     1.9460054492    -0.6505076607
   33      C      -3.1921718148     2.5530000847     2.3507377921
   34      C      -2.0533747715    -1.9432900419     0.8734724308
   35      C      -2.5332082839    -3.1872762723     0.0228366093
   36      C      -1.6953699998    -3.0041429217    -1.2989719792
   37      C      -1.0074516872    -1.6154478413    -1.0214482791
   38      O      -0.6673252224    -1.7083141491     0.4157890091
   39      H      -3.8825371564    -0.7175943851     0.3385705780
   40      H      -2.8991731247    -0.7779869838    -1.8537306303
   41      H      -2.4479423375     3.1878974841     1.8282302731
   42      H      -2.0794117568    -2.0843431082     1.9712667107
   43      H      -2.2810018201    -4.1275079566     0.5377634243
   44      H      -3.6199492943    -3.1655420429    -0.1584180248
   45      H      -0.9277308965    -3.7883673921    -1.3973989445
   46      H      -2.3190996337    -2.9975167919    -2.2070167105
   47      H      -0.0938405476    -1.3784726538    -1.6065167231
   48      H      -2.7773867282     2.2544595924     3.3351037996
   49      H      -4.1297054013     3.1198182398     2.4980334453
   50      H       1.8009220084    -4.1408500952    -2.0476254048
   51      H       3.4972591500    -3.6750829848    -1.6221307973
   52      H       2.5140227183    -2.6059885945    -2.6857995505
   53      H       1.4954125954     1.6187709740    -3.2490606563
   54      H       1.3290860136     3.4040661453    -2.9155658246
   55      H      -1.1482259781     3.0928259872    -2.4655329550
   56      H      -0.7295263315     2.4715596887    -4.1258406797
 ----------------------------------------------------------------

    9   -1510.3056143066      6.26E-09 Convergence criterion met
 Total energy in the final basis set = -1510.30561431
 Final energy is   -1510.30561430662
 **  OPTIMIZATION CONVERGED  **

                    Orbital Energies (a.u.)
 --------------------------------------------------------------

 Alpha MOs
 -- Occupied --
-18.948 -18.937 -18.935 -18.909 -18.891 -18.889 -18.874 -18.873
-18.867 -18.847 -10.112 -10.104 -10.097 -10.080 -10.075 -10.074
-10.063 -10.062 -10.054 -10.046 -10.042 -10.040 -10.040 -10.039
-10.021 -10.019 -10.011 -10.009 -10.002  -9.997  -1.029  -1.012
 -1.009  -0.986  -0.972  -0.951  -0.950  -0.936  -0.935  -0.912
 -0.766  -0.744  -0.727  -0.720  -0.704  -0.699  -0.684  -0.663
 -0.645  -0.619  -0.593  -0.570  -0.547  -0.539  -0.528  -0.520
 -0.515  -0.501  -0.486  -0.470  -0.461  -0.457  -0.444  -0.439
 -0.432  -0.426  -0.417  -0.414  -0.411  -0.405  -0.398  -0.395
 -0.392  -0.381  -0.371  -0.366  -0.359  -0.356  -0.349  -0.345
 -0.341  -0.335  -0.331  -0.329  -0.322  -0.317  -0.313  -0.308
 -0.306  -0.304  -0.295  -0.289  -0.285  -0.277  -0.274  -0.266
 -0.260  -0.256  -0.252  -0.245  -0.235  -0.231  -0.213  -0.200
 -0.177  -0.171  -0.164  -0.156  -0.154  -0.150  -0.144  -0.128
 -0.125

          Ground-State Mulliken Net Atomic Charges

     Atom                 Charge (a.u.)
  ----------------------------------------
      1 O                    -0.223282
      2 C                     0.223057
      3 C                    -0.080761
      4 C                    -0.081712
      5 C                     0.210172
      6 O                    -0.168341
      7 C                    -0.052667
      8 C                    -0.053475
      9 O                    -0.169927
     10 C                     0.211086
     11 C                    -0.092417
     12 C                    -0.083210
     13 C                     0.210289
     14 O                    -0.221414
     15 O                    -0.166846
     16 O                    -0.171876
     17 O                    -0.219724
     18 C                    -0.129354
     19 C                     0.023112
     20 C                    -0.147261
     21 C                    -0.143791
     22 C                     0.024386
     23 O                    -0.192892
     24 H                     0.116941
     25 H                     0.096922
     26 H                     0.083607
     27 H                     0.070577
     28 H                     0.086194
     29 H                     0.072562
     30 H                     0.072527
     31 H                     0.080356
     32 O                    -0.208346
     33 C                    -0.127789
     34 C                     0.025387
     35 C                    -0.144824
     36 C                    -0.141566
     37 C                     0.021120
     38 O                    -0.187055
     39 H                     0.086414
     40 H                     0.087380
     41 H                     0.095460
     42 H                     0.082358
     43 H                     0.078706
     44 H                     0.072648
     45 H                     0.080994
     46 H                     0.072726
     47 H                     0.105751
     48 H                     0.088470
     49 H                     0.089749
     50 H                     0.081444
     51 H                     0.085939
     52 H                     0.088251
     53 H                     0.102083
     54 H                     0.091179
     55 H                     0.099202
     56 H                     0.091481
  ----------------------------------------
  Sum of atomic charges =    -0.000000

                    Cartesian Multipole Moments
 -----------------------------------------------------------------
    Charge (ESU x 10^10)
                 0.0000
    Dipole Moment (Debye)
         X      -4.4979      Y       0.0028      Z      -0.9885
       Tot       4.6053
    Quadrupole Moments (Debye-Ang)
        XX    -169.0879     XY       0.2929     YY    -149.0881
        XZ      -0.0603     YZ      -3.2986     ZZ    -148.7487

 Total job time:  293.58s(wall), 13948.86s(cpu)
        *  Thank you very much for using Q-Chem.  Have a nice day.  *
