 Q-Chem 5.0, Q-Chem, Inc., Pleasanton, CA (2017)
 Q-Chem 5.0.1 for Intel X86 EM64T Linux

User input:
--------------------------------------------------------------
$molecule
0  1
O -6.3834490414 0.8407803714 -0.0952668673
C -5.2488989572 0.5621207937 -0.5355176469
C -4.5469784241 -0.8408497388 -0.5519141935
C -2.9930137735 -0.7983279482 -0.2399705236
C -2.4866656782 0.6229513287 0.1925392464
O -1.4215244812 1.0020869642 -0.691841583
C -0.8488626129 2.3054605233 -0.2778380951
C 0.6270520757 2.3643652589 -0.7919643133
O 1.5407507576 1.8578191486 0.262253812
C 2.3298825438 0.7750890584 -0.2350249265
C 3.283512793 0.2846642268 0.9062617822
C 4.3842695553 -0.7292900147 0.3917074296
C 4.21080182 -1.1867388069 -1.1038194713
O 4.8621561556 -0.7980646441 -2.0962040964
O -4.390777796 1.4980946842 -1.2034574237
O 3.2544537522 -2.258027729 -1.1241797396
O 2.2593729705 0.3332192331 -1.405024921
C 3.0061530984 -2.6772354876 -2.5208561562
C 4.1967946927 1.4808433664 1.4151345048
C 4.950438467 1.0281445108 2.7285012946
C 6.0677034218 0.0917065537 2.135363046
C 5.7038851096 0.1270870476 0.6003729883
O 5.2620730436 1.5261082822 0.3879406547
H 2.6727474693 -0.1437136197 1.7218744778
H 4.3900161923 -1.6352455271 1.0232068252
H 3.6672568397 2.4512873196 1.4787414518
H 5.381908415 1.9006405648 3.2443709301
H 4.2807720742 0.5010897335 3.4270998458
H 7.0734699258 0.5088628265 2.3027678363
H 6.0334045014 -0.9291404809 2.5480197269
H 6.5237444394 -0.127108354 -0.098871316
O -2.8441438346 1.2922055816 1.1862112361
C -4.9729667917 2.8577136213 -1.1485753594
C -5.0761277368 -1.7886841508 0.6025662395
C -4.7103412543 -3.2753754484 0.2203859612
C -3.1551298824 -3.2737123298 0.4653732459
C -2.9272778842 -1.80129507 0.9936075217
O -4.1698298723 -1.4942224791 1.7370042632
H -4.7264370129 -1.2904339022 -1.5467450685
H -2.3903061516 -1.1430333344 -1.0977169729
H -4.9928191804 3.2422177578 -0.108054611
H -6.1307468482 -1.6042386785 0.8862310488
H -5.223479399 -3.9825646416 0.8913506911
H -4.9780556973 -3.517309712 -0.820533745
H -2.8646100847 -4.0076930065 1.2337753636
H -2.5809653661 -3.4776539295 -0.452715086
H -2.0428883883 -1.6669749955 1.6461765472
H -6.0050037109 2.8765125968 -1.5537603229
H -4.3168899392 3.4974035712 -1.7670927247
H 2.3097421476 -3.5342465907 -2.4667222334
H 3.9413918557 -2.9894180928 -3.0292372984
H 2.5418689417 -1.8578674886 -3.1072275071
H 0.754547173 1.7459226242 -1.7076645818
H 0.9092114745 3.416327364 -1.009783557
H -0.8950373635 2.4186245877 0.8272055459
H -1.4370917944 3.132982878 -0.7333395116
$end

$rem
JOBTYPE                   OPT
METHOD                    B3LYP
DFT_D                     d3_op
BASIS                     STO-3G
GEOM_OPT_MAX_CYCLES       100
GEOM_OPT_TOL_GRADIENT     300
GEOM_OPT_TOL_DISPLACEMENT 1200
GEOM_OPT_TOL_ENERGY       100
SYMMETRY                  False
THRESH                    12
SCF_CONVERGENCE           8
MAX_SUB_FILE_NUM          128
MEM_STATIC                400
MEM_TOTAL                 4000
$end
--------------------------------------------------------------

   16   -1510.2847148121      5.10E-09 Convergence criterion met
 Total energy in the final basis set = -1510.28471481
   14   -1510.2854510247      4.07E-09 Convergence criterion met
 Total energy in the final basis set = -1510.28545102
   13   -1510.2861083915      9.76E-09 Convergence criterion met
 Total energy in the final basis set = -1510.28610839
   13   -1510.2868889278      9.56E-09 Convergence criterion met
 Total energy in the final basis set = -1510.28688893
   14   -1510.2877563159      2.33E-09 Convergence criterion met
 Total energy in the final basis set = -1510.28775632
   15   -1510.2841580568      2.96E-09 Convergence criterion met
 Total energy in the final basis set = -1510.28415806
   13   -1510.2879454070      6.53E-09 Convergence criterion met
 Total energy in the final basis set = -1510.28794541
   15   -1510.2832833793      2.53E-09 Convergence criterion met
   13   -1510.3026241815      3.81E-09 Convergence criterion met
 Total energy in the final basis set = -1510.30262418
   11   -1510.3026333936      8.49E-09 Convergence criterion met
 Total energy in the final basis set = -1510.30263339
   11   -1510.3026455336      7.77E-09 Convergence criterion met
 Total energy in the final basis set = -1510.30264553
   10   -1510.3026534947      8.41E-09 Convergence criterion met
 Total energy in the final basis set = -1510.30265349
    9   -1510.3026558437      6.21E-09 Convergence criterion met
 Total energy in the final basis set = -1510.30265584
   10   -1510.3026649705      6.38E-09 Convergence criterion met
 Total energy in the final basis set = -1510.30266497

             Standard Nuclear Orientation (Angstroms)
    I     Atom           X                Y                Z
 ----------------------------------------------------------------
    1      O      -2.5722558558     1.4548495975     2.2264669124
    2      C      -3.1249167221     1.0026134822     1.2014054828
    3      C      -2.9421348393    -0.4334156023     0.5776794499
    4      C      -2.1078027342    -0.4823236967    -0.7704760530
    5      C      -1.5644202294     0.9339880462    -1.1593450529
    6      O      -0.9901328931     0.8928675077    -2.4697824394
    7      C      -0.5413025581     2.2522977012    -2.8663283126
    8      C       0.9549074743     2.4978786936    -2.4408109554
    9      O       1.1251064401     2.1030391449    -1.0223860397
   10      C       1.7784788335     0.8309004739    -0.9533489400
   11      C       1.7523582632     0.3111282779     0.5154239501
   12      C       2.4560875399    -1.0978020209     0.6594783106
   13      C       2.8859643005    -1.7585277839    -0.6996950602
   14      O       4.0408133570    -1.9381593960    -1.1362325921
   15      O      -4.1881854940     1.6570581492     0.4899879075
   16      O       1.6980079906    -2.2970103317    -1.3231627200
   17      O       2.2883103089     0.2597069526    -1.9465896713
   18      C       2.0266908077    -2.8454899017    -2.6550050311
   19      C       2.6647230034     1.1982942207     1.4601122587
   20      C       2.3853504763     0.7829429036     2.9591134468
   21      C       3.1778568735    -0.5738050021     3.0554678848
   22      C       3.6968279981    -0.7250294258     1.5729609428
   23      O       4.0215449841     0.6691023058     1.1856716787
   24      H       0.6986554645     0.2379165906     0.8625895007
   25      H       1.7661295109    -1.7938275884     1.1706931251
   26      H       2.6153610953     2.2845422900     1.2509888059
   27      H       2.7863506221     1.5389239649     3.6526491084
   28      H       1.3077151203     0.6588877635     3.1519651006
   29      H       4.0270939191    -0.4954484759     3.7531086631
   30      H       2.5415853966    -1.4182701532     3.3646793144
   31      H       4.5794559959    -1.3786056987     1.4320576195
   32      O      -1.6549824854     1.9755592764    -0.4692483095
   33      C      -4.3626559637     3.0298061804     1.0120832856
   34      C      -2.0634278784    -1.3537364154     1.5209507660
   35      C      -2.3363795178    -2.8572844679     1.1393094651
   36      C      -1.5983486879    -2.9477024709    -0.2477083694
   37      C      -0.9599957390    -1.5080208639    -0.3693202672
   38      O      -0.6788430195    -1.1352260078     1.0371118254
   39      H      -3.9472034803    -0.8631326277     0.4186221077
   40      H      -2.7067486963    -0.8679374401    -1.6150261025
   41      H      -3.4493317329     3.6386545963     0.8506969508
   42      H      -2.1388665666    -1.0992850888     2.5959448237
   43      H      -1.8835741239    -3.5328203840     1.8825179571
   44      H      -3.4128681250    -3.0801303798     1.0672073360
   45      H      -0.8041762855    -3.7111826363    -0.2393697027
   46      H      -2.2866175887    -3.1634538829    -1.0803296877
   47      H      -0.0204440555    -1.4944141079    -0.9682515542
   48      H      -4.6000479242     3.0307376276     2.0957384999
   49      H      -5.2058222316     3.4697215141     0.4481913565
   50      H       1.0936412557    -3.2936887462    -3.0437523367
   51      H       2.8168427806    -3.6213714497    -2.5944300526
   52      H       2.3681802831    -2.0437988009    -3.3417804471
   53      H       1.6419598721     1.8847934889    -3.0629357189
   54      H       1.2033751490     3.5748286792    -2.5318404842
   55      H      -1.1951152887     3.0129835981    -2.3908521798
   56      H      -0.6329534119     2.3043339148    -3.9702264076
 ----------------------------------------------------------------

    9   -1510.3026656233      4.50E-09 Convergence criterion met
 Total energy in the final basis set = -1510.30266562
 Final energy is   -1510.30266562331
 **  OPTIMIZATION CONVERGED  **

                    Orbital Energies (a.u.)
 --------------------------------------------------------------

 Alpha MOs
 -- Occupied --
-18.946 -18.939 -18.921 -18.918 -18.893 -18.890 -18.884 -18.877
-18.862 -18.859 -10.109 -10.103 -10.091 -10.090 -10.079 -10.073
-10.060 -10.056 -10.054 -10.052 -10.051 -10.048 -10.042 -10.034
-10.024 -10.023 -10.021 -10.019 -10.011 -10.009  -1.028  -1.015
 -0.998  -0.997  -0.974  -0.960  -0.948  -0.940  -0.925  -0.924
 -0.764  -0.754  -0.729  -0.718  -0.710  -0.703  -0.692  -0.655
 -0.654  -0.620  -0.595  -0.575  -0.545  -0.539  -0.537  -0.529
 -0.509  -0.505  -0.490  -0.472  -0.462  -0.458  -0.451  -0.441
 -0.430  -0.428  -0.420  -0.420  -0.406  -0.404  -0.404  -0.401
 -0.397  -0.384  -0.371  -0.364  -0.362  -0.356  -0.350  -0.345
 -0.341  -0.336  -0.334  -0.329  -0.328  -0.324  -0.317  -0.312
 -0.308  -0.305  -0.302  -0.297  -0.293  -0.277  -0.274  -0.271
 -0.267  -0.257  -0.248  -0.245  -0.244  -0.236  -0.222  -0.199
 -0.174  -0.166  -0.164  -0.162  -0.160  -0.151  -0.142  -0.140
 -0.135

          Ground-State Mulliken Net Atomic Charges

     Atom                 Charge (a.u.)
  ----------------------------------------
      1 O                    -0.220926
      2 C                     0.215914
      3 C                    -0.082371
      4 C                    -0.079327
      5 C                     0.214204
      6 O                    -0.169865
      7 C                    -0.052066
      8 C                    -0.056001
      9 O                    -0.169016
     10 C                     0.213132
     11 C                    -0.088152
     12 C                    -0.084176
     13 C                     0.218634
     14 O                    -0.214384
     15 O                    -0.177750
     16 O                    -0.180778
     17 O                    -0.211101
     18 C                    -0.128097
     19 C                     0.024579
     20 C                    -0.143692
     21 C                    -0.142998
     22 C                     0.023749
     23 O                    -0.192450
     24 H                     0.112339
     25 H                     0.090018
     26 H                     0.084984
     27 H                     0.076161
     28 H                     0.080256
     29 H                     0.075692
     30 H                     0.073435
     31 H                     0.086650
     32 O                    -0.202345
     33 C                    -0.128608
     34 C                     0.024982
     35 C                    -0.143771
     36 C                    -0.144358
     37 C                     0.012029
     38 O                    -0.196799
     39 H                     0.083986
     40 H                     0.087618
     41 H                     0.091161
     42 H                     0.088983
     43 H                     0.077159
     44 H                     0.073655
     45 H                     0.079526
     46 H                     0.072133
     47 H                     0.108193
     48 H                     0.086247
     49 H                     0.085350
     50 H                     0.084744
     51 H                     0.088368
     52 H                     0.092717
     53 H                     0.103046
     54 H                     0.090352
     55 H                     0.097903
     56 H                     0.091133
  ----------------------------------------
  Sum of atomic charges =    -0.000000

                    Cartesian Multipole Moments
 -----------------------------------------------------------------
    Charge (ESU x 10^10)
                -0.0000
    Dipole Moment (Debye)
         X      -3.4164      Y      -0.6011      Z      -1.3759
       Tot       3.7318
    Quadrupole Moments (Debye-Ang)
        XX    -170.4979     XY       2.1277     YY    -149.3467
        XZ       4.7756     YZ      -6.7154     ZZ    -153.2414

 Total job time:  154.35s(wall), 7350.27s(cpu)
        *  Thank you very much for using Q-Chem.  Have a nice day.  *
