 Q-Chem 5.0, Q-Chem, Inc., Pleasanton, CA (2017)
 Q-Chem 5.0.1 for Intel X86 EM64T Linux

User input:
--------------------------------------------------------------
$molecule
0  1
O -3.94934 -3.66094 2.70899
C -3.26408 -4.56952 2.26188
C -3.36658 -6.02376 2.66595
C -2.05289 -6.81295 2.78951
C -0.77319 -6.01552 2.66882
O 0.00604 -6.53623 1.67529
C 1.2727 -5.88093 1.55118
C 2.29525 -6.82686 0.93009
O 3.00401 -7.52844 1.96368
C 2.9554 -8.88164 1.88877
C 3.72799 -9.56027 2.99477
C 3.91891 -11.07359 2.81673
C 3.63813 -11.6164 1.42993
O 4.48563 -11.93773 0.60954
O -2.51861 -4.32158 1.15202
O 2.34151 -11.94471 1.1751
O 2.29572 -9.45377 1.03482
C 1.90049 -12.52814 0.00533
C 5.20231 -9.1002 3.07891
C 5.72707 -9.33465 4.49397
C 5.80004 -10.84641 4.51753
C 5.44249 -11.15699 3.05855
O 5.92299 -10.05013 2.33882
H 3.22398 -9.28899 3.94973
H 3.36265 -11.69624 3.55155
H 5.36076 -8.03871 2.78965
H 6.76375 -8.92796 4.52277
H 5.13369 -8.87557 5.31373
H 6.84757 -11.14299 4.74692
H 5.09725 -11.34603 5.21903
H 5.86127 -12.14562 2.76631
O -0.49391 -5.04201 3.36046
C -2.35823 -3.07653 0.58121
C -3.93502 -6.20671 4.08699
C -4.50833 -7.6157 4.24672
C -3.23538 -8.43151 4.32699
C -2.18549 -7.32131 4.2365
O -2.79089 -6.23993 4.90435
H -4.04043 -6.49368 1.91498
H -2.01948 -7.66563 2.072
H -1.88725 -2.38154 1.30894
H -4.70787 -5.45373 4.35424
H -5.02316 -7.66881 5.23259
H -5.21564 -7.91402 3.44313
H -3.18437 -8.90504 5.33301
H -3.11491 -9.20676 3.53976
H -1.21559 -7.67343 4.65316
H -3.34118 -2.67307 0.2569
H -1.69798 -3.16599 -0.30567
H 0.80354 -12.68104 0.06637
H 2.39179 -13.51382 -0.14049
H 2.122 -11.86601 -0.85893
H 1.83762 -7.41889 0.10676
H 3.06686 -6.18974 0.44653
H 1.6886 -5.44376 2.4885
H 1.11042 -5.05044 0.82882
$end

$opt
CONSTRAINT
tors           1           2           3           4    -141.340
tors           3           4           5           6    -124.204
tors           4           5           6           7    -176.597
tors           5           6           7           8    +154.599
tors           6           7           8           9     -92.157
tors           7           8           9          10    +123.688
tors           8           9          10          11    +179.513
tors           9          10          11          12    -169.444
tors          11          12          13          14    +103.422
ENDCONSTRAINT
$end

$rem
JOBTYPE                   OPT
METHOD                    B3LYP
DFT_D                     d3_op
BASIS                     STO-3G
GEOM_OPT_MAX_CYCLES       100
GEOM_OPT_TOL_GRADIENT     300
GEOM_OPT_TOL_DISPLACEMENT 1200
GEOM_OPT_TOL_ENERGY       100
SYMMETRY                  False
THRESH                    12
SCF_CONVERGENCE           8
MAX_SUB_FILE_NUM          128
MEM_STATIC                400
MEM_TOTAL                 4000
$end
--------------------------------------------------------------

   15   -1510.1516160743      5.76E-09 Convergence criterion met
 Total energy in the final basis set = -1510.15161607
   14   -1510.2209125116      7.32E-09 Convergence criterion met
 Total energy in the final basis set = -1510.22091251
   14   -1510.2574110760      6.04E-09 Convergence criterion met
 Total energy in the final basis set = -1510.25741108
   14   -1510.2730435081      7.09E-09 Convergence criterion met
 Total energy in the final basis set = -1510.27304351
   14   -1510.2786443161      4.67E-09 Convergence criterion met
 Total energy in the final basis set = -1510.27864432
   13   -1510.2811826991      3.87E-09 Convergence criterion met
 Total energy in the final basis set = -1510.28118270
   13   -1510.2825987345      2.41E-09 Convergence criterion met
 Total energy in the final basis set = -1510.28259873
   12   -1510.2832618559      6.92E-09 Convergence criterion met
   11   -1510.2845839585      9.90E-09 Convergence criterion met
 Total energy in the final basis set = -1510.28458396
   11   -1510.2846318320      7.80E-09 Convergence criterion met
 Total energy in the final basis set = -1510.28463183
   11   -1510.2846572396      4.92E-09 Convergence criterion met
 Total energy in the final basis set = -1510.28465724
   10   -1510.2846753761      9.45E-09 Convergence criterion met
 Total energy in the final basis set = -1510.28467538
   10   -1510.2846833910      9.45E-09 Convergence criterion met
 Total energy in the final basis set = -1510.28468339
    9   -1510.2846865479      8.85E-09 Convergence criterion met
 Total energy in the final basis set = -1510.28468655

             Standard Nuclear Orientation (Angstroms)
    I     Atom           X                Y                Z
 ----------------------------------------------------------------
    1      O      -6.3834490414     0.8407803714    -0.0952668673
    2      C      -5.2488989572     0.5621207937    -0.5355176469
    3      C      -4.5469784241    -0.8408497388    -0.5519141935
    4      C      -2.9930137735    -0.7983279482    -0.2399705236
    5      C      -2.4866656782     0.6229513287     0.1925392464
    6      O      -1.4215244812     1.0020869642    -0.6918415830
    7      C      -0.8488626129     2.3054605233    -0.2778380951
    8      C       0.6270520757     2.3643652589    -0.7919643133
    9      O       1.5407507576     1.8578191486     0.2622538120
   10      C       2.3298825438     0.7750890584    -0.2350249265
   11      C       3.2835127930     0.2846642268     0.9062617822
   12      C       4.3842695553    -0.7292900147     0.3917074296
   13      C       4.2108018200    -1.1867388069    -1.1038194713
   14      O       4.8621561556    -0.7980646441    -2.0962040964
   15      O      -4.3907777960     1.4980946842    -1.2034574237
   16      O       3.2544537522    -2.2580277290    -1.1241797396
   17      O       2.2593729705     0.3332192331    -1.4050249210
   18      C       3.0061530984    -2.6772354876    -2.5208561562
   19      C       4.1967946927     1.4808433664     1.4151345048
   20      C       4.9504384670     1.0281445108     2.7285012946
   21      C       6.0677034218     0.0917065537     2.1353630460
   22      C       5.7038851096     0.1270870476     0.6003729883
   23      O       5.2620730436     1.5261082822     0.3879406547
   24      H       2.6727474693    -0.1437136197     1.7218744778
   25      H       4.3900161923    -1.6352455271     1.0232068252
   26      H       3.6672568397     2.4512873196     1.4787414518
   27      H       5.3819084150     1.9006405648     3.2443709301
   28      H       4.2807720742     0.5010897335     3.4270998458
   29      H       7.0734699258     0.5088628265     2.3027678363
   30      H       6.0334045014    -0.9291404809     2.5480197269
   31      H       6.5237444394    -0.1271083540    -0.0988713160
   32      O      -2.8441438346     1.2922055816     1.1862112361
   33      C      -4.9729667917     2.8577136213    -1.1485753594
   34      C      -5.0761277368    -1.7886841508     0.6025662395
   35      C      -4.7103412543    -3.2753754484     0.2203859612
   36      C      -3.1551298824    -3.2737123298     0.4653732459
   37      C      -2.9272778842    -1.8012950700     0.9936075217
   38      O      -4.1698298723    -1.4942224791     1.7370042632
   39      H      -4.7264370129    -1.2904339022    -1.5467450685
   40      H      -2.3903061516    -1.1430333344    -1.0977169729
   41      H      -4.9928191804     3.2422177578    -0.1080546110
   42      H      -6.1307468482    -1.6042386785     0.8862310488
   43      H      -5.2234793990    -3.9825646416     0.8913506911
   44      H      -4.9780556973    -3.5173097120    -0.8205337450
   45      H      -2.8646100847    -4.0076930065     1.2337753636
   46      H      -2.5809653661    -3.4776539295    -0.4527150860
   47      H      -2.0428883883    -1.6669749955     1.6461765472
   48      H      -6.0050037109     2.8765125968    -1.5537603229
   49      H      -4.3168899392     3.4974035712    -1.7670927247
   50      H       2.3097421476    -3.5342465907    -2.4667222334
   51      H       3.9413918557    -2.9894180928    -3.0292372984
   52      H       2.5418689417    -1.8578674886    -3.1072275071
   53      H       0.7545471730     1.7459226242    -1.7076645818
   54      H       0.9092114745     3.4163273640    -1.0097835570
   55      H      -0.8950373635     2.4186245877     0.8272055459
   56      H      -1.4370917944     3.1329828780    -0.7333395116
 ----------------------------------------------------------------

    9   -1510.2846866906      3.46E-09 Convergence criterion met
 Total energy in the final basis set = -1510.28468669
 Final energy is   -1510.28468669062
 **  OPTIMIZATION CONVERGED  **

                    Orbital Energies (a.u.)
 --------------------------------------------------------------

 Alpha MOs
 -- Occupied --
-18.941 -18.939 -18.929 -18.918 -18.889 -18.888 -18.886 -18.881
-18.866 -18.859 -10.109 -10.103 -10.097 -10.089 -10.075 -10.073
-10.067 -10.061 -10.060 -10.059 -10.056 -10.053 -10.042 -10.039
-10.036 -10.032 -10.021 -10.021 -10.020 -10.019  -1.022  -1.016
 -1.006  -0.996  -0.970  -0.969  -0.946  -0.941  -0.932  -0.923
 -0.764  -0.763  -0.729  -0.723  -0.715  -0.705  -0.697  -0.664
 -0.654  -0.618  -0.598  -0.577  -0.547  -0.544  -0.538  -0.537
 -0.514  -0.511  -0.488  -0.476  -0.462  -0.455  -0.453  -0.451
 -0.432  -0.431  -0.427  -0.415  -0.414  -0.413  -0.403  -0.403
 -0.400  -0.381  -0.372  -0.368  -0.362  -0.355  -0.352  -0.351
 -0.344  -0.341  -0.333  -0.332  -0.331  -0.326  -0.324  -0.314
 -0.311  -0.306  -0.306  -0.301  -0.295  -0.287  -0.276  -0.274
 -0.272  -0.256  -0.255  -0.249  -0.243  -0.234  -0.234  -0.187
 -0.180  -0.171  -0.165  -0.163  -0.159  -0.149  -0.144  -0.143
 -0.140

          Ground-State Mulliken Net Atomic Charges

     Atom                 Charge (a.u.)
  ----------------------------------------
      1 O                    -0.207767
      2 C                     0.214784
      3 C                    -0.078790
      4 C                    -0.078743
      5 C                     0.213322
      6 O                    -0.174019
      7 C                    -0.050915
      8 C                    -0.054705
      9 O                    -0.173032
     10 C                     0.217602
     11 C                    -0.076903
     12 C                    -0.082027
     13 C                     0.215407
     14 O                    -0.217537
     15 O                    -0.170689
     16 O                    -0.175814
     17 O                    -0.206326
     18 C                    -0.128291
     19 C                     0.024320
     20 C                    -0.144273
     21 C                    -0.143597
     22 C                     0.024512
     23 O                    -0.190191
     24 H                     0.087327
     25 H                     0.083568
     26 H                     0.087638
     27 H                     0.078305
     28 H                     0.073478
     29 H                     0.077994
     30 H                     0.073261
     31 H                     0.088877
     32 O                    -0.220470
     33 C                    -0.128484
     34 C                     0.024212
     35 C                    -0.143439
     36 C                    -0.144305
     37 C                     0.025927
     38 O                    -0.186637
     39 H                     0.085070
     40 H                     0.086966
     41 H                     0.092983
     42 H                     0.090766
     43 H                     0.078451
     44 H                     0.073091
     45 H                     0.078110
     46 H                     0.073892
     47 H                     0.082529
     48 H                     0.092038
     49 H                     0.089345
     50 H                     0.084802
     51 H                     0.086574
     52 H                     0.091669
     53 H                     0.109444
     54 H                     0.087290
     55 H                     0.100157
     56 H                     0.083245
  ----------------------------------------
  Sum of atomic charges =     0.000000

                    Cartesian Multipole Moments
 -----------------------------------------------------------------
    Charge (ESU x 10^10)
                 0.0000
    Dipole Moment (Debye)
         X      -0.1805      Y      -0.8786      Z      -0.2032
       Tot       0.9197
    Quadrupole Moments (Debye-Ang)
        XX    -175.0840     XY      -2.4224     YY    -146.7301
        XZ      23.1203     YZ      -0.4914     ZZ    -162.0942

 Total job time:  51.47s(wall), 2447.15s(cpu)
        *  Thank you very much for using Q-Chem.  Have a nice day.  *
