 Q-Chem 5.0, Q-Chem, Inc., Pleasanton, CA (2017)
 Q-Chem 5.0.1 for Intel X86 EM64T Linux

User input:
--------------------------------------------------------------
$molecule
0  1
O -5.8163419473 0.7247371929 1.4240058248
C -5.0183702321 0.6449856165 0.4663113693
C -4.4401754167 -0.664659465 -0.1743941155
C -3.0084839069 -0.5298208899 -0.8313594861
C -2.2415120659 0.7738433814 -0.4247800577
O -1.5776695928 1.2761901653 -1.5952557949
C -0.724030545 2.4342787375 -1.2369421253
C 0.7117600355 2.203023735 -1.8381225244
O 1.7232256504 2.2042290461 -0.7505045166
C 2.2099763323 0.8779097455 -0.527365324
C 3.2792861341 0.9194497049 0.6128697555
C 3.9343718693 -0.4945174833 0.8846533013
C 3.2685946136 -1.6947101962 0.1134244816
O 3.7607652451 -2.3556673406 -0.8252512108
O -4.613243256 1.7611822994 -0.3373935712
O 2.047063998 -2.029529346 0.7924290651
O 1.8454828409 -0.1240921803 -1.1853931637
C 1.3735626239 -3.1407788153 0.0865086152
C 4.5505308017 1.7463809641 0.1349845988
C 5.496696481 1.9924438006 1.3759188383
C 6.1669310439 0.5771153287 1.5376026188
C 5.4252499171 -0.2362200041 0.4074367021
O 5.2838679939 0.7565020096 -0.6853603107
H 2.8195158046 1.3519504968 1.5200154299
H 3.8926827407 -0.7276761534 1.9636967625
H 4.3024779017 2.6466247872 -0.460387791
H 6.240706977 2.7709202066 1.1440502301
H 4.9316475697 2.3000578643 2.2703695747
H 7.2490856813 0.6185596717 1.3350433018
H 6.0101439261 0.1429631383 2.5377827663
H 5.9446871277 -1.141765939 0.0385371033
O -2.0954544273 1.2526363038 0.7215535226
C -5.1252281767 3.0225025414 0.2434564729
C -4.205058506 -1.8372182875 0.8692692303
C -4.2396473993 -3.1994442518 0.0740218104
C -2.8852299397 -3.1104840509 -0.7234509466
C -2.2747793807 -1.768880042 -0.1515555726
O -2.7760248834 -1.7084325116 1.2404428716
H -5.1700938615 -0.9838693019 -0.9428301588
H -3.0382138264 -0.6030144135 -1.9319901148
H -4.6582791581 3.2290920124 1.2281277783
H -4.8521890309 -1.7828176917 1.7664078367
H -4.2401096477 -4.0505940519 0.7736483946
H -5.1192271589 -3.2818612464 -0.5842780533
H -2.2237230151 -3.9628184363 -0.5010990067
H -3.0386874073 -3.0585134892 -1.8132099799
H -1.1695506916 -1.7078987873 -0.1698846808
H -6.2264581161 2.9951855408 0.371618755
H -4.8517239121 3.8214147685 -0.4700131021
H 0.4839440457 -3.3957850225 0.6919099921
H 2.0302548442 -4.0302897893 -0.002936793
H 1.0556512534 -2.8353761625 -0.9319702173
H 0.7423966517 1.2201489024 -2.3576649475
H 0.9862643417 3.016539166 -2.5393390558
H -0.6871806379 2.5164350741 -0.1273185878
H -1.1812172429 3.3563515053 -1.6535416275
$end

$rem
JOBTYPE                   OPT
METHOD                    B3LYP
DFT_D                     d3_op
BASIS                     STO-3G
GEOM_OPT_MAX_CYCLES       100
GEOM_OPT_TOL_GRADIENT     300
GEOM_OPT_TOL_DISPLACEMENT 1200
GEOM_OPT_TOL_ENERGY       100
SYMMETRY                  False
THRESH                    12
SCF_CONVERGENCE           8
MAX_SUB_FILE_NUM          128
MEM_STATIC                400
MEM_TOTAL                 4000
$end
--------------------------------------------------------------

   16   -1510.2839255820      5.59E-09 Convergence criterion met
 Total energy in the final basis set = -1510.28392558
   14   -1510.2826777970      3.92E-09 Convergence criterion met
 Total energy in the final basis set = -1510.28267780
   13   -1510.2853546166      9.64E-09 Convergence criterion met
 Total energy in the final basis set = -1510.28535462
   13   -1510.2862046767      7.68E-09 Convergence criterion met
 Total energy in the final basis set = -1510.28620468
   13   -1510.2872710306      3.11E-09 Convergence criterion met
 Total energy in the final basis set = -1510.28727103
   13   -1510.2882511649      6.72E-09 Convergence criterion met
 Total energy in the final basis set = -1510.28825116
   13   -1510.2894171218      8.85E-09 Convergence criterion met
 Total energy in the final basis set = -1510.28941712
   14   -1510.2904392473      6.77E-09 Convergence criterion met
    9   -1510.3055769663      7.59E-09 Convergence criterion met
 Total energy in the final basis set = -1510.30557697
   10   -1510.3055809133      6.47E-09 Convergence criterion met
 Total energy in the final basis set = -1510.30558091
    9   -1510.3055829969      6.57E-09 Convergence criterion met
 Total energy in the final basis set = -1510.30558300
    9   -1510.3055835540      7.25E-09 Convergence criterion met
 Total energy in the final basis set = -1510.30558355
    9   -1510.3055842489      8.01E-09 Convergence criterion met
 Total energy in the final basis set = -1510.30558425
    9   -1510.3055837839      8.73E-09 Convergence criterion met
 Total energy in the final basis set = -1510.30558378

             Standard Nuclear Orientation (Angstroms)
    I     Atom           X                Y                Z
 ----------------------------------------------------------------
    1      O      -0.8143468208     1.2266144910     1.8636217757
    2      C      -2.0159242284     1.1542530248     1.5068184318
    3      C      -2.7257632312    -0.0637854919     0.8037943922
    4      C      -2.3460594554    -0.1815541367    -0.7270628621
    5      C      -1.7230896753     1.1347690175    -1.2936924463
    6      O      -1.4131183100     0.9472983239    -2.6756643141
    7      C      -0.7588618777     2.1578986050    -3.2323768133
    8      C       0.8065219581     2.0408513300    -3.1165190729
    9      O       1.2023114309     1.9401918861    -1.6933396118
   10      C       1.3205746108     0.5617956073    -1.3141390442
   11      C       1.5241380322     0.4532662666     0.2232279296
   12      C       2.0774588059    -0.9603939565     0.6728485185
   13      C       2.4617702867    -1.9058313009    -0.5173321362
   14      O       3.5336511834    -1.9289766898    -1.1615831103
   15      O      -2.9978521452     2.1450723477     1.8117820529
   16      O       1.3964640231    -2.8594640966    -0.6960862443
   17      O       1.2245476502    -0.3877030999    -2.1287109178
   18      C       1.6980824882    -3.7454944348    -1.8417641875
   19      C       2.6387975095     1.4226014929     0.8026757504
   20      C       2.3826096924     1.5454166968     2.3552578521
   21      C       2.8832994092     0.1373442248     2.8508775986
   22      C       3.3589744055    -0.5193081179     1.4937028206
   23      O       3.8841925605     0.6266648707     0.7142979417
   24      H       0.5455258874     0.6523112360     0.7262829609
   25      H       1.3144746830    -1.4775203921     1.2807370657
   26      H       2.7426233183     2.3791928240     0.2550198734
   27      H       2.9813826286     2.3633561857     2.7865261506
   28      H       1.3156824835     1.7170294995     2.5733813293
   29      H       3.7273879889     0.2302961155     3.5527347592
   30      H       2.0839896961    -0.4481309319     3.3324856222
   31      H       4.1342274367    -1.3036022800     1.5917002258
   32      O      -1.5571768256     2.2088048491    -0.6689337638
   33      C      -2.3409104928     3.3298370555     2.4110298985
   34      C      -2.1081130970    -1.4159638233     1.3524412497
   35      C      -2.8907394146    -2.6500742500     0.7481294218
   36      C      -2.2749187880    -2.7324799881    -0.6998708910
   37      C      -1.3668924567    -1.4463485210    -0.7079107653
   38      O      -0.8025177235    -1.4466225948     0.6598457099
   39      H      -3.8159655962     0.0210725981     0.9547326428
   40      H      -3.2391244219    -0.4131611752    -1.3358202653
   41      H      -1.6177710767     3.7818015946     1.7019997533
   42      H      -1.9638106709    -1.4392802921     2.4498386969
   43      H      -2.6828345515    -3.5610470701     1.3312806554
   44      H      -3.9795775707    -2.4799688722     0.7368757401
   45      H      -1.6489153655    -3.6315730300    -0.8172742449
   46      H      -3.0390985809    -2.7217030622    -1.4935439251
   47      H      -0.5437784506    -1.4191581708    -1.4523586752
   48      H      -1.8064284837     3.0701229395     3.3474755788
   49      H      -3.1499636259     4.0502496454     2.6306630394
   50      H       1.5859505915    -4.7981674461    -1.5169469663
   51      H       2.7351699833    -3.5553478794    -2.1861540218
   52      H       0.9868278827    -3.5385876024    -2.6662983784
   53      H       1.1567363193     1.1409455277    -3.6658625493
   54      H       1.2800115061     2.9557050306    -3.5271573784
   55      H      -1.1095274843     3.0594182641    -2.6869877267
   56      H      -1.0542522806     2.2146405005    -4.2999347554
 ----------------------------------------------------------------

   10   -1510.3055828628      8.89E-09 Convergence criterion met
 Total energy in the final basis set = -1510.30558286
 Final energy is   -1510.30558286279
 **  OPTIMIZATION CONVERGED  **

                    Orbital Energies (a.u.)
 --------------------------------------------------------------

 Alpha MOs
 -- Occupied --
-18.948 -18.937 -18.935 -18.907 -18.892 -18.890 -18.874 -18.873
-18.868 -18.849 -10.113 -10.105 -10.097 -10.080 -10.076 -10.074
-10.063 -10.063 -10.056 -10.043 -10.041 -10.040 -10.039 -10.039
-10.022 -10.019 -10.011 -10.009 -10.002  -9.997  -1.029  -1.012
 -1.009  -0.986  -0.973  -0.951  -0.950  -0.936  -0.935  -0.912
 -0.767  -0.744  -0.727  -0.720  -0.704  -0.699  -0.684  -0.663
 -0.642  -0.619  -0.593  -0.570  -0.547  -0.540  -0.528  -0.520
 -0.515  -0.501  -0.486  -0.470  -0.460  -0.458  -0.443  -0.439
 -0.433  -0.426  -0.418  -0.414  -0.412  -0.406  -0.399  -0.395
 -0.392  -0.382  -0.372  -0.366  -0.359  -0.356  -0.349  -0.345
 -0.341  -0.336  -0.332  -0.330  -0.322  -0.318  -0.314  -0.308
 -0.306  -0.304  -0.295  -0.289  -0.286  -0.277  -0.274  -0.266
 -0.262  -0.256  -0.252  -0.244  -0.235  -0.226  -0.213  -0.200
 -0.178  -0.171  -0.164  -0.156  -0.151  -0.150  -0.145  -0.133
 -0.125

          Ground-State Mulliken Net Atomic Charges

     Atom                 Charge (a.u.)
  ----------------------------------------
      1 O                    -0.223462
      2 C                     0.223015
      3 C                    -0.080665
      4 C                    -0.081598
      5 C                     0.210348
      6 O                    -0.168288
      7 C                    -0.052593
      8 C                    -0.053727
      9 O                    -0.170219
     10 C                     0.210465
     11 C                    -0.092628
     12 C                    -0.083448
     13 C                     0.212283
     14 O                    -0.222413
     15 O                    -0.166805
     16 O                    -0.173593
     17 O                    -0.218489
     18 C                    -0.137351
     19 C                     0.023450
     20 C                    -0.147246
     21 C                    -0.143834
     22 C                     0.024449
     23 O                    -0.192621
     24 H                     0.116727
     25 H                     0.098908
     26 H                     0.083258
     27 H                     0.070552
     28 H                     0.086569
     29 H                     0.072563
     30 H                     0.072691
     31 H                     0.080561
     32 O                    -0.208007
     33 C                    -0.127755
     34 C                     0.025507
     35 C                    -0.144776
     36 C                    -0.141671
     37 C                     0.022200
     38 O                    -0.187239
     39 H                     0.086504
     40 H                     0.087620
     41 H                     0.095559
     42 H                     0.082652
     43 H                     0.078892
     44 H                     0.072751
     45 H                     0.082471
     46 H                     0.072725
     47 H                     0.105047
     48 H                     0.088482
     49 H                     0.089790
     50 H                     0.078157
     51 H                     0.100449
     52 H                     0.079623
     53 H                     0.102515
     54 H                     0.090993
     55 H                     0.099094
     56 H                     0.091559
  ----------------------------------------
  Sum of atomic charges =    -0.000000

                    Cartesian Multipole Moments
 -----------------------------------------------------------------
    Charge (ESU x 10^10)
                 0.0000
    Dipole Moment (Debye)
         X      -4.5847      Y       0.6802      Z      -0.2366
       Tot       4.6409
    Quadrupole Moments (Debye-Ang)
        XX    -168.3357     XY       2.5282     YY    -150.4965
        XZ       2.7397     YZ      -4.0066     ZZ    -148.4988

 Total job time:  192.97s(wall), 9185.37s(cpu)
        *  Thank you very much for using Q-Chem.  Have a nice day.  *
