 Q-Chem 5.0, Q-Chem, Inc., Pleasanton, CA (2017)
 Q-Chem 5.0.1 for Intel X86 EM64T Linux

User input:
--------------------------------------------------------------
$molecule
0  1
O -3.94934 -3.66094 2.70899
C -3.26408 -4.56952 2.26188
C -3.36658 -6.02376 2.66595
C -2.08915 -6.87319 2.56349
C -0.811 -6.1325 2.23825
O -0.06324 -6.8617 1.35817
C 1.22252 -6.28737 1.10084
C 2.31186 -7.34198 1.26598
O 3.24623 -6.92667 2.27462
C 3.18035 -7.60683 3.44603
C 4.19399 -7.13208 4.45984
C 4.20735 -7.91831 5.77891
C 3.48484 -9.25037 5.76153
O 4.01979 -10.34777 5.82568
O -2.56593 -4.32233 1.12064
O 2.13779 -9.18813 5.95758
O 2.32984 -8.46376 3.62484
C 1.31321 -10.28713 6.08281
C 5.65481 -7.311 3.99882
C 6.54564 -6.31674 4.74022
C 6.51297 -6.89951 6.13785
C 5.72531 -8.19008 5.87707
O 6.05702 -8.53646 4.55503
H 3.99377 -6.04866 4.62233
H 3.83766 -7.33954 6.65392
H 5.79283 -7.20481 2.90078
H 7.57344 -6.43717 4.3281
H 6.24563 -5.24942 4.66465
H 7.55777 -7.1235 6.44793
H 6.01216 -6.26953 6.90462
H 5.96976 -8.94707 6.65482
O -0.42487 -5.14396 2.85386
C -2.43196 -3.07946 0.53761
C -3.67111 -6.16893 4.17223
C -4.27595 -7.54432 4.45768
C -3.05334 -8.4238 4.31373
C -1.98567 -7.36732 4.02007
O -2.4031 -6.25416 4.77069
H -4.20718 -6.45092 2.07519
H -2.20353 -7.73844 1.8705
H -1.93417 -2.37972 1.24258
H -4.34402 -5.37609 4.56563
H -4.59918 -7.56251 5.52311
H -5.13531 -7.81173 3.8058
H -2.84334 -8.89864 5.29833
H -3.11631 -9.20397 3.5247
H -0.97525 -7.76757 4.26199
H -3.42805 -2.67999 0.2507
H -1.80744 -3.17165 -0.37449
H 0.26834 -9.94274 6.22621
H 1.61452 -10.89458 6.96275
H 1.36182 -10.9077 5.16257
H 1.89108 -8.36882 1.35921
H 2.90179 -7.38877 0.3248
H 1.49329 -5.33585 1.61156
H 1.20184 -6.01972 0.02179
$end

$opt
CONSTRAINT
tors           1           2           3           4    -151.270
tors           3           4           5           6    -139.622
tors           4           5           6           7    -174.292
tors           5           6           7           8    +130.010
tors           6           7           8           9    -121.159
tors           7           8           9          10    +107.774
tors           8           9          10          11    +179.513
tors           9          10          11          12    -177.063
tors          11          12          13          14    +110.406
ENDCONSTRAINT
$end

$rem
JOBTYPE                   OPT
METHOD                    B3LYP
DFT_D                     d3_op
BASIS                     STO-3G
GEOM_OPT_MAX_CYCLES       100
GEOM_OPT_TOL_GRADIENT     300
GEOM_OPT_TOL_DISPLACEMENT 1200
GEOM_OPT_TOL_ENERGY       100
SYMMETRY                  False
THRESH                    12
SCF_CONVERGENCE           8
MAX_SUB_FILE_NUM          128
MEM_STATIC                400
MEM_TOTAL                 4000
$end
--------------------------------------------------------------

   15   -1510.1451902818      5.90E-09 Convergence criterion met
 Total energy in the final basis set = -1510.14519028
   14   -1510.2153560619      6.81E-09 Convergence criterion met
 Total energy in the final basis set = -1510.21535606
   14   -1510.2523217585      6.88E-09 Convergence criterion met
 Total energy in the final basis set = -1510.25232176
   14   -1510.2682789291      7.14E-09 Convergence criterion met
 Total energy in the final basis set = -1510.26827893
   14   -1510.2752675028      4.95E-09 Convergence criterion met
 Total energy in the final basis set = -1510.27526750
   13   -1510.2787017121      4.77E-09 Convergence criterion met
 Total energy in the final basis set = -1510.27870171
   13   -1510.2809149673      5.31E-09 Convergence criterion met
 Total energy in the final basis set = -1510.28091497
   13   -1510.2821678600      3.53E-09 Convergence criterion met
   12   -1510.2838420499      4.65E-09 Convergence criterion met
 Total energy in the final basis set = -1510.28384205
   11   -1510.2839022712      4.45E-09 Convergence criterion met
 Total energy in the final basis set = -1510.28390227
   11   -1510.2839484653      6.39E-09 Convergence criterion met
 Total energy in the final basis set = -1510.28394847
   11   -1510.2839698899      3.33E-09 Convergence criterion met
 Total energy in the final basis set = -1510.28396989
   10   -1510.2839868874      8.28E-09 Convergence criterion met
 Total energy in the final basis set = -1510.28398689
    9   -1510.2839926263      6.52E-09 Convergence criterion met
 Total energy in the final basis set = -1510.28399263

             Standard Nuclear Orientation (Angstroms)
    I     Atom           X                Y                Z
 ----------------------------------------------------------------
    1      O      -5.8163419473     0.7247371929     1.4240058248
    2      C      -5.0183702321     0.6449856165     0.4663113693
    3      C      -4.4401754167    -0.6646594650    -0.1743941155
    4      C      -3.0084839069    -0.5298208899    -0.8313594861
    5      C      -2.2415120659     0.7738433814    -0.4247800577
    6      O      -1.5776695928     1.2761901653    -1.5952557949
    7      C      -0.7240305450     2.4342787375    -1.2369421253
    8      C       0.7117600355     2.2030237350    -1.8381225244
    9      O       1.7232256504     2.2042290461    -0.7505045166
   10      C       2.2099763323     0.8779097455    -0.5273653240
   11      C       3.2792861341     0.9194497049     0.6128697555
   12      C       3.9343718693    -0.4945174833     0.8846533013
   13      C       3.2685946136    -1.6947101962     0.1134244816
   14      O       3.7607652451    -2.3556673406    -0.8252512108
   15      O      -4.6132432560     1.7611822994    -0.3373935712
   16      O       2.0470639980    -2.0295293460     0.7924290651
   17      O       1.8454828409    -0.1240921803    -1.1853931637
   18      C       1.3735626239    -3.1407788153     0.0865086152
   19      C       4.5505308017     1.7463809641     0.1349845988
   20      C       5.4966964810     1.9924438006     1.3759188383
   21      C       6.1669310439     0.5771153287     1.5376026188
   22      C       5.4252499171    -0.2362200041     0.4074367021
   23      O       5.2838679939     0.7565020096    -0.6853603107
   24      H       2.8195158046     1.3519504968     1.5200154299
   25      H       3.8926827407    -0.7276761534     1.9636967625
   26      H       4.3024779017     2.6466247872    -0.4603877910
   27      H       6.2407069770     2.7709202066     1.1440502301
   28      H       4.9316475697     2.3000578643     2.2703695747
   29      H       7.2490856813     0.6185596717     1.3350433018
   30      H       6.0101439261     0.1429631383     2.5377827663
   31      H       5.9446871277    -1.1417659390     0.0385371033
   32      O      -2.0954544273     1.2526363038     0.7215535226
   33      C      -5.1252281767     3.0225025414     0.2434564729
   34      C      -4.2050585060    -1.8372182875     0.8692692303
   35      C      -4.2396473993    -3.1994442518     0.0740218104
   36      C      -2.8852299397    -3.1104840509    -0.7234509466
   37      C      -2.2747793807    -1.7688800420    -0.1515555726
   38      O      -2.7760248834    -1.7084325116     1.2404428716
   39      H      -5.1700938615    -0.9838693019    -0.9428301588
   40      H      -3.0382138264    -0.6030144135    -1.9319901148
   41      H      -4.6582791581     3.2290920124     1.2281277783
   42      H      -4.8521890309    -1.7828176917     1.7664078367
   43      H      -4.2401096477    -4.0505940519     0.7736483946
   44      H      -5.1192271589    -3.2818612464    -0.5842780533
   45      H      -2.2237230151    -3.9628184363    -0.5010990067
   46      H      -3.0386874073    -3.0585134892    -1.8132099799
   47      H      -1.1695506916    -1.7078987873    -0.1698846808
   48      H      -6.2264581161     2.9951855408     0.3716187550
   49      H      -4.8517239121     3.8214147685    -0.4700131021
   50      H       0.4839440457    -3.3957850225     0.6919099921
   51      H       2.0302548442    -4.0302897893    -0.0029367930
   52      H       1.0556512534    -2.8353761625    -0.9319702173
   53      H       0.7423966517     1.2201489024    -2.3576649475
   54      H       0.9862643417     3.0165391660    -2.5393390558
   55      H      -0.6871806379     2.5164350741    -0.1273185878
   56      H      -1.1812172429     3.3563515053    -1.6535416275
 ----------------------------------------------------------------

    9   -1510.2839933872      6.59E-09 Convergence criterion met
 Total energy in the final basis set = -1510.28399339
 Final energy is   -1510.28399338722
 **  OPTIMIZATION CONVERGED  **

                    Orbital Energies (a.u.)
 --------------------------------------------------------------

 Alpha MOs
 -- Occupied --
-18.941 -18.936 -18.930 -18.918 -18.888 -18.888 -18.885 -18.877
-18.871 -18.859 -10.108 -10.101 -10.098 -10.089 -10.072 -10.067
-10.065 -10.060 -10.060 -10.059 -10.055 -10.054 -10.041 -10.039
-10.038 -10.031 -10.021 -10.020 -10.020 -10.018  -1.021  -1.015
 -1.007  -0.996  -0.970  -0.969  -0.945  -0.939  -0.932  -0.923
 -0.764  -0.762  -0.728  -0.723  -0.713  -0.705  -0.695  -0.663
 -0.654  -0.619  -0.597  -0.578  -0.546  -0.543  -0.538  -0.536
 -0.513  -0.510  -0.486  -0.471  -0.459  -0.454  -0.453  -0.450
 -0.441  -0.431  -0.430  -0.415  -0.412  -0.408  -0.403  -0.401
 -0.399  -0.380  -0.371  -0.365  -0.361  -0.356  -0.352  -0.349
 -0.342  -0.341  -0.334  -0.332  -0.329  -0.325  -0.323  -0.313
 -0.312  -0.306  -0.305  -0.301  -0.294  -0.287  -0.275  -0.273
 -0.271  -0.257  -0.254  -0.246  -0.243  -0.234  -0.233  -0.191
 -0.178  -0.167  -0.164  -0.163  -0.159  -0.152  -0.144  -0.143
 -0.140

          Ground-State Mulliken Net Atomic Charges

     Atom                 Charge (a.u.)
  ----------------------------------------
      1 O                    -0.210886
      2 C                     0.214530
      3 C                    -0.079146
      4 C                    -0.077315
      5 C                     0.216802
      6 O                    -0.174199
      7 C                    -0.058586
      8 C                    -0.057133
      9 O                    -0.172044
     10 C                     0.216981
     11 C                    -0.076972
     12 C                    -0.081641
     13 C                     0.215975
     14 O                    -0.217902
     15 O                    -0.171080
     16 O                    -0.175442
     17 O                    -0.207529
     18 C                    -0.129234
     19 C                     0.024756
     20 C                    -0.144220
     21 C                    -0.143525
     22 C                     0.024262
     23 O                    -0.190401
     24 H                     0.089182
     25 H                     0.084410
     26 H                     0.085879
     27 H                     0.078069
     28 H                     0.073975
     29 H                     0.077949
     30 H                     0.073636
     31 H                     0.089837
     32 O                    -0.217429
     33 C                    -0.128000
     34 C                     0.024552
     35 C                    -0.142781
     36 C                    -0.144815
     37 C                     0.024197
     38 O                    -0.187191
     39 H                     0.084752
     40 H                     0.087664
     41 H                     0.092390
     42 H                     0.090617
     43 H                     0.078365
     44 H                     0.073367
     45 H                     0.077159
     46 H                     0.074278
     47 H                     0.086164
     48 H                     0.090943
     49 H                     0.089797
     50 H                     0.087025
     51 H                     0.087236
     52 H                     0.088560
     53 H                     0.108010
     54 H                     0.087851
     55 H                     0.105401
     56 H                     0.082901
  ----------------------------------------
  Sum of atomic charges =    -0.000000

                    Cartesian Multipole Moments
 -----------------------------------------------------------------
    Charge (ESU x 10^10)
                -0.0000
    Dipole Moment (Debye)
         X      -0.9873      Y       1.2698      Z      -0.4980
       Tot       1.6838
    Quadrupole Moments (Debye-Ang)
        XX    -159.4022     XY       6.3025     YY    -147.5444
        XZ      19.9847     YZ      -2.3636     ZZ    -163.9761

 Total job time:  53.47s(wall), 2542.71s(cpu)
        *  Thank you very much for using Q-Chem.  Have a nice day.  *
