 Q-Chem 5.0, Q-Chem, Inc., Pleasanton, CA (2017)
 Q-Chem 5.0.1 for Intel X86 EM64T Linux

User input:
--------------------------------------------------------------
$molecule
0  1
O -3.94934 -3.66094 2.70899
C -3.26408 -4.56952 2.26188
C -3.36658 -6.02376 2.66595
C -2.08915 -6.87319 2.56349
C -0.811 -6.1325 2.23825
O -0.30411 -6.58058 1.05178
C 0.97489 -6.01937 0.73802
C 2.03171 -7.11768 0.68332
O 2.33325 -7.57328 2.01162
C 2.62087 -8.89382 2.12389
C 2.92865 -9.31041 3.54247
C 3.44547 -10.74819 3.69723
C 3.91223 -11.42331 2.42323
O 5.06718 -11.73086 2.1662
O -2.54304 -4.31504 1.13684
O 2.92855 -11.98349 1.66463
O 2.62964 -9.61996 1.14339
C 3.15009 -12.74898 0.53813
C 4.09412 -8.52052 4.17786
C 3.95398 -8.54708 5.69825
C 4.27625 -9.99902 5.98357
C 4.68113 -10.4688 4.58024
O 5.22828 -9.32393 3.97516
H 2.00474 -9.12143 4.13489
H 2.72482 -11.43047 4.19963
H 4.17202 -7.47036 3.82171
H 4.77427 -7.91355 6.1064
H 2.98258 -8.18882 6.10196
H 5.13944 -10.0347 6.68465
H 3.43308 -10.60404 6.38195
H 5.3559 -11.35012 4.65494
O -0.35055 -5.22743 2.92623
C -2.39378 -3.06817 0.56651
C -3.65761 -6.18139 4.17609
C -4.28506 -7.54874 4.44946
C -3.08494 -8.45296 4.26389
C -1.99279 -7.41281 3.99881
O -2.38824 -6.30509 4.76993
H -4.21648 -6.44982 2.08744
H -2.22353 -7.69682 1.82456
H -1.90783 -2.37569 1.28675
H -4.31176 -5.38161 4.58665
H -4.5801 -7.572 5.5231
H -5.16812 -7.79311 3.82071
H -2.88665 -8.97676 5.22555
H -3.16983 -9.19383 3.43967
H -0.98862 -7.83604 4.22525
H -3.38273 -2.66327 0.26312
H -1.75123 -3.15539 -0.33351
H 2.17446 -13.06909 0.11851
H 3.74133 -13.65277 0.79845
H 3.69116 -12.15327 -0.22787
H 1.67213 -7.90081 -0.02145
H 2.95887 -6.66872 0.26588
H 1.34673 -5.21475 1.41089
H 0.88984 -5.5636 -0.27157
$end

$opt
CONSTRAINT
tors           1           2           3           4    -151.270
tors           3           4           5           6    -118.062
tors           4           5           6           7    -174.292
tors           5           6           7           8    +116.790
tors           6           7           8           9     -73.076
tors           7           8           9          10    +145.400
tors           8           9          10          11    +179.998
tors           9          10          11          12    -172.064
tors          11          12          13          14    +112.407
ENDCONSTRAINT
$end

$rem
JOBTYPE                   OPT
METHOD                    B3LYP
DFT_D                     d3_op
BASIS                     STO-3G
GEOM_OPT_MAX_CYCLES       100
GEOM_OPT_TOL_GRADIENT     300
GEOM_OPT_TOL_DISPLACEMENT 1200
GEOM_OPT_TOL_ENERGY       100
SYMMETRY                  False
THRESH                    12
SCF_CONVERGENCE           8
MAX_SUB_FILE_NUM          128
MEM_STATIC                400
MEM_TOTAL                 4000
$end
--------------------------------------------------------------

   15   -1510.1507850029      5.63E-09 Convergence criterion met
 Total energy in the final basis set = -1510.15078500
   14   -1510.2206826487      6.62E-09 Convergence criterion met
 Total energy in the final basis set = -1510.22068265
   14   -1510.2572063581      6.46E-09 Convergence criterion met
 Total energy in the final basis set = -1510.25720636
   14   -1510.2725430469      1.84E-09 Convergence criterion met
 Total energy in the final basis set = -1510.27254305
   13   -1510.2786492368      8.11E-09 Convergence criterion met
 Total energy in the final basis set = -1510.27864924
   13   -1510.2809983579      3.00E-09 Convergence criterion met
 Total energy in the final basis set = -1510.28099836
   13   -1510.2825490885      2.47E-09 Convergence criterion met
 Total energy in the final basis set = -1510.28254909
   12   -1510.2835122651      9.74E-09 Convergence criterion met
   12   -1510.2852986556      3.05E-09 Convergence criterion met
 Total energy in the final basis set = -1510.28529866
   11   -1510.2853417249      4.87E-09 Convergence criterion met
 Total energy in the final basis set = -1510.28534172
   11   -1510.2853766443      2.68E-09 Convergence criterion met
 Total energy in the final basis set = -1510.28537664
   11   -1510.2853893072      4.47E-09 Convergence criterion met
 Total energy in the final basis set = -1510.28538931
    9   -1510.2853939482      8.46E-09 Convergence criterion met
 Total energy in the final basis set = -1510.28539395
    9   -1510.2853951156      3.81E-09 Convergence criterion met
 Total energy in the final basis set = -1510.28539512

             Standard Nuclear Orientation (Angstroms)
    I     Atom           X                Y                Z
 ----------------------------------------------------------------
    1      O      -6.2436304684     0.1336532118     0.4534682694
    2      C      -5.1327577477     0.4326144401    -0.0328723998
    3      C      -4.2846917395    -0.4172191548    -1.0427352023
    4      C      -2.7150014489    -0.2121919700    -0.9607366395
    5      C      -2.2401384563     0.6584269628     0.2540461304
    6      O      -1.5884284083     1.8315256873    -0.2641664484
    7      C      -1.0041610125     2.6123888936     0.8508894526
    8      C       0.5480375860     2.6522635053     0.6795151874
    9      O       1.0546582853     1.3000511321     1.0256397532
   10      C       2.1797041122     0.9528296136     0.2202812770
   11      C       2.6606114941    -0.4798700337     0.6372969334
   12      C       4.0250740641    -0.8823692804    -0.0538110550
   13      C       4.4837319995     0.0792696671    -1.2116749660
   14      O       5.4708650424     0.8442012168    -1.2205038042
   15      O      -4.4778478203     1.6900164287     0.1735638079
   16      O       3.6679199833    -0.2120365810    -2.3591133005
   17      O       2.6857641252     1.7017455298    -0.6464460338
   18      C       4.0205911550     0.7011877741    -3.4673432245
   19      C       3.0996063022    -0.4708822905     2.1639408399
   20      C       3.3811650835    -1.9544282935     2.6294399470
   21      C       4.7940206807    -2.2170786715     1.9855348857
   22      C       5.0115865223    -0.8733325098     1.1883240833
   23      O       4.4425523196     0.1497300627     2.0982773764
   24      H       1.8528840064    -1.2072230240     0.4378439685
   25      H       3.9416322666    -1.8961862027    -0.4855151080
   26      H       2.4251343651     0.1142781421     2.8189963288
   27      H       3.4160918035    -2.0153719055     3.7286736156
   28      H       2.6111730320    -2.6519111569     2.2622311252
   29      H       5.5712695475    -2.3345709723     2.7574937568
   30      H       4.8087595812    -3.1023991143     1.3302287512
   31      H       6.0591688253    -0.6221401964     0.9321128857
   32      O      -2.3023772286     0.3700809129     1.4695291068
   33      C      -5.2164992317     2.5026495687     1.1661102314
   34      C      -4.4153285770    -1.9758135839    -0.7742941315
   35      C      -4.0121302760    -2.7352750497    -2.0973770187
   36      C      -2.4547941744    -2.5073344484    -2.1101545740
   37      C      -2.2465516687    -1.7185650029    -0.7566553488
   38      O      -3.2880943149    -2.2683932871     0.1412903870
   39      H      -4.6462626084    -0.1681957572    -2.0584128995
   40      H      -2.3155420733     0.2345536009    -1.8876139573
   41      H      -5.1819076709     2.0363778721     2.1720108798
   42      H      -5.3801490780    -2.2736365365    -0.3191023823
   43      H      -4.2618868657    -3.8052009007    -2.0155164681
   44      H      -4.5134836048    -2.3223424446    -2.9873579601
   45      H      -1.9045316696    -3.4612768650    -2.0887480888
   46      H      -2.1175635380    -1.9249565903    -2.9824689849
   47      H      -1.2448223802    -1.8261590968    -0.2973666889
   48      H      -6.2772581629     2.6374291642     0.8726317345
   49      H      -4.7081356361     3.4837984006     1.1958399272
   50      H       3.4124951540     0.3838242757    -4.3345261780
   51      H       5.0976774746     0.6391845683    -3.7253429570
   52      H       3.7790394002     1.7531761911    -3.2105769595
   53      H       0.8404894864     2.9142318990    -0.3599590040
   54      H       0.9899123467     3.4025242778     1.3722823802
   55      H      -1.2818061978     2.1187430021     1.8087782828
   56      H      -1.4151703746     3.6434685822     0.8157649074
 ----------------------------------------------------------------

    9   -1510.2853958592      2.62E-09 Convergence criterion met
 Total energy in the final basis set = -1510.28539586
 Final energy is   -1510.28539585924
 **  OPTIMIZATION CONVERGED  **

                    Orbital Energies (a.u.)
 --------------------------------------------------------------

 Alpha MOs
 -- Occupied --
-18.943 -18.940 -18.928 -18.916 -18.889 -18.886 -18.884 -18.882
-18.869 -18.859 -10.106 -10.106 -10.098 -10.088 -10.075 -10.070
-10.069 -10.062 -10.060 -10.058 -10.055 -10.052 -10.041 -10.040
-10.038 -10.031 -10.023 -10.021 -10.019 -10.017  -1.021  -1.018
 -1.006  -0.995  -0.972  -0.968  -0.945  -0.943  -0.931  -0.922
 -0.766  -0.761  -0.729  -0.723  -0.714  -0.705  -0.696  -0.667
 -0.652  -0.619  -0.598  -0.577  -0.547  -0.543  -0.539  -0.535
 -0.513  -0.512  -0.488  -0.478  -0.463  -0.454  -0.453  -0.451
 -0.433  -0.430  -0.422  -0.418  -0.416  -0.411  -0.405  -0.400
 -0.400  -0.385  -0.371  -0.368  -0.361  -0.357  -0.353  -0.349
 -0.343  -0.338  -0.333  -0.332  -0.331  -0.328  -0.322  -0.314
 -0.312  -0.308  -0.306  -0.300  -0.297  -0.291  -0.275  -0.274
 -0.270  -0.256  -0.254  -0.245  -0.242  -0.236  -0.232  -0.187
 -0.182  -0.169  -0.163  -0.162  -0.159  -0.152  -0.145  -0.143
 -0.139

          Ground-State Mulliken Net Atomic Charges

     Atom                 Charge (a.u.)
  ----------------------------------------
      1 O                    -0.209279
      2 C                     0.213999
      3 C                    -0.078698
      4 C                    -0.078747
      5 C                     0.217716
      6 O                    -0.174694
      7 C                    -0.055473
      8 C                    -0.050852
      9 O                    -0.172964
     10 C                     0.216860
     11 C                    -0.076386
     12 C                    -0.082096
     13 C                     0.215966
     14 O                    -0.217810
     15 O                    -0.168409
     16 O                    -0.177570
     17 O                    -0.207456
     18 C                    -0.128471
     19 C                     0.024350
     20 C                    -0.144391
     21 C                    -0.143253
     22 C                     0.023882
     23 O                    -0.191216
     24 H                     0.086029
     25 H                     0.083007
     26 H                     0.087834
     27 H                     0.078528
     28 H                     0.073776
     29 H                     0.077843
     30 H                     0.073010
     31 H                     0.089569
     32 O                    -0.218905
     33 C                    -0.127637
     34 C                     0.024321
     35 C                    -0.143179
     36 C                    -0.144655
     37 C                     0.026291
     38 O                    -0.186491
     39 H                     0.085633
     40 H                     0.086749
     41 H                     0.093019
     42 H                     0.090535
     43 H                     0.078723
     44 H                     0.073457
     45 H                     0.078089
     46 H                     0.074156
     47 H                     0.082098
     48 H                     0.092639
     49 H                     0.091044
     50 H                     0.084618
     51 H                     0.086610
     52 H                     0.090854
     53 H                     0.100921
     54 H                     0.086583
     55 H                     0.106211
     56 H                     0.083714
  ----------------------------------------
  Sum of atomic charges =    -0.000000

                    Cartesian Multipole Moments
 -----------------------------------------------------------------
    Charge (ESU x 10^10)
                -0.0000
    Dipole Moment (Debye)
         X      -1.6176      Y      -0.1526      Z      -1.6915
       Tot       2.3454
    Quadrupole Moments (Debye-Ang)
        XX    -176.7286     XY     -16.8384     YY    -150.8023
        XZ       6.4156     YZ       5.3991     ZZ    -155.2452

 Total job time:  54.63s(wall), 2601.78s(cpu)
        *  Thank you very much for using Q-Chem.  Have a nice day.  *
