 Q-Chem 5.0, Q-Chem, Inc., Pleasanton, CA (2017)
 Q-Chem 5.0.1 for Intel X86 EM64T Linux

User input:
--------------------------------------------------------------
$molecule
0  1
O -6.2436304684 0.1336532118 0.4534682694
C -5.1327577477 0.4326144401 -0.0328723998
C -4.2846917395 -0.4172191548 -1.0427352023
C -2.7150014489 -0.21219197 -0.9607366395
C -2.2401384563 0.6584269628 0.2540461304
O -1.5884284083 1.8315256873 -0.2641664484
C -1.0041610125 2.6123888936 0.8508894526
C 0.548037586 2.6522635053 0.6795151874
O 1.0546582853 1.3000511321 1.0256397532
C 2.1797041122 0.9528296136 0.220281277
C 2.6606114941 -0.4798700337 0.6372969334
C 4.0250740641 -0.8823692804 -0.053811055
C 4.4837319995 0.0792696671 -1.211674966
O 5.4708650424 0.8442012168 -1.2205038042
O -4.4778478203 1.6900164287 0.1735638079
O 3.6679199833 -0.212036581 -2.3591133005
O 2.6857641252 1.7017455298 -0.6464460338
C 4.020591155 0.7011877741 -3.4673432245
C 3.0996063022 -0.4708822905 2.1639408399
C 3.3811650835 -1.9544282935 2.629439947
C 4.7940206807 -2.2170786715 1.9855348857
C 5.0115865223 -0.8733325098 1.1883240833
O 4.4425523196 0.1497300627 2.0982773764
H 1.8528840064 -1.207223024 0.4378439685
H 3.9416322666 -1.8961862027 -0.485515108
H 2.4251343651 0.1142781421 2.8189963288
H 3.4160918035 -2.0153719055 3.7286736156
H 2.611173032 -2.6519111569 2.2622311252
H 5.5712695475 -2.3345709723 2.7574937568
H 4.8087595812 -3.1023991143 1.3302287512
H 6.0591688253 -0.6221401964 0.9321128857
O -2.3023772286 0.3700809129 1.4695291068
C -5.2164992317 2.5026495687 1.1661102314
C -4.415328577 -1.9758135839 -0.7742941315
C -4.012130276 -2.7352750497 -2.0973770187
C -2.4547941744 -2.5073344484 -2.110154574
C -2.2465516687 -1.7185650029 -0.7566553488
O -3.2880943149 -2.2683932871 0.141290387
H -4.6462626084 -0.1681957572 -2.0584128995
H -2.3155420733 0.2345536009 -1.8876139573
H -5.1819076709 2.0363778721 2.1720108798
H -5.380149078 -2.2736365365 -0.3191023823
H -4.2618868657 -3.8052009007 -2.0155164681
H -4.5134836048 -2.3223424446 -2.9873579601
H -1.9045316696 -3.461276865 -2.0887480888
H -2.117563538 -1.9249565903 -2.9824689849
H -1.2448223802 -1.8261590968 -0.2973666889
H -6.2772581629 2.6374291642 0.8726317345
H -4.7081356361 3.4837984006 1.1958399272
H 3.412495154 0.3838242757 -4.334526178
H 5.0976774746 0.6391845683 -3.725342957
H 3.7790394002 1.7531761911 -3.2105769595
H 0.8404894864 2.914231899 -0.359959004
H 0.9899123467 3.4025242778 1.3722823802
H -1.2818061978 2.1187430021 1.8087782828
H -1.4151703746 3.6434685822 0.8157649074
$end

$rem
JOBTYPE                   OPT
METHOD                    B3LYP
DFT_D                     d3_op
BASIS                     STO-3G
GEOM_OPT_MAX_CYCLES       100
GEOM_OPT_TOL_GRADIENT     300
GEOM_OPT_TOL_DISPLACEMENT 1200
GEOM_OPT_TOL_ENERGY       100
SYMMETRY                  False
THRESH                    12
SCF_CONVERGENCE           8
MAX_SUB_FILE_NUM          128
MEM_STATIC                400
MEM_TOTAL                 4000
$end
--------------------------------------------------------------

   16   -1510.2853748583      5.08E-09 Convergence criterion met
 Total energy in the final basis set = -1510.28537486
   13   -1510.2861805112      7.01E-09 Convergence criterion met
 Total energy in the final basis set = -1510.28618051
   13   -1510.2871484392      7.32E-09 Convergence criterion met
 Total energy in the final basis set = -1510.28714844
   14   -1510.2880846393      4.36E-09 Convergence criterion met
 Total energy in the final basis set = -1510.28808464
   14   -1510.2889598015      6.44E-09 Convergence criterion met
 Total energy in the final basis set = -1510.28895980
   14   -1510.2902568061      8.62E-09 Convergence criterion met
 Total energy in the final basis set = -1510.29025681
   15   -1510.2827251117      3.95E-09 Convergence criterion met
 Total energy in the final basis set = -1510.28272511
   15   -1510.2836130071      2.56E-09 Convergence criterion met
   12   -1510.3028693904      2.43E-09 Convergence criterion met
 Total energy in the final basis set = -1510.30286939
   12   -1510.3028703114      2.63E-09 Convergence criterion met
 Total energy in the final basis set = -1510.30287031
   11   -1510.3028666072      4.60E-09 Convergence criterion met
 Total energy in the final basis set = -1510.30286661
   10   -1510.3028698352      8.60E-09 Convergence criterion met
 Total energy in the final basis set = -1510.30286984
   10   -1510.3028627396      8.55E-09 Convergence criterion met
 Total energy in the final basis set = -1510.30286274
   10   -1510.3028390886      8.27E-09 Convergence criterion met
 Total energy in the final basis set = -1510.30283909

             Standard Nuclear Orientation (Angstroms)
    I     Atom           X                Y                Z
 ----------------------------------------------------------------
    1      O      -2.7797798079     0.2794118476     2.2830202116
    2      C      -3.2649017251     0.2424678471     1.1321068662
    3      C      -2.9503153046    -0.8140643643     0.0046899370
    4      C      -2.0146084918    -0.2914170650    -1.1651463766
    5      C      -1.5770279418     1.1943931899    -0.9315359053
    6      O      -0.9005035152     1.6908064642    -2.0911396696
    7      C      -0.5570216232     3.1237394659    -1.9011282661
    8      C       0.8686775766     3.2827345976    -1.2516327115
    9      O       0.9594837149     2.4039379113    -0.0618476981
   10      C       1.6986609492     1.2226105808    -0.3917205955
   11      C       1.5809341348     0.1944851968     0.7736417507
   12      C       2.3993009334    -1.1293144884     0.4888451781
   13      C       3.0455010255    -1.2055728675    -0.9405858147
   14      O       4.2517807235    -1.1147919825    -1.2461836910
   15      O      -4.3550307378     1.0608209292     0.6782708821
   16      O       2.0049784115    -1.5740759763    -1.8738718206
   17      O       2.3300551822     1.0776075975    -1.4652766560
   18      C       2.5331222216    -1.5652827701    -3.2536294291
   19      C       2.2941864004     0.7105971004     2.0908698298
   20      C       1.8840901015    -0.2393307434     3.2848224820
   21      C       2.7709866676    -1.5055976079     2.9883463294
   22      C       3.4802904081    -1.0701109651     1.6472508874
   23      O       3.7168609679     0.3804710203     1.8421227876
   24      H       0.5106017168    -0.0625502966     0.9284976891
   25      H       1.7242662256    -1.9967253470     0.6034529187
   26      H       2.1683851493     1.7941750462     2.2811509570
   27      H       2.1434740749     0.2201983124     4.2516184842
   28      H       0.8054509821    -0.4637173380     3.2753949962
   29      H       3.5163845078    -1.6697221851     3.7827428077
   30      H       2.1748403510    -2.4236487532     2.8643074203
   31      H       4.4312075513    -1.5861738119     1.4115918194
   32      O      -1.8169065992     1.8853505734     0.0856096660
   33      C      -4.6544074562     2.0942163372     1.6932799222
   34      C      -2.0837557404    -2.0039265068     0.5862679981
   35      C      -2.1953464042    -3.2322552172    -0.3931889474
   36      C      -1.3196448469    -2.7293963463    -1.6002744388
   37      C      -0.8132085626    -1.3303514130    -1.0699389129
   38      O      -0.6882190276    -1.5433246363     0.3912803607
   39      H      -3.9120028190    -1.1712082450    -0.4045854839
   40      H      -2.5133895867    -0.3512198404    -2.1494111696
   41      H      -3.7929894603     2.7791770604     1.8332754859
   42      H      -2.2709342488    -2.2161016901     1.6567147556
   43      H      -1.7662242758    -4.1355788700     0.0692032711
   44      H      -3.2381649632    -3.4422014137    -0.6795088934
   45      H      -0.4596352397    -3.3926762204    -1.7851616293
   46      H      -1.8975761196    -2.6341970895    -2.5334993303
   47      H       0.1692418606    -1.0296727092    -1.4999270405
   48      H      -4.9100283703     1.6443150816     2.6744937698
   49      H      -5.5213502507     2.6626287514     1.3090346743
   50      H       1.7094492405    -1.9166449647    -3.9022731268
   51      H       3.4069797057    -2.2395691518    -3.3614945881
   52      H       2.8347033400    -0.5417357667    -3.5576088691
   53      H       1.6602483475     2.9880224838    -1.9735981020
   54      H       1.0167774732     4.3297512570    -0.9177031834
   55      H      -1.3185805207     3.6058897064    -1.2531645806
   56      H      -0.5653697809     3.5843861876    -2.9098422469
 ----------------------------------------------------------------

    9   -1510.3028384518      3.73E-09 Convergence criterion met
 Total energy in the final basis set = -1510.30283845
 Final energy is   -1510.30283845180
 **  OPTIMIZATION CONVERGED  **

                    Orbital Energies (a.u.)
 --------------------------------------------------------------

 Alpha MOs
 -- Occupied --
-18.946 -18.939 -18.920 -18.919 -18.893 -18.891 -18.884 -18.876
-18.861 -18.858 -10.110 -10.103 -10.091 -10.089 -10.079 -10.074
-10.060 -10.055 -10.054 -10.053 -10.051 -10.048 -10.043 -10.034
-10.023 -10.022 -10.021 -10.019 -10.010 -10.008  -1.028  -1.015
 -0.998  -0.996  -0.974  -0.960  -0.948  -0.941  -0.924  -0.924
 -0.764  -0.754  -0.729  -0.718  -0.709  -0.703  -0.692  -0.655
 -0.653  -0.620  -0.595  -0.575  -0.545  -0.539  -0.537  -0.528
 -0.510  -0.505  -0.489  -0.472  -0.461  -0.457  -0.451  -0.441
 -0.430  -0.428  -0.420  -0.420  -0.406  -0.404  -0.403  -0.401
 -0.397  -0.384  -0.371  -0.364  -0.361  -0.357  -0.349  -0.344
 -0.341  -0.335  -0.334  -0.329  -0.327  -0.324  -0.316  -0.312
 -0.307  -0.305  -0.302  -0.296  -0.292  -0.278  -0.274  -0.270
 -0.267  -0.258  -0.248  -0.245  -0.244  -0.236  -0.222  -0.200
 -0.174  -0.165  -0.164  -0.162  -0.160  -0.151  -0.142  -0.140
 -0.135

          Ground-State Mulliken Net Atomic Charges

     Atom                 Charge (a.u.)
  ----------------------------------------
      1 O                    -0.221611
      2 C                     0.215675
      3 C                    -0.082449
      4 C                    -0.079544
      5 C                     0.213578
      6 O                    -0.169714
      7 C                    -0.052038
      8 C                    -0.055663
      9 O                    -0.169009
     10 C                     0.212791
     11 C                    -0.087412
     12 C                    -0.084577
     13 C                     0.218055
     14 O                    -0.214749
     15 O                    -0.177292
     16 O                    -0.180609
     17 O                    -0.211082
     18 C                    -0.128272
     19 C                     0.024810
     20 C                    -0.143733
     21 C                    -0.143134
     22 C                     0.023835
     23 O                    -0.192396
     24 H                     0.111138
     25 H                     0.091207
     26 H                     0.085076
     27 H                     0.076015
     28 H                     0.081072
     29 H                     0.075461
     30 H                     0.073658
     31 H                     0.086156
     32 O                    -0.202089
     33 C                    -0.128570
     34 C                     0.025196
     35 C                    -0.144086
     36 C                    -0.144112
     37 C                     0.012889
     38 O                    -0.196214
     39 H                     0.084090
     40 H                     0.087685
     41 H                     0.091146
     42 H                     0.088490
     43 H                     0.077292
     44 H                     0.073680
     45 H                     0.079870
     46 H                     0.072207
     47 H                     0.107681
     48 H                     0.086448
     49 H                     0.085419
     50 H                     0.084422
     51 H                     0.088190
     52 H                     0.092516
     53 H                     0.102891
     54 H                     0.090589
     55 H                     0.097865
     56 H                     0.091262
  ----------------------------------------
  Sum of atomic charges =    -0.000000

                    Cartesian Multipole Moments
 -----------------------------------------------------------------
    Charge (ESU x 10^10)
                -0.0000
    Dipole Moment (Debye)
         X      -3.3324      Y      -0.1687      Z      -1.9124
       Tot       3.8459
    Quadrupole Moments (Debye-Ang)
        XX    -171.1056     XY      -0.8030     YY    -145.2384
        XZ       3.1162     YZ      -3.0055     ZZ    -155.9157

 Total job time:  132.84s(wall), 6328.55s(cpu)
        *  Thank you very much for using Q-Chem.  Have a nice day.  *
