 Q-Chem 5.0, Q-Chem, Inc., Pleasanton, CA (2017)
 Q-Chem 5.0.1 for Intel X86 EM64T Linux

User input:
--------------------------------------------------------------
$molecule
0  1
O -3.94934 -3.66094 2.70899
C -3.26408 -4.56952 2.26188
C -3.36658 -6.02376 2.66595
C -2.17262 -6.93224 2.32982
C -0.93697 -6.24892 1.78729
O -0.35909 -7.02931 0.82684
C 0.86673 -6.48773 0.32355
C 1.94793 -7.56326 0.30453
O 2.69968 -7.52318 1.5277
C 2.35087 -8.44719 2.45705
C 3.18401 -8.36132 3.7137
C 2.98791 -9.52119 4.70089
C 2.28546 -10.74596 4.15025
O 2.83727 -11.76802 3.76886
O -2.53049 -4.27889 1.15314
O 0.92675 -10.734 4.23411
O 1.41092 -9.20777 2.27762
C 0.11076 -11.77478 3.84321
C 4.70239 -8.4713 3.44538
C 5.46931 -7.80865 4.58798
C 5.21185 -8.79584 5.70628
C 4.46976 -9.89303 4.93289
O 5.00648 -9.82779 3.6359
H 2.97908 -7.36402 4.16425
H 2.49642 -9.23794 5.65763
H 5.02066 -8.03466 2.47395
H 6.54905 -7.85126 4.31742
H 5.19138 -6.7561 4.81101
H 6.19262 -9.16339 6.0817
H 4.59813 -8.41089 6.54936
H 4.58062 -10.86913 5.45563
O -0.38866 -5.30542 2.34978
C -2.39779 -3.0218 0.59971
C -3.36457 -6.15671 4.20717
C -3.9866 -7.49103 4.62124
C -2.88461 -8.44876 4.2252
C -1.8251 -7.45864 3.73486
O -2.01325 -6.32923 4.54838
H -4.34379 -6.39781 2.28782
H -2.45525 -7.77271 1.65517
H -1.93914 -2.32757 1.33585
H -3.89227 -5.32413 4.72219
H -4.07058 -7.49112 5.73174
H -4.98346 -7.70082 4.17732
H -2.52371 -8.96936 5.14032
H -3.15675 -9.19497 3.4477
H -0.81537 -7.9259 3.77511
H -3.3899 -2.63465 0.28355
H -1.73872 -3.08504 -0.29031
H -0.94751 -11.4916 4.01874
H 0.34149 -12.68583 4.43553
H 0.25028 -11.984 2.76107
H 1.5725 -8.56424 -0.00789
H 2.67769 -7.27214 -0.48143
H 1.24974 -5.53812 0.76017
H 0.65 -6.25974 -0.74261
$end

$opt
CONSTRAINT
tors           1           2           3           4    -161.972
tors           3           4           5           6    -142.563
tors           4           5           6           7    -176.267
tors           5           6           7           8    +131.873
tors           6           7           8           9     -92.721
tors           7           8           9          10     +99.705
tors           8           9          10          11    +179.515
tors           9          10          11          12    -170.518
tors          11          12          13          14     +99.455
ENDCONSTRAINT
$end

$rem
JOBTYPE                   OPT
METHOD                    B3LYP
DFT_D                     d3_op
BASIS                     STO-3G
GEOM_OPT_MAX_CYCLES       100
GEOM_OPT_TOL_GRADIENT     300
GEOM_OPT_TOL_DISPLACEMENT 1200
GEOM_OPT_TOL_ENERGY       100
SYMMETRY                  False
THRESH                    12
SCF_CONVERGENCE           8
MAX_SUB_FILE_NUM          128
MEM_STATIC                400
MEM_TOTAL                 4000
$end
--------------------------------------------------------------

   15   -1510.1475492585      6.32E-09 Convergence criterion met
 Total energy in the final basis set = -1510.14754926
   14   -1510.2175057939      6.34E-09 Convergence criterion met
 Total energy in the final basis set = -1510.21750579
   14   -1510.2547290750      8.05E-09 Convergence criterion met
 Total energy in the final basis set = -1510.25472907
   14   -1510.2713613759      6.42E-09 Convergence criterion met
 Total energy in the final basis set = -1510.27136138
   14   -1510.2778308867      5.13E-09 Convergence criterion met
 Total energy in the final basis set = -1510.27783089
   14   -1510.2808896162      4.89E-09 Convergence criterion met
 Total energy in the final basis set = -1510.28088962
   13   -1510.2828301111      4.14E-09 Convergence criterion met
 Total energy in the final basis set = -1510.28283011
   13   -1510.2837620993      5.20E-09 Convergence criterion met
   11   -1510.2854594467      7.85E-09 Convergence criterion met
 Total energy in the final basis set = -1510.28545945
   11   -1510.2854943182      5.01E-09 Convergence criterion met
 Total energy in the final basis set = -1510.28549432
   10   -1510.2855269820      7.45E-09 Convergence criterion met
 Total energy in the final basis set = -1510.28552698
   11   -1510.2855462345      2.46E-09 Convergence criterion met
 Total energy in the final basis set = -1510.28554623
    9   -1510.2855542812      8.48E-09 Convergence criterion met
 Total energy in the final basis set = -1510.28555428
   10   -1510.2855553834      8.54E-09 Convergence criterion met
 Total energy in the final basis set = -1510.28555538

             Standard Nuclear Orientation (Angstroms)
    I     Atom           X                Y                Z
 ----------------------------------------------------------------
    1      O      -5.8721213875     0.2574645198     0.9686888139
    2      C      -4.8582672696     0.2475526110     0.2383060168
    3      C      -3.8947368374    -0.9639204612    -0.0104840613
    4      C      -2.4723273040    -0.6193408233    -0.6037086683
    5      C      -2.0455838056     0.8668725989    -0.3417612961
    6      O      -1.3429996249     1.3391742628    -1.5007224642
    7      C      -0.8388392705     2.7144495315    -1.2675207404
    8      C       0.6659056251     2.7333410693    -1.7068087183
    9      O       1.4992286028     2.4401974545    -0.5109487804
   10      C       1.8949565579     1.0673995725    -0.5200908008
   11      C       2.7802298910     0.7767079473     0.7357315090
   12      C       3.4589395733    -0.6526188827     0.6831531927
   13      C       3.0770800565    -1.5097527511    -0.5799821420
   14      O       3.7512664264    -1.6626505478    -1.6204077937
   15      O      -4.5204332837     1.3050813065    -0.6694885162
   16      O       1.8676667761    -2.2331752375    -0.2840528731
   17      O       1.5885261807     0.2563712584    -1.4248191217
   18      C       1.4593795480    -3.0060568946    -1.4782114373
   19      C       4.0599169693     1.7187385167     0.7748619171
   20      C       4.7149519523     1.6140330241     2.2072182683
   21      C       5.4011748771     0.1999352122     2.1255917066
   22      C       4.9938529808    -0.2521697272     0.6684883068
   23      O       5.0168874430     1.0122434209    -0.1053100637
   24      H       2.1579426954     0.9032842041     1.6408680886
   25      H       3.1963335139    -1.2376166591     1.5825619646
   26      H       3.8717955169     2.7470222068     0.4095015074
   27      H       5.4561913094     2.4163734453     2.3493893204
   28      H       3.9650696095     1.6792375786     3.0117809212
   29      H       6.4965611106     0.2770795442     2.2137634880
   30      H       5.0320857468    -0.4972792031     2.8946680030
   31      H       5.6544053060    -1.0036537977     0.1947058983
   32      O      -2.1523895699     1.5144987132     0.7229929558
   33      C      -5.4351661223     2.4530788238    -0.4824533590
   34      C      -3.5043450056    -1.7910202100     1.2919950596
   35      C      -3.2240985630    -3.2715656956     0.8284510398
   36      C      -1.8868184291    -3.0707623350     0.0230111736
   37      C      -1.5626954605    -1.5502110282     0.3145682924
   38      O      -2.1515462476    -1.3047391934     1.6531833206
   39      H      -4.4307064010    -1.6289199677    -0.7144649816
   40      H      -2.3863161512    -0.8464223656    -1.6800707677
   41      H      -5.3203230485     2.9016519743     0.5254100404
   42      H      -4.2066892263    -1.6726169351     2.1400150907
   43      H      -3.0713611156    -3.9237024494     1.7034582289
   44      H      -4.0387319900    -3.6867497730     0.2140668817
   45      H      -1.0815555653    -3.7156809103     0.4080311676
   46      H      -2.0097397767    -3.2627678243    -1.0550780680
   47      H      -0.4818860556    -1.2994136875     0.3003861753
   48      H      -6.4950191800     2.1559113440    -0.6188022297
   49      H      -5.1537661160     3.1956594284    -1.2515739360
   50      H       0.6332166131    -3.6649899691    -1.1574267063
   51      H       2.2945951734    -3.6184174360    -1.8741058926
   52      H       1.1040369587    -2.3312064241    -2.2840508302
   53      H       0.8410782816     1.9675876277    -2.4918817561
   54      H       0.9624262977     3.7404401413    -2.0641774765
   55      H      -0.9549626198     2.9703921154    -0.1914156710
   56      H      -1.4331313630     3.4241270907    -1.8830087143
 ----------------------------------------------------------------

    9   -1510.2855559284      5.52E-09 Convergence criterion met
 Total energy in the final basis set = -1510.28555593
 Final energy is   -1510.28555592840
 **  OPTIMIZATION CONVERGED  **

                    Orbital Energies (a.u.)
 --------------------------------------------------------------

 Alpha MOs
 -- Occupied --
-18.942 -18.937 -18.928 -18.918 -18.887 -18.886 -18.885 -18.876
-18.867 -18.859 -10.107 -10.101 -10.096 -10.089 -10.075 -10.068
-10.066 -10.060 -10.058 -10.057 -10.056 -10.053 -10.040 -10.037
-10.036 -10.032 -10.020 -10.020 -10.018 -10.018  -1.022  -1.014
 -1.005  -0.996  -0.969  -0.968  -0.945  -0.938  -0.930  -0.923
 -0.763  -0.762  -0.728  -0.722  -0.714  -0.703  -0.695  -0.663
 -0.654  -0.618  -0.597  -0.577  -0.545  -0.544  -0.536  -0.536
 -0.513  -0.510  -0.488  -0.472  -0.459  -0.455  -0.453  -0.447
 -0.436  -0.430  -0.430  -0.415  -0.412  -0.409  -0.404  -0.402
 -0.399  -0.381  -0.371  -0.363  -0.361  -0.355  -0.351  -0.349
 -0.344  -0.340  -0.332  -0.331  -0.328  -0.324  -0.322  -0.314
 -0.311  -0.305  -0.304  -0.300  -0.294  -0.288  -0.275  -0.273
 -0.271  -0.257  -0.253  -0.246  -0.244  -0.233  -0.232  -0.191
 -0.178  -0.166  -0.163  -0.161  -0.157  -0.150  -0.144  -0.141
 -0.140

          Ground-State Mulliken Net Atomic Charges

     Atom                 Charge (a.u.)
  ----------------------------------------
      1 O                    -0.212613
      2 C                     0.213286
      3 C                    -0.079631
      4 C                    -0.076782
      5 C                     0.216983
      6 O                    -0.173830
      7 C                    -0.057010
      8 C                    -0.053713
      9 O                    -0.170856
     10 C                     0.214453
     11 C                    -0.078347
     12 C                    -0.082071
     13 C                     0.215227
     14 O                    -0.217906
     15 O                    -0.170206
     16 O                    -0.177529
     17 O                    -0.207110
     18 C                    -0.130442
     19 C                     0.024743
     20 C                    -0.143932
     21 C                    -0.143969
     22 C                     0.025064
     23 O                    -0.189360
     24 H                     0.089371
     25 H                     0.084399
     26 H                     0.087342
     27 H                     0.078166
     28 H                     0.074395
     29 H                     0.077882
     30 H                     0.073683
     31 H                     0.088050
     32 O                    -0.218960
     33 C                    -0.127487
     34 C                     0.025240
     35 C                    -0.142213
     36 C                    -0.144967
     37 C                     0.023104
     38 O                    -0.187856
     39 H                     0.084358
     40 H                     0.087658
     41 H                     0.092025
     42 H                     0.089161
     43 H                     0.078038
     44 H                     0.073051
     45 H                     0.078166
     46 H                     0.072534
     47 H                     0.091231
     48 H                     0.090581
     49 H                     0.089869
     50 H                     0.084102
     51 H                     0.088595
     52 H                     0.089938
     53 H                     0.108251
     54 H                     0.089394
     55 H                     0.105868
     56 H                     0.082582
  ----------------------------------------
  Sum of atomic charges =    -0.000000

                    Cartesian Multipole Moments
 -----------------------------------------------------------------
    Charge (ESU x 10^10)
                 0.0000
    Dipole Moment (Debye)
         X      -0.9713      Y       0.3658      Z      -0.3455
       Tot       1.0939
    Quadrupole Moments (Debye-Ang)
        XX    -166.7022     XY       0.7907     YY    -145.4169
        XZ      19.5893     YZ      -3.3019     ZZ    -162.5322

 Total job time:  54.41s(wall), 2588.91s(cpu)
        *  Thank you very much for using Q-Chem.  Have a nice day.  *
