 Q-Chem 5.0, Q-Chem, Inc., Pleasanton, CA (2017)
 Q-Chem 5.0.1 for Intel X86 EM64T Linux

User input:
--------------------------------------------------------------
$molecule
0  1
O -5.8721213875 0.2574645198 0.9686888139
C -4.8582672696 0.247552611 0.2383060168
C -3.8947368374 -0.9639204612 -0.0104840613
C -2.472327304 -0.6193408233 -0.6037086683
C -2.0455838056 0.8668725989 -0.3417612961
O -1.3429996249 1.3391742628 -1.5007224642
C -0.8388392705 2.7144495315 -1.2675207404
C 0.6659056251 2.7333410693 -1.7068087183
O 1.4992286028 2.4401974545 -0.5109487804
C 1.8949565579 1.0673995725 -0.5200908008
C 2.780229891 0.7767079473 0.735731509
C 3.4589395733 -0.6526188827 0.6831531927
C 3.0770800565 -1.5097527511 -0.579982142
O 3.7512664264 -1.6626505478 -1.6204077937
O -4.5204332837 1.3050813065 -0.6694885162
O 1.8676667761 -2.2331752375 -0.2840528731
O 1.5885261807 0.2563712584 -1.4248191217
C 1.459379548 -3.0060568946 -1.4782114373
C 4.0599169693 1.7187385167 0.7748619171
C 4.7149519523 1.6140330241 2.2072182683
C 5.4011748771 0.1999352122 2.1255917066
C 4.9938529808 -0.2521697272 0.6684883068
O 5.016887443 1.0122434209 -0.1053100637
H 2.1579426954 0.9032842041 1.6408680886
H 3.1963335139 -1.2376166591 1.5825619646
H 3.8717955169 2.7470222068 0.4095015074
H 5.4561913094 2.4163734453 2.3493893204
H 3.9650696095 1.6792375786 3.0117809212
H 6.4965611106 0.2770795442 2.213763488
H 5.0320857468 -0.4972792031 2.894668003
H 5.654405306 -1.0036537977 0.1947058983
O -2.1523895699 1.5144987132 0.7229929558
C -5.4351661223 2.4530788238 -0.482453359
C -3.5043450056 -1.79102021 1.2919950596
C -3.224098563 -3.2715656956 0.8284510398
C -1.8868184291 -3.070762335 0.0230111736
C -1.5626954605 -1.5502110282 0.3145682924
O -2.1515462476 -1.3047391934 1.6531833206
H -4.430706401 -1.6289199677 -0.7144649816
H -2.3863161512 -0.8464223656 -1.6800707677
H -5.3203230485 2.9016519743 0.5254100404
H -4.2066892263 -1.6726169351 2.1400150907
H -3.0713611156 -3.9237024494 1.7034582289
H -4.03873199 -3.686749773 0.2140668817
H -1.0815555653 -3.7156809103 0.4080311676
H -2.0097397767 -3.2627678243 -1.055078068
H -0.4818860556 -1.2994136875 0.3003861753
H -6.49501918 2.155911344 -0.6188022297
H -5.153766116 3.1956594284 -1.251573936
H 0.6332166131 -3.6649899691 -1.1574267063
H 2.2945951734 -3.618417436 -1.8741058926
H 1.1040369587 -2.3312064241 -2.2840508302
H 0.8410782816 1.9675876277 -2.4918817561
H 0.9624262977 3.7404401413 -2.0641774765
H -0.9549626198 2.9703921154 -0.191415671
H -1.433131363 3.4241270907 -1.8830087143
$end

$rem
JOBTYPE                   OPT
METHOD                    B3LYP
DFT_D                     d3_op
BASIS                     STO-3G
GEOM_OPT_MAX_CYCLES       100
GEOM_OPT_TOL_GRADIENT     300
GEOM_OPT_TOL_DISPLACEMENT 1200
GEOM_OPT_TOL_ENERGY       100
SYMMETRY                  False
THRESH                    12
SCF_CONVERGENCE           8
MAX_SUB_FILE_NUM          128
MEM_STATIC                400
MEM_TOTAL                 4000
$end
--------------------------------------------------------------

   16   -1510.2855561539      5.55E-09 Convergence criterion met
 Total energy in the final basis set = -1510.28555615
   14   -1510.2690828674      7.04E-09 Convergence criterion met
 Total energy in the final basis set = -1510.26908287
   14   -1510.2892652950      2.26E-09 Convergence criterion met
 Total energy in the final basis set = -1510.28926530
   14   -1510.2916535253      6.06E-09 Convergence criterion met
 Total energy in the final basis set = -1510.29165353
   14   -1510.2936809051      4.62E-09 Convergence criterion met
 Total energy in the final basis set = -1510.29368091
   13   -1510.2953196040      9.27E-09 Convergence criterion met
 Total energy in the final basis set = -1510.29531960
   13   -1510.2966279261      4.39E-09 Convergence criterion met
 Total energy in the final basis set = -1510.29662793
   13   -1510.2974544276      7.20E-09 Convergence criterion met
   12   -1510.3055373180      2.21E-09 Convergence criterion met
 Total energy in the final basis set = -1510.30553732
   11   -1510.3055631386      5.53E-09 Convergence criterion met
 Total energy in the final basis set = -1510.30556314
   10   -1510.3055770383      8.55E-09 Convergence criterion met
 Total energy in the final basis set = -1510.30557704
   12   -1510.3055964141      2.45E-09 Convergence criterion met
 Total energy in the final basis set = -1510.30559641
   10   -1510.3056019326      7.30E-09 Convergence criterion met
 Total energy in the final basis set = -1510.30560193
   10   -1510.3056034646      9.32E-09 Convergence criterion met
 Total energy in the final basis set = -1510.30560346

             Standard Nuclear Orientation (Angstroms)
    I     Atom           X                Y                Z
 ----------------------------------------------------------------
    1      O      -1.0455027411     0.7278291587     2.0099256893
    2      C      -2.2119144798     0.5512663646     1.5805373994
    3      C      -2.7166432218    -0.6188535957     0.6554319675
    4      C      -2.2862748759    -0.4239515257    -0.8539225804
    5      C      -1.8345121392     1.0384238131    -1.1705708440
    6      O      -1.4536649435     1.1174471990    -2.5455105785
    7      C      -0.9422563728     2.4725311681    -2.8688594152
    8      C       0.6226448942     2.5209495917    -2.7077667559
    9      O       0.9950546794     2.2567809051    -1.2992422930
   10      C       1.2590438988     0.8598480640    -1.1113803719
   11      C       1.4309794290     0.5571440597     0.4054588662
   12      C       2.2009549109    -0.7981773487     0.6845379715
   13      C       2.7180724869    -1.5172599778    -0.6105385911
   14      O       3.7790033424    -1.3074370969    -1.2367412255
   15      O      -3.3348260623     1.3372180113     1.9802620354
   16      O       1.7899949645    -2.5667768718    -0.9377032003
   17      O       1.2912450564     0.0313867302    -2.0536695540
   18      C       2.1972865563    -3.2170261064    -2.2020947047
   19      C       2.3523006419     1.5981494679     1.1669847942
   20      C       2.0660188976     1.4307450841     2.7107543217
   21      C       2.8236382721     0.0843664330     3.0117963194
   22      C       3.3976458555    -0.2725124428     1.5830324931
   23      O       3.7174075500     1.0503538987     0.9959097802
   24      H       0.4172387008     0.5230308732     0.8753077867
   25      H       1.5347638753    -1.5006249402     1.2154382871
   26      H       2.2906871149     2.6321889069     0.7765587624
   27      H       2.4909660146     2.2717584284     3.2813546427
   28      H       0.9839482502     1.3624926590     2.9106119352
   29      H       3.6448598175     0.2339290307     3.7308891135
   30      H       2.1546032018    -0.7019697517     3.3963017436
   31      H       4.2947686308    -0.9212980543     1.5780304770
   32      O      -1.8371698988     2.0089542874    -0.3775525440
   33      C      -2.8755999829     2.4890517983     2.7908280399
   34      C      -1.9226039679    -1.9447081569     1.0045997165
   35      C      -2.5087949165    -3.1536758032     0.1699877870
   36      C      -1.8489841537    -2.9096025182    -1.2398762050
   37      C      -1.1367234564    -1.5268049171    -0.9958518800
   38      O      -0.6100670229    -1.6780389435     0.3788232999
   39      H      -3.8109233878    -0.7145940643     0.7646002398
   40      H      -3.1215353765    -0.6669230972    -1.5358601505
   41      H      -2.2089513127     3.1486209322     2.1986033004
   42      H      -1.8031385283    -2.1325187902     2.0891246023
   43      H      -2.1932507757    -4.1142706154     0.6065104531
   44      H      -3.6097741271    -3.1282238186     0.1311295186
   45      H      -1.0967665063    -3.6813135500    -1.4687317176
   46      H      -2.5849766847    -2.8721296409    -2.0590407860
   47      H      -0.3089045457    -1.2559400911    -1.6847029724
   48      H      -2.3332915349     2.1579680869     3.6997993809
   49      H      -3.7876111745     3.0424196605     3.0804331201
   50      H       1.4761927500    -4.0377004094    -2.3723418379
   51      H       3.2243180332    -3.6319814097    -2.1423003151
   52      H       2.1550133679    -2.5051110407    -3.0519344192
   53      H       1.0911077164     1.7610025402    -3.3690074357
   54      H       0.9918289640     3.5356212940    -2.9606686412
   55      H      -1.4123067098     3.2213467526    -2.1966604749
   56      H      -1.2188582971     2.6740175715    -3.9239089164
 ----------------------------------------------------------------

    9   -1510.3056035944      7.69E-09 Convergence criterion met
 Total energy in the final basis set = -1510.30560359
 Final energy is   -1510.30560359443
 **  OPTIMIZATION CONVERGED  **

                    Orbital Energies (a.u.)
 --------------------------------------------------------------

 Alpha MOs
 -- Occupied --
-18.947 -18.937 -18.935 -18.909 -18.891 -18.888 -18.874 -18.873
-18.867 -18.847 -10.112 -10.105 -10.097 -10.080 -10.075 -10.075
-10.063 -10.062 -10.054 -10.046 -10.042 -10.040 -10.040 -10.039
-10.021 -10.019 -10.011 -10.009 -10.002  -9.997  -1.029  -1.012
 -1.009  -0.986  -0.972  -0.951  -0.950  -0.936  -0.935  -0.912
 -0.766  -0.744  -0.727  -0.719  -0.704  -0.699  -0.684  -0.663
 -0.645  -0.619  -0.593  -0.570  -0.547  -0.539  -0.528  -0.520
 -0.515  -0.501  -0.486  -0.470  -0.461  -0.457  -0.444  -0.439
 -0.432  -0.426  -0.417  -0.414  -0.411  -0.405  -0.399  -0.395
 -0.392  -0.381  -0.371  -0.366  -0.358  -0.356  -0.349  -0.345
 -0.341  -0.335  -0.331  -0.329  -0.322  -0.317  -0.313  -0.308
 -0.306  -0.304  -0.294  -0.289  -0.286  -0.277  -0.274  -0.266
 -0.260  -0.256  -0.252  -0.245  -0.235  -0.230  -0.214  -0.200
 -0.177  -0.171  -0.165  -0.156  -0.154  -0.150  -0.144  -0.128
 -0.125

          Ground-State Mulliken Net Atomic Charges

     Atom                 Charge (a.u.)
  ----------------------------------------
      1 O                    -0.223152
      2 C                     0.222942
      3 C                    -0.080799
      4 C                    -0.081657
      5 C                     0.210257
      6 O                    -0.168646
      7 C                    -0.052831
      8 C                    -0.053395
      9 O                    -0.169951
     10 C                     0.211552
     11 C                    -0.092128
     12 C                    -0.082470
     13 C                     0.210401
     14 O                    -0.221601
     15 O                    -0.166758
     16 O                    -0.171235
     17 O                    -0.219704
     18 C                    -0.129198
     19 C                     0.023158
     20 C                    -0.147542
     21 C                    -0.143711
     22 C                     0.024144
     23 O                    -0.193049
     24 H                     0.117197
     25 H                     0.095742
     26 H                     0.083794
     27 H                     0.070533
     28 H                     0.086330
     29 H                     0.072571
     30 H                     0.072258
     31 H                     0.080614
     32 O                    -0.208599
     33 C                    -0.127769
     34 C                     0.025327
     35 C                    -0.144813
     36 C                    -0.141426
     37 C                     0.020919
     38 O                    -0.186855
     39 H                     0.086327
     40 H                     0.087399
     41 H                     0.095473
     42 H                     0.082360
     43 H                     0.078656
     44 H                     0.072537
     45 H                     0.080787
     46 H                     0.072558
     47 H                     0.105497
     48 H                     0.088634
     49 H                     0.089772
     50 H                     0.081363
     51 H                     0.085419
     52 H                     0.088485
     53 H                     0.102209
     54 H                     0.091216
     55 H                     0.099468
     56 H                     0.091389
  ----------------------------------------
  Sum of atomic charges =    -0.000000

                    Cartesian Multipole Moments
 -----------------------------------------------------------------
    Charge (ESU x 10^10)
                 0.0000
    Dipole Moment (Debye)
         X      -4.5687      Y       0.0257      Z      -0.4100
       Tot       4.5871
    Quadrupole Moments (Debye-Ang)
        XX    -168.7727     XY      -0.3376     YY    -148.8904
        XZ       2.6376     YZ      -3.3599     ZZ    -149.3088

 Total job time:  164.28s(wall), 7820.47s(cpu)
        *  Thank you very much for using Q-Chem.  Have a nice day.  *
