 Q-Chem 5.0, Q-Chem, Inc., Pleasanton, CA (2017)
 Q-Chem 5.0.1 for Intel X86 EM64T Linux

User input:
--------------------------------------------------------------
$molecule
0  1
O -5.9330287812 1.6363330499 -0.2710576639
C -4.7310779553 1.3294858555 -0.1150054109
C -3.9183104924 0.32757677 -1.0195836377
C -2.7228790182 -0.457366708 -0.3339617188
C -2.2085231309 0.0910748173 1.0427183744
O -1.3319708106 1.1930125457 0.7613379583
C -0.6908726848 1.6845360047 2.0023049046
C 0.7874084632 2.0533841407 1.6498018356
O 1.6259993519 0.8304161281 1.7185775149
C 2.2046169059 0.5471282472 0.4435682128
C 3.0898757051 -0.7412140693 0.5631073198
C 4.0598665718 -0.9274348644 -0.6737390853
C 3.8129784539 0.0751636401 -1.860720513
O 4.4893739176 1.082925187 -2.1560306269
O -3.9109626426 1.8608655299 0.9261798177
O 2.7448457311 -0.4545883543 -2.6621253214
O 2.0341516889 1.2524273362 -0.5776805564
C 2.4263329255 0.4901028075 -3.754613952
C 4.1445099726 -0.5736877755 1.7398399338
C 4.8560868273 -1.9601267 2.0009865604
C 5.8516318749 -2.0300535078 0.7828000286
C 5.4726424035 -0.7068154002 0.0123515948
O 5.1950005195 0.254886412 1.1058295596
H 2.4319005682 -1.6165361354 0.7145805728
H 3.9654159204 -1.9510977807 -1.0778077043
H 3.7337185033 -0.0713393102 2.6370673811
H 5.3921830747 -1.9411824494 2.963078151
H 4.1388881445 -2.7965788621 2.0144138118
H 6.900421694 -1.9938918598 1.1180921837
H 5.7071132383 -2.9301591818 0.1640399157
H 6.247743786 -0.3026861724 -0.667243128
O -2.4025917519 -0.388517936 2.1803511039
C -4.7053432868 2.7464991456 1.807360652
C -4.8839164362 -0.8806810681 -1.3727589213
C -4.2317906292 -1.7789669326 -2.4970900745
C -3.1627997267 -2.5864810619 -1.6698514677
C -3.3301661357 -1.923409016 -0.2476554501
O -4.7929326822 -1.7120987998 -0.1482691346
H -3.5753384325 0.8702476821 -1.9199883394
H -1.8530267777 -0.4420917421 -1.0155406688
H -5.5381407457 2.1968201041 2.291504788
H -5.9303138767 -0.5663617409 -1.5547817375
H -4.986367897 -2.444761332 -2.9449011059
H -3.7778943091 -1.1720700464 -3.2968478898
H -3.4133147022 -3.6585176803 -1.6265067536
H -2.1408979319 -2.4757444661 -2.0663237974
H -2.9649546754 -2.5175231184 0.6124287147
H -5.1260293853 3.6058482114 1.2464796709
H -4.0039079822 3.1122060406 2.5795880351
H 1.645712107 0.0020335507 -4.3669056484
H 3.3137868669 0.7044193078 -4.3847761704
H 2.0379059801 1.448577157 -3.3529881837
H 0.8527508798 2.4783586031 0.6242021015
H 1.1866403134 2.7796934225 2.3890716079
H -0.7430789128 0.9037331933 2.7922967796
H -1.2273292131 2.5902383068 2.362696985
$end

$rem
JOBTYPE                   OPT
METHOD                    B3LYP
DFT_D                     d3_op
BASIS                     STO-3G
GEOM_OPT_MAX_CYCLES       100
GEOM_OPT_TOL_GRADIENT     300
GEOM_OPT_TOL_DISPLACEMENT 1200
GEOM_OPT_TOL_ENERGY       100
SYMMETRY                  False
THRESH                    12
SCF_CONVERGENCE           8
MAX_SUB_FILE_NUM          128
MEM_STATIC                400
MEM_TOTAL                 4000
$end
--------------------------------------------------------------

   16   -1510.2827934255      5.87E-09 Convergence criterion met
 Total energy in the final basis set = -1510.28279343
   14   -1510.2841312681      3.78E-09 Convergence criterion met
 Total energy in the final basis set = -1510.28413127
   14   -1510.2852255631      3.90E-09 Convergence criterion met
 Total energy in the final basis set = -1510.28522556
   14   -1510.2865861592      3.63E-09 Convergence criterion met
 Total energy in the final basis set = -1510.28658616
   15   -1510.2443404174      3.43E-09 Convergence criterion met
 Total energy in the final basis set = -1510.24434042
   15   -1510.2864255330      3.99E-09 Convergence criterion met
 Total energy in the final basis set = -1510.28642553
   14   -1510.2875151911      9.55E-09 Convergence criterion met
 Total energy in the final basis set = -1510.28751519
   14   -1510.2889668316      7.33E-09 Convergence criterion met
   12   -1510.2989784172      7.19E-09 Convergence criterion met
 Total energy in the final basis set = -1510.29897842
   12   -1510.2990620443      5.32E-09 Convergence criterion met
 Total energy in the final basis set = -1510.29906204
   12   -1510.2990809608      6.78E-09 Convergence criterion met
 Total energy in the final basis set = -1510.29908096
   11   -1510.2990976866      6.43E-09 Convergence criterion met
 Total energy in the final basis set = -1510.29909769
   11   -1510.2991001795      3.73E-09 Convergence criterion met
 Total energy in the final basis set = -1510.29910018
    9   -1510.2991003194      9.35E-09 Convergence criterion met
 Total energy in the final basis set = -1510.29910032

             Standard Nuclear Orientation (Angstroms)
    I     Atom           X                Y                Z
 ----------------------------------------------------------------
    1      O       5.2006495655    -0.0407580286    -0.1555325946
    2      C       4.0721877212     0.0098160509     0.3772544752
    3      C       2.8983558897    -1.0238978220     0.2250893797
    4      C       1.4882576922    -0.3667588140    -0.0947835186
    5      C       1.4723364366     1.1952535891    -0.0436889359
    6      O       0.9070818544     1.5800089485     1.2248579060
    7      C       0.7020234078     3.0438429870     1.2736229766
    8      C      -0.8478313049     3.3153468344     1.2586307043
    9      O      -1.4506165801     2.5872674804     0.1151781825
   10      C      -1.8058724153     1.2598205926     0.5067498331
   11      C      -2.2598695750     0.4703815674    -0.7644241964
   12      C      -2.5613165238    -1.0490493854    -0.4487359059
   13      C      -2.2650928082    -1.4885019880     1.0337332819
   14      O      -3.0951000914    -1.7657446108     1.9227188448
   15      O       3.6480061863     1.0577498649     1.2567568396
   16      O      -0.8449189356    -1.7355238922     1.1660260374
   17      O      -1.7996459114     0.8291922342     1.6832300737
   18      C      -0.5338243796    -2.1486063838     2.5521521129
   19      C      -3.6887073164     0.9619692018    -1.2587397614
   20      C      -3.9563410344     0.3536405421    -2.6926136210
   21      C      -4.3000823621    -1.1393100253    -2.3322804826
   22      C      -4.1148141104    -1.1214715139    -0.7643548056
   23      O      -4.6145587646     0.2188996386    -0.3760760296
   24      H      -1.4953170990     0.5920355655    -1.5522940209
   25      H      -1.9812525398    -1.7044097893    -1.1214383499
   26      H      -3.8480045240     2.0541513258    -1.1693466461
   27      H      -4.8066801859     0.8611966901    -3.1751676872
   28      H      -3.0745108739     0.4408491078    -3.3471559745
   29      H      -5.3412498989    -1.3878157153    -2.5927717040
   30      H      -3.6297867403    -1.8620036472    -2.8243789808
   31      H      -4.6534156527    -1.9096671465    -0.2035739477
   32      O       1.8123405003     2.0074311756    -0.9315821875
   33      C       4.6874112778     2.1077273242     1.3453828047
   34      C       3.1315240635    -1.9008250838    -1.0733110173
   35      C       2.1509697807    -3.1364778136    -1.0443094576
   36      C       0.7775226037    -2.4439362256    -1.3759577659
   37      C       1.2343789828    -0.9404878890    -1.5551663593
   38      O       2.5847184566    -1.0433369075    -2.1502842591
   39      H       2.8487798240    -1.6390736425     1.1429844348
   40      H       0.6966655062    -0.7390458791     0.5883572411
   41      H       4.8448355305     2.6019643715     0.3647925254
   42      H       4.1976745883    -2.1308147015    -1.2660137332
   43      H       2.4349798353    -3.8691564804    -1.8164033128
   44      H       2.1462944117    -3.6399841312    -0.0642217167
   45      H       0.3347441920    -2.8376383936    -2.3043684346
   46      H       0.0545217023    -2.5350195794    -0.5464488354
   47      H       0.5804248731    -0.3138455239    -2.1920024241
   48      H       5.6562048801     1.6965674392     1.6948885355
   49      H       4.3110178003     2.8471836183     2.0759128238
   50      H       0.5396099534    -2.4125719500     2.5611890487
   51      H      -1.1397984965    -3.0244186166     2.8601587596
   52      H      -0.7188607569    -1.3181482919     3.2636170619
   53      H      -1.3059097289     2.9712761031     2.2099844666
   54      H      -1.0552891086     4.3927672494     1.0997378936
   55      H       1.1890011906     3.4977984164     0.3827691368
   56      H       1.1537406767     3.4391709481     2.2069241071
 ----------------------------------------------------------------

    9   -1510.2991004728      3.25E-09 Convergence criterion met
 Total energy in the final basis set = -1510.29910047
 Final energy is   -1510.29910047285
 **  OPTIMIZATION CONVERGED  **

                    Orbital Energies (a.u.)
 --------------------------------------------------------------

 Alpha MOs
 -- Occupied --
-18.944 -18.937 -18.936 -18.926 -18.890 -18.889 -18.881 -18.878
-18.874 -18.870 -10.110 -10.102 -10.099 -10.095 -10.077 -10.068
-10.066 -10.065 -10.064 -10.061 -10.053 -10.052 -10.044 -10.039
-10.035 -10.023 -10.022 -10.021 -10.015 -10.008  -1.025  -1.014
 -1.009  -1.002  -0.973  -0.964  -0.948  -0.938  -0.936  -0.931
 -0.768  -0.758  -0.729  -0.721  -0.713  -0.704  -0.695  -0.663
 -0.662  -0.620  -0.599  -0.577  -0.549  -0.542  -0.540  -0.533
 -0.515  -0.506  -0.490  -0.475  -0.469  -0.462  -0.453  -0.446
 -0.435  -0.427  -0.425  -0.419  -0.415  -0.413  -0.411  -0.405
 -0.399  -0.381  -0.375  -0.369  -0.363  -0.359  -0.350  -0.349
 -0.345  -0.341  -0.340  -0.336  -0.329  -0.326  -0.324  -0.315
 -0.310  -0.306  -0.303  -0.301  -0.295  -0.285  -0.283  -0.277
 -0.269  -0.257  -0.254  -0.248  -0.242  -0.237  -0.227  -0.193
 -0.179  -0.178  -0.167  -0.161  -0.158  -0.153  -0.148  -0.147
 -0.139

          Ground-State Mulliken Net Atomic Charges

     Atom                 Charge (a.u.)
  ----------------------------------------
      1 O                    -0.208866
      2 C                     0.212000
      3 C                    -0.077788
      4 C                    -0.093680
      5 C                     0.210960
      6 O                    -0.173149
      7 C                    -0.056817
      8 C                    -0.051437
      9 O                    -0.171320
     10 C                     0.216937
     11 C                    -0.078560
     12 C                    -0.082876
     13 C                     0.220989
     14 O                    -0.209186
     15 O                    -0.169629
     16 O                    -0.178111
     17 O                    -0.203234
     18 C                    -0.127522
     19 C                     0.025572
     20 C                    -0.143821
     21 C                    -0.143870
     22 C                     0.025182
     23 O                    -0.188383
     24 H                     0.087049
     25 H                     0.085587
     26 H                     0.086606
     27 H                     0.079168
     28 H                     0.074752
     29 H                     0.079014
     30 H                     0.073627
     31 H                     0.089787
     32 O                    -0.219231
     33 C                    -0.128152
     34 C                     0.023943
     35 C                    -0.144312
     36 C                    -0.152987
     37 C                     0.023980
     38 O                    -0.190274
     39 H                     0.082249
     40 H                     0.106426
     41 H                     0.092468
     42 H                     0.088738
     43 H                     0.076252
     44 H                     0.070711
     45 H                     0.069794
     46 H                     0.085630
     47 H                     0.076008
     48 H                     0.090806
     49 H                     0.089397
     50 H                     0.086175
     51 H                     0.090768
     52 H                     0.096800
     53 H                     0.098689
     54 H                     0.090830
     55 H                     0.101101
     56 H                     0.085209
  ----------------------------------------
  Sum of atomic charges =     0.000000

                    Cartesian Multipole Moments
 -----------------------------------------------------------------
    Charge (ESU x 10^10)
                -0.0000
    Dipole Moment (Debye)
         X      -0.1442      Y       0.1499      Z       0.6858
       Tot       0.7167
    Quadrupole Moments (Debye-Ang)
        XX    -174.2609     XY       0.5565     YY    -145.8515
        XZ      19.4581     YZ       5.8575     ZZ    -161.1583

 Total job time:  111.76s(wall), 5330.61s(cpu)
        *  Thank you very much for using Q-Chem.  Have a nice day.  *
