 Q-Chem 5.0, Q-Chem, Inc., Pleasanton, CA (2017)
 Q-Chem 5.0.1 for Intel X86 EM64T Linux

User input:
--------------------------------------------------------------
$molecule
0  1
O -3.94934 -3.66094 2.70899
C -3.26408 -4.56952 2.26188
C -3.36658 -6.02376 2.66595
C -2.08915 -6.87319 2.56349
C -0.811 -6.1325 2.23825
O -0.73965 -5.89801 0.89462
C 0.50423 -5.31657 0.48972
C 0.9509 -5.9067 -0.84383
O 1.65092 -7.1412 -0.6228
C 1.08551 -8.24019 -1.18109
C 1.87343 -9.5025 -0.92342
C 1.4908 -10.69671 -1.80984
C 0.65766 -10.37138 -3.03325
O 1.07482 -10.31797 -4.18116
O -2.67848 -4.33212 1.06012
O -0.6835 -10.2663 -2.83417
O -0.11418 -8.27032 -1.41782
C -1.60434 -10.02797 -3.83328
C 3.37894 -9.37495 -1.25107
C 4.16404 -10.40846 -0.44583
C 3.73733 -11.68533 -1.13774
C 2.90267 -11.10558 -2.28637
O 3.50388 -9.86506 -2.56039
H 1.76413 -9.72448 0.16226
H 0.99479 -11.53223 -1.26862
H 3.79808 -8.36169 -1.07052
H 5.24286 -10.23185 -0.6598
H 4.0028 -10.38765 0.65347
H 4.64769 -12.19562 -1.52357
H 3.13916 -12.38662 -0.51647
H 2.86878 -11.82694 -3.13289
O 0.08478 -5.91119 3.04692
C -2.61704 -3.10137 0.43837
C -3.69761 -6.17874 4.16353
C -4.3262 -7.54745 4.42185
C -3.11732 -8.44298 4.27033
C -2.02743 -7.39679 4.01736
O -2.44048 -6.29005 4.7793
H -4.19237 -6.44998 2.05366
H -2.17088 -7.73373 1.86176
H -2.06865 -2.37795 1.07869
H -4.36479 -5.38068 4.55604
H -4.6548 -7.57434 5.48554
H -5.18685 -7.79321 3.76315
H -2.93273 -8.9503 5.24368
H -3.18127 -9.19797 3.4572
H -1.03403 -7.82529 4.27663
H -3.64095 -2.72283 0.23231
H -2.07666 -3.20786 -0.52453
H -2.62016 -9.98837 -3.38945
H -1.57393 -10.845 -4.58548
H -1.39068 -9.05503 -4.32535
H 0.09866 -5.94405 -1.56024
H 1.6964 -5.21316 -1.28878
H 1.34605 -5.33888 1.21767
H 0.28086 -4.24685 0.28696
$end

$opt
CONSTRAINT
tors           1           2           3           4    -151.270
tors           3           4           5           6     -80.610
tors           4           5           6           7    -174.210
tors           5           6           7           8    +141.291
tors           6           7           8           9     -84.371
tors           7           8           9          10    +118.490
tors           8           9          10          11    +179.513
tors           9          10          11          12    -165.202
tors          11          12          13          14    +103.422
ENDCONSTRAINT
$end

$rem
JOBTYPE                   OPT
METHOD                    B3LYP
DFT_D                     d3_op
BASIS                     STO-3G
GEOM_OPT_MAX_CYCLES       100
GEOM_OPT_TOL_GRADIENT     300
GEOM_OPT_TOL_DISPLACEMENT 1200
GEOM_OPT_TOL_ENERGY       100
SYMMETRY                  False
THRESH                    12
SCF_CONVERGENCE           8
MAX_SUB_FILE_NUM          128
MEM_STATIC                400
MEM_TOTAL                 4000
$end
--------------------------------------------------------------

   15   -1510.1331112026      7.25E-09 Convergence criterion met
 Total energy in the final basis set = -1510.13311120
   14   -1510.2041484551      5.80E-09 Convergence criterion met
 Total energy in the final basis set = -1510.20414846
   14   -1510.2423658902      6.09E-09 Convergence criterion met
 Total energy in the final basis set = -1510.24236589
   14   -1510.2604494204      7.12E-09 Convergence criterion met
 Total energy in the final basis set = -1510.26044942
   13   -1510.2684852546      9.76E-09 Convergence criterion met
 Total energy in the final basis set = -1510.26848525
   13   -1510.2728629472      5.63E-09 Convergence criterion met
 Total energy in the final basis set = -1510.27286295
   13   -1510.2756972922      5.30E-09 Convergence criterion met
 Total energy in the final basis set = -1510.27569729
   13   -1510.2775603896      9.35E-09 Convergence criterion met
   12   -1510.2828069523      3.32E-09 Convergence criterion met
 Total energy in the final basis set = -1510.28280695
   11   -1510.2828607273      5.99E-09 Convergence criterion met
 Total energy in the final basis set = -1510.28286073
   11   -1510.2829029365      4.27E-09 Convergence criterion met
 Total energy in the final basis set = -1510.28290294
   11   -1510.2829188121      2.94E-09 Convergence criterion met
 Total energy in the final basis set = -1510.28291881
   11   -1510.2829305205      3.54E-09 Convergence criterion met
 Total energy in the final basis set = -1510.28293052
   10   -1510.2829335002      9.31E-09 Convergence criterion met
 Total energy in the final basis set = -1510.28293350

             Standard Nuclear Orientation (Angstroms)
    I     Atom           X                Y                Z
 ----------------------------------------------------------------
    1      O      -5.9330287812     1.6363330499    -0.2710576639
    2      C      -4.7310779553     1.3294858555    -0.1150054109
    3      C      -3.9183104924     0.3275767700    -1.0195836377
    4      C      -2.7228790182    -0.4573667080    -0.3339617188
    5      C      -2.2085231309     0.0910748173     1.0427183744
    6      O      -1.3319708106     1.1930125457     0.7613379583
    7      C      -0.6908726848     1.6845360047     2.0023049046
    8      C       0.7874084632     2.0533841407     1.6498018356
    9      O       1.6259993519     0.8304161281     1.7185775149
   10      C       2.2046169059     0.5471282472     0.4435682128
   11      C       3.0898757051    -0.7412140693     0.5631073198
   12      C       4.0598665718    -0.9274348644    -0.6737390853
   13      C       3.8129784539     0.0751636401    -1.8607205130
   14      O       4.4893739176     1.0829251870    -2.1560306269
   15      O      -3.9109626426     1.8608655299     0.9261798177
   16      O       2.7448457311    -0.4545883543    -2.6621253214
   17      O       2.0341516889     1.2524273362    -0.5776805564
   18      C       2.4263329255     0.4901028075    -3.7546139520
   19      C       4.1445099726    -0.5736877755     1.7398399338
   20      C       4.8560868273    -1.9601267000     2.0009865604
   21      C       5.8516318749    -2.0300535078     0.7828000286
   22      C       5.4726424035    -0.7068154002     0.0123515948
   23      O       5.1950005195     0.2548864120     1.1058295596
   24      H       2.4319005682    -1.6165361354     0.7145805728
   25      H       3.9654159204    -1.9510977807    -1.0778077043
   26      H       3.7337185033    -0.0713393102     2.6370673811
   27      H       5.3921830747    -1.9411824494     2.9630781510
   28      H       4.1388881445    -2.7965788621     2.0144138118
   29      H       6.9004216940    -1.9938918598     1.1180921837
   30      H       5.7071132383    -2.9301591818     0.1640399157
   31      H       6.2477437860    -0.3026861724    -0.6672431280
   32      O      -2.4025917519    -0.3885179360     2.1803511039
   33      C      -4.7053432868     2.7464991456     1.8073606520
   34      C      -4.8839164362    -0.8806810681    -1.3727589213
   35      C      -4.2317906292    -1.7789669326    -2.4970900745
   36      C      -3.1627997267    -2.5864810619    -1.6698514677
   37      C      -3.3301661357    -1.9234090160    -0.2476554501
   38      O      -4.7929326822    -1.7120987998    -0.1482691346
   39      H      -3.5753384325     0.8702476821    -1.9199883394
   40      H      -1.8530267777    -0.4420917421    -1.0155406688
   41      H      -5.5381407457     2.1968201041     2.2915047880
   42      H      -5.9303138767    -0.5663617409    -1.5547817375
   43      H      -4.9863678970    -2.4447613320    -2.9449011059
   44      H      -3.7778943091    -1.1720700464    -3.2968478898
   45      H      -3.4133147022    -3.6585176803    -1.6265067536
   46      H      -2.1408979319    -2.4757444661    -2.0663237974
   47      H      -2.9649546754    -2.5175231184     0.6124287147
   48      H      -5.1260293853     3.6058482114     1.2464796709
   49      H      -4.0039079822     3.1122060406     2.5795880351
   50      H       1.6457121070     0.0020335507    -4.3669056484
   51      H       3.3137868669     0.7044193078    -4.3847761704
   52      H       2.0379059801     1.4485771570    -3.3529881837
   53      H       0.8527508798     2.4783586031     0.6242021015
   54      H       1.1866403134     2.7796934225     2.3890716079
   55      H      -0.7430789128     0.9037331933     2.7922967796
   56      H      -1.2273292131     2.5902383068     2.3626969850
 ----------------------------------------------------------------

    9   -1510.2829339489      2.96E-09 Convergence criterion met
 Total energy in the final basis set = -1510.28293395
 Final energy is   -1510.28293394889
 **  OPTIMIZATION CONVERGED  **

                    Orbital Energies (a.u.)
 --------------------------------------------------------------

 Alpha MOs
 -- Occupied --
-18.944 -18.942 -18.926 -18.919 -18.889 -18.886 -18.886 -18.878
-18.870 -18.860 -10.108 -10.104 -10.100 -10.090 -10.074 -10.071
-10.070 -10.060 -10.058 -10.058 -10.057 -10.054 -10.042 -10.041
-10.036 -10.032 -10.021 -10.020 -10.019 -10.019  -1.022  -1.018
 -1.005  -0.997  -0.970  -0.970  -0.946  -0.940  -0.932  -0.924
 -0.764  -0.762  -0.729  -0.723  -0.714  -0.704  -0.696  -0.667
 -0.654  -0.618  -0.598  -0.578  -0.546  -0.543  -0.538  -0.537
 -0.512  -0.511  -0.489  -0.479  -0.463  -0.455  -0.453  -0.449
 -0.432  -0.430  -0.425  -0.417  -0.414  -0.413  -0.404  -0.403
 -0.400  -0.385  -0.373  -0.367  -0.363  -0.356  -0.354  -0.345
 -0.345  -0.336  -0.333  -0.332  -0.331  -0.329  -0.324  -0.314
 -0.312  -0.307  -0.306  -0.301  -0.298  -0.292  -0.276  -0.273
 -0.271  -0.256  -0.248  -0.247  -0.244  -0.234  -0.234  -0.189
 -0.182  -0.168  -0.165  -0.163  -0.158  -0.150  -0.144  -0.144
 -0.141

          Ground-State Mulliken Net Atomic Charges

     Atom                 Charge (a.u.)
  ----------------------------------------
      1 O                    -0.212712
      2 C                     0.212883
      3 C                    -0.076530
      4 C                    -0.081409
      5 C                     0.218734
      6 O                    -0.175161
      7 C                    -0.051659
      8 C                    -0.054569
      9 O                    -0.172786
     10 C                     0.217370
     11 C                    -0.076812
     12 C                    -0.082117
     13 C                     0.215258
     14 O                    -0.217679
     15 O                    -0.166767
     16 O                    -0.176070
     17 O                    -0.207000
     18 C                    -0.128334
     19 C                     0.024094
     20 C                    -0.144451
     21 C                    -0.143478
     22 C                     0.024379
     23 O                    -0.190528
     24 H                     0.087006
     25 H                     0.083371
     26 H                     0.088455
     27 H                     0.078286
     28 H                     0.073330
     29 H                     0.078019
     30 H                     0.073193
     31 H                     0.088770
     32 O                    -0.219095
     33 C                    -0.125842
     34 C                     0.023717
     35 C                    -0.145091
     36 C                    -0.142954
     37 C                     0.023642
     38 O                    -0.190726
     39 H                     0.086621
     40 H                     0.085293
     41 H                     0.093814
     42 H                     0.090052
     43 H                     0.078546
     44 H                     0.073334
     45 H                     0.077803
     46 H                     0.073382
     47 H                     0.087667
     48 H                     0.091395
     49 H                     0.090694
     50 H                     0.084363
     51 H                     0.086811
     52 H                     0.091641
     53 H                     0.108612
     54 H                     0.087445
     55 H                     0.101388
     56 H                     0.082403
  ----------------------------------------
  Sum of atomic charges =    -0.000000

                    Cartesian Multipole Moments
 -----------------------------------------------------------------
    Charge (ESU x 10^10)
                -0.0000
    Dipole Moment (Debye)
         X       0.2454      Y      -0.7945      Z      -0.1734
       Tot       0.8495
    Quadrupole Moments (Debye-Ang)
        XX    -179.9577     XY     -15.6923     YY    -153.5570
        XZ       6.3699     YZ       8.3151     ZZ    -153.4398

 Total job time:  60.98s(wall), 2905.29s(cpu)
        *  Thank you very much for using Q-Chem.  Have a nice day.  *
