 Q-Chem 5.0, Q-Chem, Inc., Pleasanton, CA (2017)
 Q-Chem 5.0.1 for Intel X86 EM64T Linux

User input:
--------------------------------------------------------------
$molecule
0  1
O -6.2278556659 0.4348588902 -0.1968088765
C -5.0121018601 0.4270214873 -0.4851567546
C -4.110935842 -0.8427105824 -0.6961215726
C -2.5821814675 -0.6878286996 -0.2985031443
C -2.1401462261 0.7464269553 0.1614731229
O -1.4947906336 1.3837671696 -0.953502436
C -0.8228318248 2.631487411 -0.5202266138
C 0.6485883307 2.5993810996 -1.0633088299
O 1.5707152262 2.2121474168 0.0353257686
C 2.1910530166 0.9608362827 -0.2585966167
C 3.1660874279 0.5732308311 0.9088658868
C 4.0352736668 -0.6734130768 0.4930860601
C 3.3693309373 -1.597422552 -0.5906333754
O 3.9224562819 -2.1219852521 -1.5807897115
O -4.2451003434 1.6077054037 -0.7355334138
O 2.0844296074 -2.0004368839 -0.0720122416
O 2.0365947698 0.3361498882 -1.3350091061
C 1.3993113273 -2.8847066943 -1.0378395997
C 4.2944375031 1.6922290607 0.9380683131
C 5.3464308264 1.3819162363 2.0752783781
C 6.2179507328 0.258234956 1.3981752617
C 5.3992568795 0.0164453537 0.0712666714
O 5.0164071409 1.3939362328 -0.3241529135
H 2.6217395264 0.4487836334 1.861559819
H 4.1995247658 -1.3179275169 1.3770735912
H 3.8967411415 2.7256857858 0.9258833083
H 5.9431370783 2.2784194609 2.3063657753
H 4.8568088336 1.0370321902 3.0004300577
H 7.2305929976 0.6234843446 1.163033589
H 6.3009955223 -0.6511423659 2.0143426109
H 5.9364756404 -0.4940694244 -0.7518672427
O -2.1912675869 1.228725442 1.3141499669
C -5.0621388769 2.8172549629 -0.488131048
C -4.5651786824 -1.9934430548 0.296532619
C -3.9431891692 -3.3616572871 -0.1862171779
C -2.4436182607 -3.1892427429 0.2595133188
C -2.4782972222 -1.7407204116 0.8878266055
O -3.8104293307 -1.6766214408 1.5316195455
H -4.2090006158 -1.154786462 -1.7528572602
H -1.9377665015 -0.9721108374 -1.1489946344
H -5.3776120265 2.8816000862 0.5731864457
H -5.654915417 -2.0009908335 0.494905017
H -4.4245046605 -4.2077181384 0.3296378997
H -4.0502047253 -3.5045283774 -1.2735657749
H -2.1623652335 -3.9304315207 1.024490651
H -1.7359192715 -3.2621522603 -0.5813095922
H -1.6807654005 -1.5211644002 1.6235421923
H -5.9667203491 2.8331806206 -1.1294726909
H -4.4137715296 3.6777217036 -0.7351084134
H 0.5998180393 -2.321053887 -1.5613606588
H 0.946611792 -3.7248575562 -0.4768024988
H 2.1271403167 -3.2654139172 -1.7829720187
H 0.7429619868 1.8613013674 -1.8898444353
H 0.9561019753 3.6062504755 -1.4146239662
H -0.8503450631 2.6978059548 0.5901078924
H -1.3681451107 3.5001499404 -0.9479426313
$end

$rem
JOBTYPE                   OPT
METHOD                    B3LYP
DFT_D                     d3_op
BASIS                     STO-3G
GEOM_OPT_MAX_CYCLES       100
GEOM_OPT_TOL_GRADIENT     300
GEOM_OPT_TOL_DISPLACEMENT 1200
GEOM_OPT_TOL_ENERGY       100
SYMMETRY                  False
THRESH                    12
SCF_CONVERGENCE           8
MAX_SUB_FILE_NUM          128
MEM_STATIC                400
MEM_TOTAL                 4000
$end
--------------------------------------------------------------

   16   -1510.2808701062      5.35E-09 Convergence criterion met
 Total energy in the final basis set = -1510.28087011
   14   -1510.2829561567      5.82E-09 Convergence criterion met
 Total energy in the final basis set = -1510.28295616
   14   -1510.2847407175      6.78E-09 Convergence criterion met
 Total energy in the final basis set = -1510.28474072
   14   -1510.2861775805      6.58E-09 Convergence criterion met
 Total energy in the final basis set = -1510.28617758
   14   -1510.2878017069      5.27E-09 Convergence criterion met
 Total energy in the final basis set = -1510.28780171
   14   -1510.2891278584      6.01E-09 Convergence criterion met
 Total energy in the final basis set = -1510.28912786
   14   -1510.2909815071      5.66E-09 Convergence criterion met
 Total energy in the final basis set = -1510.29098151
   15   -1510.2814186342      2.55E-09 Convergence criterion met
   12   -1510.3057499101      4.92E-09 Convergence criterion met
 Total energy in the final basis set = -1510.30574991
   13   -1510.3058075629      3.51E-09 Convergence criterion met
 Total energy in the final basis set = -1510.30580756
   11   -1510.3058163257      8.67E-09 Convergence criterion met
 Total energy in the final basis set = -1510.30581633
   10   -1510.3058282675      7.78E-09 Convergence criterion met
 Total energy in the final basis set = -1510.30582827
   10   -1510.3058316153      5.25E-09 Convergence criterion met
 Total energy in the final basis set = -1510.30583162
    9   -1510.3058323744      9.24E-09 Convergence criterion met
 Total energy in the final basis set = -1510.30583237

             Standard Nuclear Orientation (Angstroms)
    I     Atom           X                Y                Z
 ----------------------------------------------------------------
    1      O      -0.8898081836     1.2073053373     1.8039955207
    2      C      -2.0849302597     0.9960408262     1.4860937786
    3      C      -2.6722580861    -0.3050717171     0.8238703369
    4      C      -2.1762362935    -0.4889727172    -0.6694334275
    5      C      -1.6666481230     0.8606726515    -1.2770635360
    6      O      -1.1345592608     0.6467677112    -2.5869466467
    7      C      -0.7778810410     1.9500222736    -3.2078609924
    8      C       0.7089604362     2.3488794627    -2.8690798121
    9      O       0.9348067559     2.1438296462    -1.4204463211
   10      C       1.6521630048     0.9167725757    -1.2182814472
   11      C       1.6078406543     0.5338408536     0.2853807178
   12      C       2.1264662987    -0.9364601733     0.5524987485
   13      C       2.6687777991    -1.6733420949    -0.7222372748
   14      O       3.8589002721    -1.8975788269    -1.0272475818
   15      O      -3.1621045555     1.8804570291     1.7988830429
   16      O       1.5451234657    -2.2273956283    -1.4502038413
   17      O       2.2088946916     0.2842456314    -2.1467035830
   18      C       2.0044600765    -2.8741039772    -2.6961979524
   19      C       2.6211234035     1.3793379336     1.1751204623
   20      C       2.1606022654     1.2102609098     2.6758516356
   21      C       2.6406667817    -0.2586988818     2.9708933780
   22      C       3.2905635906    -0.6569101397     1.5869799567
   23      O       3.8837480342     0.6124584794     1.1004393180
   24      H       0.5724955657     0.6658436693     0.6753303983
   25      H       1.2896752200    -1.5275873735     0.9760212549
   26      H       2.7729427371     2.4230359855     0.8377646906
   27      H       2.6680624789     1.9420539960     3.3240988380
   28      H       1.0683736533     1.3288101871     2.7697953914
   29      H       3.3941539733    -0.2869292473     3.7743332525
   30      H       1.8083725708    -0.9282995102     3.2411207578
   31      H       4.0640123604    -1.4480832218     1.6298106031
   32      O      -1.7991243838     1.9882316455    -0.7453648070
   33      C      -2.6249646198     3.1402546440     2.3630904221
   34      C      -2.0188138095    -1.5790059024     1.5016759579
   35      C      -2.6887974808    -2.8898878117     0.9249640203
   36      C      -1.9722606824    -3.0163978033    -0.4724589687
   37      C      -1.1302077485    -1.6831348924    -0.5042799044
   38      O      -0.6694738217    -1.5746805876     0.8991395408
   39      H      -3.7731853329    -0.2809888145     0.8983108520
   40      H      -3.0113169373    -0.8256340723    -1.3113876248
   41      H      -1.9527003034     3.6444080718     1.6392942511
   42      H      -1.9521602115    -1.5268020714     2.6056877639
   43      H      -2.4729835058    -3.7531608615     1.5741280675
   44      H      -3.7816106254    -2.7835366106     0.8322944566
   45      H      -1.2978247709    -3.8872489348    -0.4987450798
   46      H      -2.6812742235    -3.0921454243    -1.3121867404
   47      H      -0.2338783942    -1.6950848858    -1.1693475003
   48      H      -2.0646058071     2.9608339624     3.3034574367
   49      H      -3.5014486063     3.7816144072     2.5688448072
   50      H       1.7153461604    -2.2532008464    -3.5679823466
   51      H       1.5225196223    -3.8677697706    -2.7751010510
   52      H       3.1079541716    -2.9785665006    -2.6648998406
   53      H       1.4231168033     1.7108618582    -3.4330954310
   54      H       0.8759044520     3.4199961902    -3.1021929466
   55      H      -1.4693730795     2.7370781945    -2.8411719114
   56      H      -0.8969277326     1.8160363236    -4.3022163098
 ----------------------------------------------------------------

    9   -1510.3058324323      5.49E-09 Convergence criterion met
 Total energy in the final basis set = -1510.30583243
 Final energy is   -1510.30583243231
 **  OPTIMIZATION CONVERGED  **

                    Orbital Energies (a.u.)
 --------------------------------------------------------------

 Alpha MOs
 -- Occupied --
-18.947 -18.935 -18.932 -18.915 -18.892 -18.889 -18.877 -18.871
-18.869 -18.858 -10.111 -10.103 -10.095 -10.084 -10.078 -10.070
-10.065 -10.062 -10.050 -10.046 -10.042 -10.042 -10.040 -10.040
-10.022 -10.019 -10.011 -10.010 -10.002  -9.996  -1.027  -1.011
 -1.008  -0.991  -0.975  -0.952  -0.948  -0.935  -0.933  -0.919
 -0.766  -0.746  -0.726  -0.719  -0.704  -0.700  -0.685  -0.662
 -0.646  -0.618  -0.593  -0.570  -0.548  -0.540  -0.530  -0.521
 -0.513  -0.499  -0.487  -0.474  -0.460  -0.457  -0.447  -0.438
 -0.431  -0.424  -0.418  -0.414  -0.410  -0.408  -0.402  -0.398
 -0.393  -0.382  -0.370  -0.366  -0.358  -0.355  -0.354  -0.345
 -0.341  -0.336  -0.330  -0.326  -0.323  -0.319  -0.316  -0.309
 -0.306  -0.304  -0.297  -0.288  -0.286  -0.281  -0.277  -0.266
 -0.262  -0.255  -0.251  -0.242  -0.234  -0.229  -0.214  -0.197
 -0.176  -0.170  -0.164  -0.158  -0.156  -0.151  -0.147  -0.138
 -0.127

          Ground-State Mulliken Net Atomic Charges

     Atom                 Charge (a.u.)
  ----------------------------------------
      1 O                    -0.224213
      2 C                     0.222492
      3 C                    -0.079931
      4 C                    -0.081520
      5 C                     0.212778
      6 O                    -0.168452
      7 C                    -0.051976
      8 C                    -0.056378
      9 O                    -0.171811
     10 C                     0.210306
     11 C                    -0.092146
     12 C                    -0.091463
     13 C                     0.219305
     14 O                    -0.216174
     15 O                    -0.166931
     16 O                    -0.181715
     17 O                    -0.211729
     18 C                    -0.134364
     19 C                     0.025600
     20 C                    -0.148549
     21 C                    -0.143845
     22 C                     0.024295
     23 O                    -0.192848
     24 H                     0.112488
     25 H                     0.106119
     26 H                     0.079491
     27 H                     0.070325
     28 H                     0.090125
     29 H                     0.072445
     30 H                     0.073144
     31 H                     0.083199
     32 O                    -0.206547
     33 C                    -0.127629
     34 C                     0.026527
     35 C                    -0.145310
     36 C                    -0.142720
     37 C                     0.011745
     38 O                    -0.193671
     39 H                     0.086505
     40 H                     0.086440
     41 H                     0.095637
     42 H                     0.082707
     43 H                     0.077931
     44 H                     0.073269
     45 H                     0.078836
     46 H                     0.072212
     47 H                     0.115130
     48 H                     0.087693
     49 H                     0.089429
     50 H                     0.083492
     51 H                     0.079609
     52 H                     0.102313
     53 H                     0.102495
     54 H                     0.088869
     55 H                     0.096251
     56 H                     0.090721
  ----------------------------------------
  Sum of atomic charges =    -0.000000

                    Cartesian Multipole Moments
 -----------------------------------------------------------------
    Charge (ESU x 10^10)
                -0.0000
    Dipole Moment (Debye)
         X      -4.8360      Y       0.0802      Z      -0.6412
       Tot       4.8790
    Quadrupole Moments (Debye-Ang)
        XX    -172.4123     XY       3.1891     YY    -150.3451
        XZ       1.7596     YZ      -3.0428     ZZ    -147.8542

 Total job time:  191.46s(wall), 9120.75s(cpu)
        *  Thank you very much for using Q-Chem.  Have a nice day.  *
