 Q-Chem 5.0, Q-Chem, Inc., Pleasanton, CA (2017)
 Q-Chem 5.0.1 for Intel X86 EM64T Linux

User input:
--------------------------------------------------------------
$molecule
0  1
O -3.94934 -3.66094 2.70899
C -3.26408 -4.56952 2.26188
C -3.36658 -6.02376 2.66595
C -2.076 -6.85816 2.62093
C -0.79394 -6.10315 2.34819
O -0.44431 -6.24155 1.03517
C 0.87695 -5.76929 0.75145
C 1.65712 -6.82511 -0.02489
O 2.54891 -7.52283 0.85872
C 2.28889 -8.84322 1.02634
C 3.26398 -9.5211 1.95927
C 3.15706 -11.05233 2.00625
C 2.36743 -11.69435 0.88332
O 2.68795 -12.70905 0.28148
O -2.55796 -4.32171 1.12659
O 1.02703 -11.46741 0.89276
O 1.10814 -9.14868 1.04883
C 0.08137 -12.01557 0.0422
C 4.74351 -9.35319 1.5519
C 5.63019 -9.51608 2.7844
C 5.47366 -10.99942 3.04953
C 4.64614 -11.41089 1.82501
O 5.04721 -10.51371 0.81872
H 3.10802 -9.06537 2.96383
H 2.72969 -11.42341 2.96373
H 4.96463 -8.3872 1.0486
H 6.67609 -9.32246 2.45408
H 5.39156 -8.85311 3.64382
H 6.48296 -11.46695 3.02856
H 4.94955 -11.26086 3.99449
H 4.80388 -12.48982 1.60692
O -0.3203 -5.26668 3.10936
C -2.41482 -3.07811 0.54773
C -3.73792 -6.19328 4.15522
C -4.35694 -7.57212 4.38731
C -3.13344 -8.45608 4.26609
C -2.04575 -7.39814 4.05996
O -2.49908 -6.29971 4.81342
H -4.16892 -6.46203 2.03125
H -2.15627 -7.68292 1.87569
H -1.91846 -2.38247 1.25772
H -4.42555 -5.40538 4.53247
H -4.713 -7.60704 5.44191
H -5.19784 -7.82605 3.70667
H -2.97701 -8.97557 5.23777
H -3.16255 -9.19931 3.4401
H -1.0486 -7.80649 4.33761
H -3.40723 -2.67358 0.25519
H -1.78436 -3.17107 -0.36025
H -0.45267 -11.19485 -0.47979
H -0.65292 -12.5955 0.63819
H 0.52568 -12.68162 -0.72784
H 0.99208 -7.45355 -0.66195
H 2.33008 -6.29367 -0.73211
H 1.4799 -5.35647 1.5926
H 0.71528 -4.92492 0.04645
$end

$opt
CONSTRAINT
tors           1           2           3           4    -148.722
tors           3           4           5           6    -100.025
tors           4           5           6           7    -169.079
tors           5           6           7           8    +130.010
tors           6           7           8           9    -101.334
tors           7           8           9          10    +115.581
tors           8           9          10          11    +179.698
tors           9          10          11          12    -170.504
tors          11          12          13          14    +137.603
ENDCONSTRAINT
$end

$rem
JOBTYPE                   OPT
METHOD                    B3LYP
DFT_D                     d3_op
BASIS                     STO-3G
GEOM_OPT_MAX_CYCLES       100
GEOM_OPT_TOL_GRADIENT     300
GEOM_OPT_TOL_DISPLACEMENT 1200
GEOM_OPT_TOL_ENERGY       100
SYMMETRY                  False
THRESH                    12
SCF_CONVERGENCE           8
MAX_SUB_FILE_NUM          128
MEM_STATIC                400
MEM_TOTAL                 4000
$end
--------------------------------------------------------------

   15   -1510.1028940851      7.55E-09 Convergence criterion met
 Total energy in the final basis set = -1510.10289409
   14   -1510.1779843214      8.91E-09 Convergence criterion met
 Total energy in the final basis set = -1510.17798432
   14   -1510.2189882844      6.33E-09 Convergence criterion met
 Total energy in the final basis set = -1510.21898828
   15   -1510.2405159121      1.53E-09 Convergence criterion met
 Total energy in the final basis set = -1510.24051591
   13   -1510.2531803023      7.51E-09 Convergence criterion met
 Total energy in the final basis set = -1510.25318030
   13   -1510.2604226441      7.97E-09 Convergence criterion met
 Total energy in the final basis set = -1510.26042264
   13   -1510.2653324528      8.47E-09 Convergence criterion met
 Total energy in the final basis set = -1510.26533245
   13   -1510.2686972194      5.01E-09 Convergence criterion met
   12   -1510.2807426045      2.89E-09 Convergence criterion met
 Total energy in the final basis set = -1510.28074260
   11   -1510.2808131187      8.92E-09 Convergence criterion met
 Total energy in the final basis set = -1510.28081312
   10   -1510.2808422693      7.75E-09 Convergence criterion met
 Total energy in the final basis set = -1510.28084227
   11   -1510.2808630154      4.02E-09 Convergence criterion met
 Total energy in the final basis set = -1510.28086302
   11   -1510.2808693695      2.33E-09 Convergence criterion met
 Total energy in the final basis set = -1510.28086937
   11   -1510.2808741732      2.17E-09 Convergence criterion met
 Total energy in the final basis set = -1510.28087417

             Standard Nuclear Orientation (Angstroms)
    I     Atom           X                Y                Z
 ----------------------------------------------------------------
    1      O      -6.2278556659     0.4348588902    -0.1968088765
    2      C      -5.0121018601     0.4270214873    -0.4851567546
    3      C      -4.1109358420    -0.8427105824    -0.6961215726
    4      C      -2.5821814675    -0.6878286996    -0.2985031443
    5      C      -2.1401462261     0.7464269553     0.1614731229
    6      O      -1.4947906336     1.3837671696    -0.9535024360
    7      C      -0.8228318248     2.6314874110    -0.5202266138
    8      C       0.6485883307     2.5993810996    -1.0633088299
    9      O       1.5707152262     2.2121474168     0.0353257686
   10      C       2.1910530166     0.9608362827    -0.2585966167
   11      C       3.1660874279     0.5732308311     0.9088658868
   12      C       4.0352736668    -0.6734130768     0.4930860601
   13      C       3.3693309373    -1.5974225520    -0.5906333754
   14      O       3.9224562819    -2.1219852521    -1.5807897115
   15      O      -4.2451003434     1.6077054037    -0.7355334138
   16      O       2.0844296074    -2.0004368839    -0.0720122416
   17      O       2.0365947698     0.3361498882    -1.3350091061
   18      C       1.3993113273    -2.8847066943    -1.0378395997
   19      C       4.2944375031     1.6922290607     0.9380683131
   20      C       5.3464308264     1.3819162363     2.0752783781
   21      C       6.2179507328     0.2582349560     1.3981752617
   22      C       5.3992568795     0.0164453537     0.0712666714
   23      O       5.0164071409     1.3939362328    -0.3241529135
   24      H       2.6217395264     0.4487836334     1.8615598190
   25      H       4.1995247658    -1.3179275169     1.3770735912
   26      H       3.8967411415     2.7256857858     0.9258833083
   27      H       5.9431370783     2.2784194609     2.3063657753
   28      H       4.8568088336     1.0370321902     3.0004300577
   29      H       7.2305929976     0.6234843446     1.1630335890
   30      H       6.3009955223    -0.6511423659     2.0143426109
   31      H       5.9364756404    -0.4940694244    -0.7518672427
   32      O      -2.1912675869     1.2287254420     1.3141499669
   33      C      -5.0621388769     2.8172549629    -0.4881310480
   34      C      -4.5651786824    -1.9934430548     0.2965326190
   35      C      -3.9431891692    -3.3616572871    -0.1862171779
   36      C      -2.4436182607    -3.1892427429     0.2595133188
   37      C      -2.4782972222    -1.7407204116     0.8878266055
   38      O      -3.8104293307    -1.6766214408     1.5316195455
   39      H      -4.2090006158    -1.1547864620    -1.7528572602
   40      H      -1.9377665015    -0.9721108374    -1.1489946344
   41      H      -5.3776120265     2.8816000862     0.5731864457
   42      H      -5.6549154170    -2.0009908335     0.4949050170
   43      H      -4.4245046605    -4.2077181384     0.3296378997
   44      H      -4.0502047253    -3.5045283774    -1.2735657749
   45      H      -2.1623652335    -3.9304315207     1.0244906510
   46      H      -1.7359192715    -3.2621522603    -0.5813095922
   47      H      -1.6807654005    -1.5211644002     1.6235421923
   48      H      -5.9667203491     2.8331806206    -1.1294726909
   49      H      -4.4137715296     3.6777217036    -0.7351084134
   50      H       0.5998180393    -2.3210538870    -1.5613606588
   51      H       0.9466117920    -3.7248575562    -0.4768024988
   52      H       2.1271403167    -3.2654139172    -1.7829720187
   53      H       0.7429619868     1.8613013674    -1.8898444353
   54      H       0.9561019753     3.6062504755    -1.4146239662
   55      H      -0.8503450631     2.6978059548     0.5901078924
   56      H      -1.3681451107     3.5001499404    -0.9479426313
 ----------------------------------------------------------------

    9   -1510.2808750762      9.16E-09 Convergence criterion met
 Total energy in the final basis set = -1510.28087508
 Final energy is   -1510.28087507620
 **  OPTIMIZATION CONVERGED  **

                    Orbital Energies (a.u.)
 --------------------------------------------------------------

 Alpha MOs
 -- Occupied --
-18.944 -18.942 -18.925 -18.916 -18.888 -18.887 -18.886 -18.880
-18.868 -18.864 -10.107 -10.104 -10.098 -10.093 -10.072 -10.070
-10.068 -10.061 -10.059 -10.058 -10.058 -10.051 -10.042 -10.041
-10.036 -10.034 -10.022 -10.021 -10.020 -10.020  -1.022  -1.019
 -1.004  -0.998  -0.970  -0.970  -0.945  -0.942  -0.931  -0.925
 -0.765  -0.763  -0.729  -0.724  -0.714  -0.705  -0.696  -0.667
 -0.654  -0.619  -0.598  -0.578  -0.546  -0.544  -0.538  -0.537
 -0.512  -0.510  -0.489  -0.477  -0.462  -0.457  -0.452  -0.448
 -0.436  -0.431  -0.430  -0.416  -0.415  -0.411  -0.404  -0.404
 -0.400  -0.384  -0.372  -0.366  -0.363  -0.357  -0.354  -0.347
 -0.343  -0.339  -0.334  -0.331  -0.330  -0.329  -0.324  -0.313
 -0.311  -0.309  -0.306  -0.302  -0.297  -0.290  -0.280  -0.273
 -0.272  -0.256  -0.251  -0.245  -0.241  -0.235  -0.234  -0.190
 -0.182  -0.166  -0.166  -0.161  -0.159  -0.149  -0.148  -0.145
 -0.144

          Ground-State Mulliken Net Atomic Charges

     Atom                 Charge (a.u.)
  ----------------------------------------
      1 O                    -0.210374
      2 C                     0.213379
      3 C                    -0.077938
      4 C                    -0.079923
      5 C                     0.217171
      6 O                    -0.174861
      7 C                    -0.055921
      8 C                    -0.056470
      9 O                    -0.171827
     10 C                     0.220027
     11 C                    -0.075250
     12 C                    -0.080403
     13 C                     0.218979
     14 O                    -0.219848
     15 O                    -0.166688
     16 O                    -0.180452
     17 O                    -0.206422
     18 C                    -0.134607
     19 C                     0.023528
     20 C                    -0.145283
     21 C                    -0.141769
     22 C                     0.022877
     23 O                    -0.192991
     24 H                     0.090097
     25 H                     0.083851
     26 H                     0.087021
     27 H                     0.078570
     28 H                     0.074225
     29 H                     0.078240
     30 H                     0.073672
     31 H                     0.091409
     32 O                    -0.220532
     33 C                    -0.126443
     34 C                     0.023980
     35 C                    -0.144354
     36 C                    -0.143746
     37 C                     0.025552
     38 O                    -0.188418
     39 H                     0.085920
     40 H                     0.085377
     41 H                     0.093708
     42 H                     0.090179
     43 H                     0.078529
     44 H                     0.073158
     45 H                     0.077874
     46 H                     0.072872
     47 H                     0.086745
     48 H                     0.091884
     49 H                     0.091216
     50 H                     0.080013
     51 H                     0.081166
     52 H                     0.099811
     53 H                     0.109815
     54 H                     0.087069
     55 H                     0.104737
     56 H                     0.081873
  ----------------------------------------
  Sum of atomic charges =    -0.000000

                    Cartesian Multipole Moments
 -----------------------------------------------------------------
    Charge (ESU x 10^10)
                -0.0000
    Dipole Moment (Debye)
         X       0.1415      Y       0.5993      Z       0.1063
       Tot       0.6249
    Quadrupole Moments (Debye-Ang)
        XX    -168.4418     XY      -0.0655     YY    -147.1380
        XZ      20.6884     YZ      -1.6075     ZZ    -164.4979

 Total job time:  76.92s(wall), 3667.35s(cpu)
        *  Thank you very much for using Q-Chem.  Have a nice day.  *
