 Q-Chem 5.0, Q-Chem, Inc., Pleasanton, CA (2017)
 Q-Chem 5.0.1 for Intel X86 EM64T Linux

User input:
--------------------------------------------------------------
$molecule
0  1
O -6.1416595902 -0.1633792501 0.1670609638
C -4.9716361917 -0.0326096029 -0.250527567
C -3.8555086077 -1.1324862055 -0.290452671
C -2.3663107684 -0.596960595 -0.3491002477
C -2.2225147381 0.932444974 -0.0220744333
O -1.5319916751 1.5670642252 -1.1154721568
C -0.949148773 2.8535188274 -0.6685662692
C 0.5576304811 2.8968768397 -1.1000465541
O 1.401242057 2.3826062974 0.0088082229
C 1.9754418624 1.1229211439 -0.3421356
C 2.9059125057 0.6520673341 0.8237451108
C 3.665824109 -0.6915402696 0.4816988807
C 3.2059018625 -1.3978726882 -0.8477824626
O 3.8795199316 -1.5496870818 -1.8888420022
O -4.4832050556 1.1466007642 -0.9026110899
O 1.9441278403 -2.0428900248 -0.599675641
O 1.7956208222 0.5465835114 -1.4403833597
C 1.4782142951 -2.6963595393 -1.8421764663
C 4.1340779301 1.6505844494 0.9807944924
C 4.9143920197 1.2926026645 2.3076786038
C 5.7024475858 0.0037724278 1.8641829804
C 5.1646916527 -0.1830123337 0.393274113
O 5.0427964365 1.20972384 -0.1009688656
H 2.3139334746 0.5773656166 1.7539152279
H 3.5366217778 -1.4177899441 1.3043036335
H 3.8640029761 2.7177850661 0.8601579949
H 5.5962336744 2.1113058878 2.5871171283
H 4.2284813513 1.1018534889 3.1485752742
H 6.789957836 0.1798290218 1.8574435551
H 5.4885794107 -0.8689719115 2.5016279837
H 5.8021983708 -0.7788514522 -0.2884354492
O -2.46992422 1.4993363608 1.0650082723
C -5.4990796032 2.2220247754 -0.8574625756
C -3.8204077997 -2.0346796215 1.0176415729
C -3.1526420214 -3.4100915827 0.6330423576
C -1.660284357 -2.9599304813 0.4187290295
C -1.7265436561 -1.4374891109 0.8393722894
O -2.7911735803 -1.3930872386 1.8688355185
H -4.0633737083 -1.7610028853 -1.177347218
H -1.8899344872 -0.8004566701 -1.323600803
H -5.6954329091 2.5475843189 0.1845016645
H -4.7892977726 -2.0988432924 1.5503818748
H -3.2423600218 -4.1246055326 1.4669357449
H -3.5982012653 -3.8598139591 -0.2688106281
H -0.9655211308 -3.512939864 1.0701304535
H -1.3340295836 -3.0793160261 -0.6261022064
H -0.780657317 -1.0215805692 1.2373723114
H -6.4554613576 1.8952056262 -1.313907993
H -5.0772813981 3.0646082487 -1.4354405729
H 0.5965651311 -3.3013237191 -1.5640842215
H 2.2584816606 -3.3529738751 -2.2777934442
H 1.1864827978 -1.9430932798 -2.6029112092
H 0.7182693777 2.2698341107 -2.0039244367
H 0.8719166275 3.9434028775 -1.2931469225
H -1.0637609879 2.9499233298 0.4335686475
H -1.4976642799 3.6892432786 -1.1558188544
$end

$rem
JOBTYPE                   OPT
METHOD                    B3LYP
DFT_D                     d3_op
BASIS                     STO-3G
GEOM_OPT_MAX_CYCLES       100
GEOM_OPT_TOL_GRADIENT     300
GEOM_OPT_TOL_DISPLACEMENT 1200
GEOM_OPT_TOL_ENERGY       100
SYMMETRY                  False
THRESH                    12
SCF_CONVERGENCE           8
MAX_SUB_FILE_NUM          128
MEM_STATIC                400
MEM_TOTAL                 4000
$end
--------------------------------------------------------------

   16   -1510.2837149453      5.65E-09 Convergence criterion met
 Total energy in the final basis set = -1510.28371495
   14   -1510.2864479558      5.78E-09 Convergence criterion met
 Total energy in the final basis set = -1510.28644796
   14   -1510.2878307048      7.32E-09 Convergence criterion met
 Total energy in the final basis set = -1510.28783070
   14   -1510.2902215730      9.02E-09 Convergence criterion met
 Total energy in the final basis set = -1510.29022157
   14   -1510.2930224134      7.12E-09 Convergence criterion met
 Total energy in the final basis set = -1510.29302241
   15   -1510.2936657158      3.14E-09 Convergence criterion met
 Total energy in the final basis set = -1510.29366572
   13   -1510.2957109143      9.44E-09 Convergence criterion met
 Total energy in the final basis set = -1510.29571091
   14   -1510.2915556010      5.15E-09 Convergence criterion met
   10   -1510.3026691579      8.39E-09 Convergence criterion met
 Total energy in the final basis set = -1510.30266916
    9   -1510.3026662545      5.70E-09 Convergence criterion met
 Total energy in the final basis set = -1510.30266625
    9   -1510.3026561617      5.76E-09 Convergence criterion met
 Total energy in the final basis set = -1510.30265616
    9   -1510.3026675010      6.49E-09 Convergence criterion met
 Total energy in the final basis set = -1510.30266750
   12   -1510.3026741328      2.19E-09 Convergence criterion met
 Total energy in the final basis set = -1510.30267413
    9   -1510.3026818629      6.23E-09 Convergence criterion met
 Total energy in the final basis set = -1510.30268186

             Standard Nuclear Orientation (Angstroms)
    I     Atom           X                Y                Z
 ----------------------------------------------------------------
    1      O      -2.3021228368     1.1414382902     2.5721023425
    2      C      -2.9614713023     0.7940988504     1.5693544580
    3      C      -2.8430701329    -0.5670590746     0.7832548477
    4      C      -2.1336130083    -0.4679104657    -0.6329860187
    5      C      -1.6509727191     0.9911599478    -0.9331114776
    6      O      -1.2200752221     1.0874580070    -2.2946122004
    7      C      -0.8385944551     2.4886005602    -2.6079536387
    8      C       0.6923520271     2.7308755832    -2.3334974982
    9      O       1.0190094310     2.2551856428    -0.9685285964
   10      C       1.6593583008     0.9766912222    -1.0461103357
   11      C       1.7708470634     0.3635302711     0.3822189495
   12      C       2.5111291013    -1.0349979740     0.3759259124
   13      C       2.8674258604    -1.5836575562    -1.0522632284
   14      O       3.9914047242    -1.6602702287    -1.5886070859
   15      O      -4.0927998977     1.5087696532     1.0461851845
   16      O       1.6677258715    -2.1621403586    -1.6131480430
   17      O       2.0566528324     0.4655266314    -2.1198932622
   18      C       1.9225146827    -2.6223245311    -2.9936889392
   19      C       2.7342421515     1.2099719691     1.3136980690
   20      C       2.5661607572     0.6996041942     2.7999217208
   21      C       3.3710993980    -0.6526069649     2.7520657462
   22      C       3.7997458418    -0.6961555019     1.2337878511
   23      O       4.0769479979     0.7256873398     0.9175859828
   24      H       0.7513599194     0.2394433977     0.8063271321
   25      H       1.8692184305    -1.7833443326     0.8756234247
   26      H       2.6529564152     2.3056888343     1.1758084635
   27      H       3.0146028262     1.4150936849     3.5072374203
   28      H       1.5063109455     0.5548578148     3.0641525297
   29      H       4.2602890360    -0.6144526275     3.4014808925
   30      H       2.7598274983    -1.5233202094     3.0379110481
   31      H       4.6830912145    -1.3205354452     0.9972544759
   32      O      -1.6735229194     1.9573692788    -0.1362577961
   33      C      -4.2095477702     2.8173209173     1.7253642759
   34      C      -1.8802414913    -1.5706138053     1.5420635998
   35      C      -2.1688594182    -3.0295771436     1.0216028558
   36      C      -1.5388841010    -2.9604102528    -0.4182846700
   37      C      -0.9395820036    -1.4996162639    -0.4381617397
   38      O      -0.5448441126    -1.2701599036     0.9719067862
   39      H      -3.8594421818    -0.9847006882     0.6713980539
   40      H      -2.8039069678    -0.7841889266    -1.4526096354
   41      H      -3.3247815465     3.4545946428     1.5204218355
   42      H      -1.8670415294    -1.4381037960     2.6412544351
   43      H      -1.6550715031    -3.7726934375     1.6522085674
   44      H      -3.2456444225    -3.2614932381     1.0075500371
   45      H      -0.7312498144    -3.6984495114    -0.5464207021
   46      H      -2.2843951776    -3.1113903951    -1.2151550409
   47      H      -0.0533535774    -1.4014772873    -1.1056157921
   48      H      -4.3144098688     2.7020484756     2.8236548431
   49      H      -5.1161865303     3.2985839024     1.3144250256
   50      H       0.9914271527    -3.1131517432    -3.3324499353
   51      H       2.7621609073    -3.3456987480    -3.0351592113
   52      H       2.1567811427    -1.7683017577    -3.6619788736
   53      H       1.3121414027     2.1678024490    -3.0639292217
   54      H       0.9193682283     3.8151651864    -2.3837696511
   55      H      -1.4432804377     3.1852293572    -1.9902759640
   56      H      -1.0582061744     2.6408791220    -3.6843169040
 ----------------------------------------------------------------

    9   -1510.3026823189      6.75E-09 Convergence criterion met
 Total energy in the final basis set = -1510.30268232
 Final energy is   -1510.30268231890
 **  OPTIMIZATION CONVERGED  **

                    Orbital Energies (a.u.)
 --------------------------------------------------------------

 Alpha MOs
 -- Occupied --
-18.946 -18.939 -18.921 -18.919 -18.892 -18.891 -18.884 -18.877
-18.861 -18.859 -10.110 -10.103 -10.091 -10.089 -10.079 -10.074
-10.060 -10.056 -10.055 -10.052 -10.051 -10.048 -10.042 -10.034
-10.024 -10.022 -10.021 -10.018 -10.010 -10.009  -1.028  -1.015
 -0.998  -0.996  -0.974  -0.960  -0.948  -0.941  -0.924  -0.924
 -0.764  -0.754  -0.729  -0.718  -0.709  -0.703  -0.692  -0.655
 -0.653  -0.620  -0.595  -0.575  -0.545  -0.539  -0.537  -0.528
 -0.510  -0.505  -0.489  -0.472  -0.461  -0.457  -0.451  -0.441
 -0.430  -0.428  -0.420  -0.420  -0.406  -0.404  -0.403  -0.401
 -0.397  -0.384  -0.371  -0.364  -0.361  -0.356  -0.350  -0.344
 -0.341  -0.336  -0.335  -0.329  -0.327  -0.324  -0.316  -0.312
 -0.307  -0.305  -0.302  -0.297  -0.293  -0.278  -0.274  -0.270
 -0.267  -0.257  -0.248  -0.245  -0.244  -0.236  -0.222  -0.200
 -0.174  -0.166  -0.164  -0.162  -0.160  -0.150  -0.142  -0.140
 -0.135

          Ground-State Mulliken Net Atomic Charges

     Atom                 Charge (a.u.)
  ----------------------------------------
      1 O                    -0.220996
      2 C                     0.215654
      3 C                    -0.082363
      4 C                    -0.079496
      5 C                     0.213592
      6 O                    -0.169860
      7 C                    -0.052064
      8 C                    -0.055720
      9 O                    -0.169060
     10 C                     0.212800
     11 C                    -0.086918
     12 C                    -0.084505
     13 C                     0.218050
     14 O                    -0.214900
     15 O                    -0.177477
     16 O                    -0.180316
     17 O                    -0.210911
     18 C                    -0.128216
     19 C                     0.024793
     20 C                    -0.143667
     21 C                    -0.143140
     22 C                     0.023906
     23 O                    -0.192297
     24 H                     0.110684
     25 H                     0.091381
     26 H                     0.085264
     27 H                     0.076065
     28 H                     0.080777
     29 H                     0.075518
     30 H                     0.073756
     31 H                     0.086228
     32 O                    -0.202549
     33 C                    -0.128586
     34 C                     0.024898
     35 C                    -0.144001
     36 C                    -0.144250
     37 C                     0.012776
     38 O                    -0.196543
     39 H                     0.083938
     40 H                     0.087662
     41 H                     0.091098
     42 H                     0.088655
     43 H                     0.077163
     44 H                     0.073557
     45 H                     0.079852
     46 H                     0.072159
     47 H                     0.107484
     48 H                     0.086606
     49 H                     0.085458
     50 H                     0.084513
     51 H                     0.088238
     52 H                     0.092412
     53 H                     0.103106
     54 H                     0.090572
     55 H                     0.097997
     56 H                     0.091224
  ----------------------------------------
  Sum of atomic charges =    -0.000000

                    Cartesian Multipole Moments
 -----------------------------------------------------------------
    Charge (ESU x 10^10)
                -0.0000
    Dipole Moment (Debye)
         X      -3.5780      Y      -0.5134      Z      -1.1442
       Tot       3.7915
    Quadrupole Moments (Debye-Ang)
        XX    -169.6621     XY       0.2447     YY    -147.8957
        XZ       5.9764     YZ      -5.9381     ZZ    -155.2058

 Total job time:  147.11s(wall), 7010.25s(cpu)
        *  Thank you very much for using Q-Chem.  Have a nice day.  *
