 Q-Chem 5.0, Q-Chem, Inc., Pleasanton, CA (2017)
 Q-Chem 5.0.1 for Intel X86 EM64T Linux

User input:
--------------------------------------------------------------
$molecule
0  1
O -3.94934 -3.66094 2.70899
C -3.26408 -4.56952 2.26188
C -3.36658 -6.02376 2.66595
C -2.13727 -6.91172 2.41263
C -0.88142 -6.20823 1.94784
O -0.43903 -6.76931 0.78384
C 0.94193 -6.50116 0.51867
C 1.67453 -7.79684 0.18605
O 2.24898 -8.35426 1.3786
C 1.67934 -9.5039 1.81791
C 2.36615 -10.07249 3.03679
C 1.81786 -11.42408 3.51726
C 0.93576 -12.16663 2.53378
O 1.2133 -13.22772 1.99376
O -2.49836 -4.28035 1.17505
O -0.36745 -11.76869 2.50625
O 0.68585 -9.95621 1.27314
C -1.36163 -12.39035 1.77929
C 3.84773 -10.43106 2.79833
C 4.59413 -10.41101 4.13034
C 4.00673 -11.63657 4.79911
C 3.15206 -12.19042 3.65153
O 3.83992 -11.80129 2.48836
H 2.3054 -9.28999 3.82697
H 1.27368 -11.36608 4.48571
H 4.35578 -9.76802 2.06469
H 5.66564 -10.6101 3.90015
H 4.51637 -9.46911 4.71486
H 4.8392 -12.33034 5.05126
H 3.38806 -11.4361 5.70063
H 3.00055 -13.28435 3.78528
O -0.31636 -5.31542 2.57127
C -2.34276 -3.02126 0.63294
C -3.457 -6.1654 4.20545
C -4.09472 -7.50614 4.57235
C -2.96829 -8.45732 4.22976
C -1.8803 -7.45874 3.82467
O -2.12854 -6.33662 4.633
H -4.31306 -6.41531 2.23124
H -2.37893 -7.7315 1.69726
H -1.89928 -2.33445 1.38523
H -4.02061 -5.33992 4.69284
H -4.23682 -7.51292 5.67698
H -5.06638 -7.71956 4.07729
H -2.66988 -8.99856 5.15515
H -3.18866 -9.18535 3.41906
H -0.87231 -7.92115 3.922
H -3.32355 -2.62551 0.29308
H -1.66047 -3.08365 -0.23946
H -2.31842 -11.852 1.93886
H -1.48219 -13.44232 2.11525
H -1.11393 -12.36701 0.69651
H 1.04704 -8.46711 -0.44352
H 2.54642 -7.53589 -0.45158
H 1.51372 -5.90982 1.2695
H 0.93737 -5.89915 -0.41569
$end

$opt
CONSTRAINT
tors           1           2           3           4    -158.102
tors           3           4           5           6    -125.193
tors           4           5           6           7    -159.760
tors           5           6           7           8    +130.010
tors           6           7           8           9     -92.721
tors           7           8           9          10    +110.788
tors           8           9          10          11    +177.395
tors           9          10          11          12    -176.073
tors          11          12          13          14    +113.455
ENDCONSTRAINT
$end

$rem
JOBTYPE                   OPT
METHOD                    B3LYP
DFT_D                     d3_op
BASIS                     STO-3G
GEOM_OPT_MAX_CYCLES       100
GEOM_OPT_TOL_GRADIENT     300
GEOM_OPT_TOL_DISPLACEMENT 1200
GEOM_OPT_TOL_ENERGY       100
SYMMETRY                  False
THRESH                    12
SCF_CONVERGENCE           8
MAX_SUB_FILE_NUM          128
MEM_STATIC                400
MEM_TOTAL                 4000
$end
--------------------------------------------------------------

   15   -1510.1452995861      5.98E-09 Convergence criterion met
 Total energy in the final basis set = -1510.14529959
   14   -1510.2155760926      6.55E-09 Convergence criterion met
 Total energy in the final basis set = -1510.21557609
   14   -1510.2521385802      7.45E-09 Convergence criterion met
 Total energy in the final basis set = -1510.25213858
   14   -1510.2679098759      7.14E-09 Convergence criterion met
 Total energy in the final basis set = -1510.26790988
   14   -1510.2752020634      3.84E-09 Convergence criterion met
 Total energy in the final basis set = -1510.27520206
   13   -1510.2786577389      5.35E-09 Convergence criterion met
 Total energy in the final basis set = -1510.27865774
   13   -1510.2805609154      2.10E-09 Convergence criterion met
 Total energy in the final basis set = -1510.28056092
   13   -1510.2815523849      5.03E-09 Convergence criterion met
   12   -1510.2835379418      3.33E-09 Convergence criterion met
 Total energy in the final basis set = -1510.28353794
   11   -1510.2835899789      6.98E-09 Convergence criterion met
 Total energy in the final basis set = -1510.28358998
   11   -1510.2836256584      3.28E-09 Convergence criterion met
 Total energy in the final basis set = -1510.28362566
   11   -1510.2836416385      3.43E-09 Convergence criterion met
 Total energy in the final basis set = -1510.28364164
   10   -1510.2836501573      9.74E-09 Convergence criterion met
 Total energy in the final basis set = -1510.28365016
    9   -1510.2836513558      5.54E-09 Convergence criterion met
 Total energy in the final basis set = -1510.28365136

             Standard Nuclear Orientation (Angstroms)
    I     Atom           X                Y                Z
 ----------------------------------------------------------------
    1      O      -6.1416595902    -0.1633792501     0.1670609638
    2      C      -4.9716361917    -0.0326096029    -0.2505275670
    3      C      -3.8555086077    -1.1324862055    -0.2904526710
    4      C      -2.3663107684    -0.5969605950    -0.3491002477
    5      C      -2.2225147381     0.9324449740    -0.0220744333
    6      O      -1.5319916751     1.5670642252    -1.1154721568
    7      C      -0.9491487730     2.8535188274    -0.6685662692
    8      C       0.5576304811     2.8968768397    -1.1000465541
    9      O       1.4012420570     2.3826062974     0.0088082229
   10      C       1.9754418624     1.1229211439    -0.3421356000
   11      C       2.9059125057     0.6520673341     0.8237451108
   12      C       3.6658241090    -0.6915402696     0.4816988807
   13      C       3.2059018625    -1.3978726882    -0.8477824626
   14      O       3.8795199316    -1.5496870818    -1.8888420022
   15      O      -4.4832050556     1.1466007642    -0.9026110899
   16      O       1.9441278403    -2.0428900248    -0.5996756410
   17      O       1.7956208222     0.5465835114    -1.4403833597
   18      C       1.4782142951    -2.6963595393    -1.8421764663
   19      C       4.1340779301     1.6505844494     0.9807944924
   20      C       4.9143920197     1.2926026645     2.3076786038
   21      C       5.7024475858     0.0037724278     1.8641829804
   22      C       5.1646916527    -0.1830123337     0.3932741130
   23      O       5.0427964365     1.2097238400    -0.1009688656
   24      H       2.3139334746     0.5773656166     1.7539152279
   25      H       3.5366217778    -1.4177899441     1.3043036335
   26      H       3.8640029761     2.7177850661     0.8601579949
   27      H       5.5962336744     2.1113058878     2.5871171283
   28      H       4.2284813513     1.1018534889     3.1485752742
   29      H       6.7899578360     0.1798290218     1.8574435551
   30      H       5.4885794107    -0.8689719115     2.5016279837
   31      H       5.8021983708    -0.7788514522    -0.2884354492
   32      O      -2.4699242200     1.4993363608     1.0650082723
   33      C      -5.4990796032     2.2220247754    -0.8574625756
   34      C      -3.8204077997    -2.0346796215     1.0176415729
   35      C      -3.1526420214    -3.4100915827     0.6330423576
   36      C      -1.6602843570    -2.9599304813     0.4187290295
   37      C      -1.7265436561    -1.4374891109     0.8393722894
   38      O      -2.7911735803    -1.3930872386     1.8688355185
   39      H      -4.0633737083    -1.7610028853    -1.1773472180
   40      H      -1.8899344872    -0.8004566701    -1.3236008030
   41      H      -5.6954329091     2.5475843189     0.1845016645
   42      H      -4.7892977726    -2.0988432924     1.5503818748
   43      H      -3.2423600218    -4.1246055326     1.4669357449
   44      H      -3.5982012653    -3.8598139591    -0.2688106281
   45      H      -0.9655211308    -3.5129398640     1.0701304535
   46      H      -1.3340295836    -3.0793160261    -0.6261022064
   47      H      -0.7806573170    -1.0215805692     1.2373723114
   48      H      -6.4554613576     1.8952056262    -1.3139079930
   49      H      -5.0772813981     3.0646082487    -1.4354405729
   50      H       0.5965651311    -3.3013237191    -1.5640842215
   51      H       2.2584816606    -3.3529738751    -2.2777934442
   52      H       1.1864827978    -1.9430932798    -2.6029112092
   53      H       0.7182693777     2.2698341107    -2.0039244367
   54      H       0.8719166275     3.9434028775    -1.2931469225
   55      H      -1.0637609879     2.9499233298     0.4335686475
   56      H      -1.4976642799     3.6892432786    -1.1558188544
 ----------------------------------------------------------------

    9   -1510.2836521342      6.64E-09 Convergence criterion met
 Total energy in the final basis set = -1510.28365213
 Final energy is   -1510.28365213423
 **  OPTIMIZATION CONVERGED  **

                    Orbital Energies (a.u.)
 --------------------------------------------------------------

 Alpha MOs
 -- Occupied --
-18.943 -18.942 -18.923 -18.919 -18.889 -18.888 -18.887 -18.880
-18.865 -18.860 -10.108 -10.104 -10.096 -10.091 -10.073 -10.068
-10.067 -10.061 -10.060 -10.059 -10.056 -10.055 -10.042 -10.039
-10.036 -10.033 -10.021 -10.021 -10.020 -10.019  -1.022  -1.017
 -1.003  -0.998  -0.970  -0.970  -0.946  -0.941  -0.929  -0.924
 -0.764  -0.763  -0.728  -0.723  -0.714  -0.705  -0.697  -0.665
 -0.655  -0.619  -0.599  -0.577  -0.546  -0.544  -0.538  -0.537
 -0.513  -0.511  -0.489  -0.475  -0.461  -0.456  -0.453  -0.449
 -0.435  -0.431  -0.431  -0.415  -0.413  -0.412  -0.404  -0.403
 -0.400  -0.382  -0.372  -0.367  -0.362  -0.355  -0.353  -0.350
 -0.343  -0.339  -0.335  -0.334  -0.331  -0.325  -0.324  -0.314
 -0.312  -0.306  -0.305  -0.301  -0.296  -0.288  -0.277  -0.274
 -0.272  -0.257  -0.251  -0.245  -0.243  -0.234  -0.234  -0.190
 -0.181  -0.166  -0.164  -0.163  -0.159  -0.149  -0.145  -0.142
 -0.142

          Ground-State Mulliken Net Atomic Charges

     Atom                 Charge (a.u.)
  ----------------------------------------
      1 O                    -0.210434
      2 C                     0.213684
      3 C                    -0.079457
      4 C                    -0.077954
      5 C                     0.216718
      6 O                    -0.176584
      7 C                    -0.055796
      8 C                    -0.055515
      9 O                    -0.172541
     10 C                     0.216020
     11 C                    -0.077478
     12 C                    -0.081983
     13 C                     0.216121
     14 O                    -0.218109
     15 O                    -0.166820
     16 O                    -0.177956
     17 O                    -0.205902
     18 C                    -0.129355
     19 C                     0.024844
     20 C                    -0.144181
     21 C                    -0.143488
     22 C                     0.024236
     23 O                    -0.190382
     24 H                     0.087493
     25 H                     0.083347
     26 H                     0.086369
     27 H                     0.078447
     28 H                     0.073989
     29 H                     0.078202
     30 H                     0.073408
     31 H                     0.090454
     32 O                    -0.220428
     33 C                    -0.126955
     34 C                     0.024592
     35 C                    -0.142902
     36 C                    -0.143667
     37 C                     0.026882
     38 O                    -0.186331
     39 H                     0.085117
     40 H                     0.087978
     41 H                     0.092962
     42 H                     0.089547
     43 H                     0.078500
     44 H                     0.073159
     45 H                     0.079420
     46 H                     0.072058
     47 H                     0.084239
     48 H                     0.091960
     49 H                     0.091970
     50 H                     0.082244
     51 H                     0.089026
     52 H                     0.089812
     53 H                     0.108325
     54 H                     0.088116
     55 H                     0.103459
     56 H                     0.081521
  ----------------------------------------
  Sum of atomic charges =    -0.000000

                    Cartesian Multipole Moments
 -----------------------------------------------------------------
    Charge (ESU x 10^10)
                -0.0000
    Dipole Moment (Debye)
         X      -0.3257      Y       0.0890      Z       0.0320
       Tot       0.3392
    Quadrupole Moments (Debye-Ang)
        XX    -169.5344     XY      -1.8435     YY    -145.7599
        XZ      20.8589     YZ      -1.9797     ZZ    -164.3203

 Total job time:  57.02s(wall), 2712.70s(cpu)
        *  Thank you very much for using Q-Chem.  Have a nice day.  *
