 Q-Chem 5.0, Q-Chem, Inc., Pleasanton, CA (2017)
 Q-Chem 5.0.1 for Intel X86 EM64T Linux

User input:
--------------------------------------------------------------
$molecule
0  1
O -6.3138190213 0.0694964374 -0.1985608395
C -5.0808855755 0.1500968995 -0.3868922546
C -4.0550871774 -1.0359251803 -0.3578662596
C -2.5185993288 -0.655538605 -0.3148994086
C -2.2086665985 0.8476428205 0.0227609775
O -1.4830424859 1.3952605761 -1.0910746527
C -0.9188328871 2.7209083697 -0.7459604913
C 0.5916519021 2.713179953 -1.1571510217
O 1.3936758096 2.1967105459 -0.0191098174
C 2.0578097621 0.984456441 -0.378180108
C 2.8947573492 0.4949384185 0.8516258665
C 3.8403036619 -0.7264478713 0.5079813477
C 3.6433455618 -1.3210129745 -0.9353816367
O 4.3740118614 -1.1558101074 -1.9345946473
O -4.4218468008 1.3434370512 -0.8228221982
O 2.5229919886 -2.2194374835 -0.882360529
O 1.9802085704 0.4464889904 -1.5067213758
C 2.2391561556 -2.7437547276 -2.2358927144
C 3.9675919 1.5968964385 1.2546285209
C 4.5978059504 1.2117614805 2.6509617807
C 5.5648584219 0.0404737339 2.2384846849
C 5.2693890476 -0.0621820902 0.6910130337
O 5.0607052909 1.348997024 0.288383013
H 2.205434854 0.2694869289 1.685687102
H 3.6825434285 -1.5449284465 1.2325902686
H 3.5932128274 2.6356522108 1.1709368752
H 5.1513400979 2.0662376407 3.0714508673
H 3.8309263286 0.8960586736 3.3763509156
H 6.6192350993 0.3072920087 2.413421717
H 5.3438624116 -0.900127942 2.7678409304
H 6.0660281505 -0.522974989 0.0755234402
O -2.3768414244 1.4421522642 1.1096817265
C -5.3702714868 2.4786437922 -0.8626803723
C -4.1880215676 -1.9623470146 0.9287026887
C -3.6227944819 -3.386195531 0.5516631598
C -2.0812492777 -3.0800907659 0.4635804495
C -2.0415456838 -1.5620386848 0.9015200968
O -3.1654312853 -1.4315818407 1.8581981741
H -4.2609101436 -1.6343501653 -1.2660961695
H -2.0108006958 -0.9094064962 -1.2612820102
H -5.7755470415 2.7038327641 0.1448033182
H -5.1918848604 -1.9519040603 1.3964417615
H -3.843766099 -4.1088586639 1.3534343067
H -4.0387309009 -3.7688023652 -0.3940681942
H -1.5014100288 -3.7013472674 1.1643233557
H -1.6784148106 -3.224100034 -0.5517141631
H -1.0946063525 -1.232406991 1.3707656728
H -6.2175759449 2.2748099944 -1.5488108339
H -4.7911908859 3.3450764861 -1.2313553054
H 1.4019700664 -3.456870111 -2.1214519536
H 3.1169458575 -3.267309951 -2.6672298221
H 1.9406123374 -1.9277376892 -2.9257403497
H 0.7552810392 2.0606062952 -2.0424235775
H 0.9388619807 3.7454524942 -1.3735650809
H -1.0479256891 2.9042079093 0.3437372593
H -1.4615890678 3.5073158746 -1.3143580404
$end

$rem
JOBTYPE                   OPT
METHOD                    B3LYP
DFT_D                     d3_op
BASIS                     STO-3G
GEOM_OPT_MAX_CYCLES       100
GEOM_OPT_TOL_GRADIENT     300
GEOM_OPT_TOL_DISPLACEMENT 1200
GEOM_OPT_TOL_ENERGY       100
SYMMETRY                  False
THRESH                    12
SCF_CONVERGENCE           8
MAX_SUB_FILE_NUM          128
MEM_STATIC                400
MEM_TOTAL                 4000
$end
--------------------------------------------------------------

   16   -1510.2834298351      6.23E-09 Convergence criterion met
 Total energy in the final basis set = -1510.28342984
   14   -1510.2856845414      1.80E-09 Convergence criterion met
 Total energy in the final basis set = -1510.28568454
   14   -1510.2866442684      5.54E-09 Convergence criterion met
 Total energy in the final basis set = -1510.28664427
   14   -1510.2890235222      6.52E-09 Convergence criterion met
 Total energy in the final basis set = -1510.28902352
   15   -1510.2914412198      3.09E-09 Convergence criterion met
 Total energy in the final basis set = -1510.29144122
   14   -1510.2627544076      6.46E-09 Convergence criterion met
 Total energy in the final basis set = -1510.26275441
   15   -1510.2920782024      2.66E-09 Convergence criterion met
 Total energy in the final basis set = -1510.29207820
   14   -1510.2942922796      3.59E-09 Convergence criterion met
   12   -1510.3055595797      9.08E-09 Convergence criterion met
 Total energy in the final basis set = -1510.30555958
   12   -1510.3055935439      4.43E-09 Convergence criterion met
 Total energy in the final basis set = -1510.30559354
   11   -1510.3056049702      5.24E-09 Convergence criterion met
 Total energy in the final basis set = -1510.30560497
   11   -1510.3056067761      3.01E-09 Convergence criterion met
 Total energy in the final basis set = -1510.30560678
    9   -1510.3056060017      3.54E-09 Convergence criterion met
 Total energy in the final basis set = -1510.30560600
    9   -1510.3056070074      4.46E-09 Convergence criterion met
 Total energy in the final basis set = -1510.30560701

             Standard Nuclear Orientation (Angstroms)
    I     Atom           X                Y                Z
 ----------------------------------------------------------------
    1      O      -1.1107183867     0.7167376353     1.9781024898
    2      C      -2.2582610084     0.5339004061     1.5030323991
    3      C      -2.7209623701    -0.6426392200     0.5637187078
    4      C      -2.2219158734    -0.4568512811    -0.9253588133
    5      C      -1.7669713915     1.0065631706    -1.2317903500
    6      O      -1.3324213475     1.0816601911    -2.5908610822
    7      C      -0.8188029316     2.4392205966    -2.9001641555
    8      C       0.7381810321     2.5006296932    -2.6787391746
    9      O       1.0583675893     2.2430110657    -1.2559984832
   10      C       1.3169561356     0.8472595377    -1.0531097639
   11      C       1.4311434231     0.5488841706     0.4700511238
   12      C       2.1938529575    -0.8038230081     0.7816102846
   13      C       2.7700030093    -1.5187140515    -0.4906232825
   14      O       3.8521825711    -1.2987929870    -1.0754799082
   15      O      -3.3994980896     1.3165990601     1.8545436174
   16      O       1.8657704768    -2.5776017979    -0.8528102565
   17      O       1.3861928665     0.0155845717    -1.9906687179
   18      C       2.3271774587    -3.2228556238    -2.1010463313
   19      C       2.3191572880     1.5944885823     1.2646320106
   20      C       1.9687248432     1.4329766035     2.7958171484
   21      C       2.7121563617     0.0869507860     3.1319904511
   22      C       3.3481995117    -0.2731714877     1.7308368473
   23      O       3.6908254666     1.0481223392     1.1533260253
   24      H       0.3997535641     0.5120430089     0.9001442945
   25      H       1.5076536935    -1.5099567915     1.2813413490
   26      H       2.2723730378     2.6268675269     0.8676762525
   27      H       2.3704984952     2.2755474866     3.3806538545
   28      H       0.8791629113     1.3663401832     2.9497650015
   29      H       3.5013800366     0.2380642749     3.8857042847
   30      H       2.0270675643    -0.6984773823     3.4889892932
   31      H       4.2460667102    -0.9199529865     1.7670884286
   32      O      -1.8083084335     1.9813947846    -0.4450388876
   33      C      -2.9776360289     2.4723356613     2.6798280949
   34      C      -1.9412889542    -1.9639678851     0.9578008692
   35      C      -2.4812081414    -3.1805042282     0.1033616548
   36      C      -1.7552676182    -2.9420064261    -1.2744864278
   37      C      -1.0608213866    -1.5549487719    -1.0047922965
   38      O      -0.6008182446    -1.6955491690     0.3946265987
   39      H      -3.8189807340    -0.7386833285     0.6242822116
   40      H      -3.0226386458    -0.7106396973    -1.6438217236
   41      H      -2.2831716026     3.1284354193     2.1165630241
   42      H      -1.8736052219    -2.1454514024     2.0478373461
   43      H      -2.1823090981    -4.1367787015     0.5604567589
   44      H      -3.5791559291    -3.1611515049     0.0117955218
   45      H      -0.9898581552    -3.7120053069    -1.4615085513
   46      H      -2.4504272124    -2.9125222868    -2.1288074651
   47      H      -0.2018316420    -1.2837821431    -1.6544022271
   48      H      -2.4792634389     2.1455537121     3.6151729689
   49      H      -3.9017297589     3.0278179892     2.9235794928
   50      H       1.6261938868    -4.0556973241    -2.2947020031
   51      H       3.3583958582    -3.6201544939    -2.0051206022
   52      H       2.3022529599    -2.5126783883    -2.9530668695
   53      H       1.2381815767     1.7433345691    -3.3195536060
   54      H       1.1086959275     3.5177348992    -2.9194984687
   55      H      -1.3205511432     3.1871664090    -2.2502715533
   56      H      -1.0556306028     2.6339908134    -3.9660734247
 ----------------------------------------------------------------

    9   -1510.3056072695      9.04E-09 Convergence criterion met
 Total energy in the final basis set = -1510.30560727
 Final energy is   -1510.30560726950
 **  OPTIMIZATION CONVERGED  **

                    Orbital Energies (a.u.)
 --------------------------------------------------------------

 Alpha MOs
 -- Occupied --
-18.948 -18.937 -18.936 -18.909 -18.891 -18.888 -18.874 -18.873
-18.867 -18.847 -10.112 -10.104 -10.097 -10.080 -10.075 -10.075
-10.063 -10.062 -10.054 -10.046 -10.042 -10.040 -10.040 -10.039
-10.021 -10.018 -10.011 -10.009 -10.002  -9.997  -1.029  -1.012
 -1.009  -0.986  -0.972  -0.951  -0.950  -0.937  -0.935  -0.912
 -0.766  -0.744  -0.727  -0.720  -0.704  -0.699  -0.684  -0.663
 -0.645  -0.619  -0.593  -0.570  -0.547  -0.539  -0.528  -0.520
 -0.515  -0.501  -0.486  -0.470  -0.461  -0.457  -0.444  -0.439
 -0.432  -0.426  -0.417  -0.414  -0.411  -0.405  -0.399  -0.395
 -0.392  -0.381  -0.371  -0.366  -0.358  -0.356  -0.349  -0.345
 -0.341  -0.335  -0.331  -0.329  -0.322  -0.317  -0.313  -0.308
 -0.306  -0.304  -0.294  -0.289  -0.286  -0.277  -0.274  -0.266
 -0.260  -0.256  -0.252  -0.245  -0.235  -0.231  -0.214  -0.200
 -0.177  -0.171  -0.165  -0.156  -0.154  -0.150  -0.144  -0.128
 -0.125

          Ground-State Mulliken Net Atomic Charges

     Atom                 Charge (a.u.)
  ----------------------------------------
      1 O                    -0.223236
      2 C                     0.222887
      3 C                    -0.080774
      4 C                    -0.081731
      5 C                     0.210154
      6 O                    -0.168529
      7 C                    -0.052862
      8 C                    -0.053341
      9 O                    -0.169778
     10 C                     0.211489
     11 C                    -0.092100
     12 C                    -0.082767
     13 C                     0.210320
     14 O                    -0.221468
     15 O                    -0.166802
     16 O                    -0.171520
     17 O                    -0.219746
     18 C                    -0.129276
     19 C                     0.023198
     20 C                    -0.147557
     21 C                    -0.143730
     22 C                     0.024198
     23 O                    -0.193005
     24 H                     0.117045
     25 H                     0.096224
     26 H                     0.083783
     27 H                     0.070553
     28 H                     0.086469
     29 H                     0.072577
     30 H                     0.072419
     31 H                     0.080541
     32 O                    -0.208634
     33 C                    -0.127780
     34 C                     0.025342
     35 C                    -0.144852
     36 C                    -0.141491
     37 C                     0.020712
     38 O                    -0.187113
     39 H                     0.086350
     40 H                     0.087354
     41 H                     0.095492
     42 H                     0.082324
     43 H                     0.078661
     44 H                     0.072584
     45 H                     0.080868
     46 H                     0.072602
     47 H                     0.105814
     48 H                     0.088487
     49 H                     0.089754
     50 H                     0.081444
     51 H                     0.085618
     52 H                     0.088421
     53 H                     0.102192
     54 H                     0.091297
     55 H                     0.099522
     56 H                     0.091401
  ----------------------------------------
  Sum of atomic charges =    -0.000000

                    Cartesian Multipole Moments
 -----------------------------------------------------------------
    Charge (ESU x 10^10)
                 0.0000
    Dipole Moment (Debye)
         X      -4.5329      Y       0.0014      Z      -0.6014
       Tot       4.5726
    Quadrupole Moments (Debye-Ang)
        XX    -169.1196     XY      -0.2448     YY    -148.9044
        XZ       1.7634     YZ      -3.3453     ZZ    -149.1425

 Total job time:  167.30s(wall), 7952.70s(cpu)
        *  Thank you very much for using Q-Chem.  Have a nice day.  *
