 Q-Chem 5.0, Q-Chem, Inc., Pleasanton, CA (2017)
 Q-Chem 5.0.1 for Intel X86 EM64T Linux

User input:
--------------------------------------------------------------
$molecule
0  1
O -3.94934 -3.66094 2.70899
C -3.26408 -4.56952 2.26188
C -3.36658 -6.02376 2.66595
C -2.22938 -6.95827 2.22174
C -1.02954 -6.30099 1.5764
O -0.86126 -6.78382 0.30992
C 0.39067 -6.40851 -0.2741
C 1.08303 -7.63236 -0.86482
O 1.89442 -8.26649 0.13639
C 1.53382 -9.53225 0.46344
C 2.43087 -10.14752 1.511
C 2.19174 -11.64197 1.77121
C 1.36901 -12.37098 0.72796
O 1.814 -13.12252 -0.12745
O -2.47826 -4.24038 1.20162
O 0.01911 -12.32042 0.89938
O 0.53985 -10.05751 -0.01387
C -0.89309 -12.98417 0.10538
C 3.92115 -10.165 1.10281
C 4.79011 -10.22339 2.35741
C 4.50931 -11.63529 2.82599
C 3.64981 -12.14154 1.66062
O 4.12814 -11.43555 0.5436
H 2.32369 -9.52427 2.42748
H 1.76519 -11.8723 2.77228
H 4.22464 -9.30152 0.47194
H 5.84924 -10.16533 2.01726
H 4.60601 -9.42806 3.11136
H 5.47527 -12.18472 2.88055
H 3.96627 -11.71702 3.79245
H 3.71073 -13.25077 1.59702
O -0.30775 -5.48054 2.13546
C -2.32774 -2.96914 0.68554
C -3.22722 -6.18055 4.19923
C -3.86693 -7.49378 4.65045
C -2.85707 -8.49347 4.12795
C -1.79179 -7.54326 3.57215
O -1.85909 -6.42308 4.4182
H -4.38174 -6.37197 2.37159
H -2.61893 -7.74595 1.53619
H -1.91309 -2.28946 1.46031
H -3.66756 -5.33366 4.77008
H -3.83428 -7.50956 5.76362
H -4.91371 -7.65293 4.31323
H -2.45219 -9.06873 4.99014
H -3.23664 -9.19118 3.35031
H -0.80518 -8.05474 3.51102
H -3.3055 -2.58178 0.32779
H -1.62326 -3.00672 -0.17056
H -1.91824 -12.76315 0.46686
H -0.7227 -14.08059 0.15991
H -0.80339 -12.64155 -0.94772
H 0.3489 -8.26512 -1.41149
H 1.79916 -7.27351 -1.63503
H 1.10513 -5.82623 0.35037
H 0.12369 -5.75727 -1.13437
$end

$opt
CONSTRAINT
tors           1           2           3           4    -167.203
tors           3           4           5           6    -120.119
tors           4           5           6           7    -168.731
tors           5           6           7           8    +130.734
tors           6           7           8           9     -88.473
tors           7           8           9          10    +117.226
tors           8           9          10          11    +179.513
tors           9          10          11          12    -171.664
tors          11          12          13          14    +103.422
ENDCONSTRAINT
$end

$rem
JOBTYPE                   OPT
METHOD                    B3LYP
DFT_D                     d3_op
BASIS                     STO-3G
GEOM_OPT_MAX_CYCLES       100
GEOM_OPT_TOL_GRADIENT     300
GEOM_OPT_TOL_DISPLACEMENT 1200
GEOM_OPT_TOL_ENERGY       100
SYMMETRY                  False
THRESH                    12
SCF_CONVERGENCE           8
MAX_SUB_FILE_NUM          128
MEM_STATIC                400
MEM_TOTAL                 4000
$end
--------------------------------------------------------------

   15   -1510.1463097872      5.99E-09 Convergence criterion met
 Total energy in the final basis set = -1510.14630979
   14   -1510.2168068115      6.37E-09 Convergence criterion met
 Total energy in the final basis set = -1510.21680681
   14   -1510.2540549524      7.34E-09 Convergence criterion met
 Total energy in the final basis set = -1510.25405495
   14   -1510.2703981771      6.62E-09 Convergence criterion met
 Total energy in the final basis set = -1510.27039818
   14   -1510.2766786262      4.71E-09 Convergence criterion met
 Total energy in the final basis set = -1510.27667863
   13   -1510.2796409289      4.00E-09 Convergence criterion met
 Total energy in the final basis set = -1510.27964093
   13   -1510.2813006543      2.51E-09 Convergence criterion met
 Total energy in the final basis set = -1510.28130065
   12   -1510.2819982863      9.55E-09 Convergence criterion met
   11   -1510.2833378117      6.19E-09 Convergence criterion met
 Total energy in the final basis set = -1510.28333781
   11   -1510.2833651029      5.27E-09 Convergence criterion met
 Total energy in the final basis set = -1510.28336510
   11   -1510.2833813378      4.40E-09 Convergence criterion met
 Total energy in the final basis set = -1510.28338134
   11   -1510.2833987014      1.91E-09 Convergence criterion met
 Total energy in the final basis set = -1510.28339870
   10   -1510.2834042003      7.78E-09 Convergence criterion met
 Total energy in the final basis set = -1510.28340420
    9   -1510.2834082831      6.82E-09 Convergence criterion met
 Total energy in the final basis set = -1510.28340828

             Standard Nuclear Orientation (Angstroms)
    I     Atom           X                Y                Z
 ----------------------------------------------------------------
    1      O      -6.3138190213     0.0694964374    -0.1985608395
    2      C      -5.0808855755     0.1500968995    -0.3868922546
    3      C      -4.0550871774    -1.0359251803    -0.3578662596
    4      C      -2.5185993288    -0.6555386050    -0.3148994086
    5      C      -2.2086665985     0.8476428205     0.0227609775
    6      O      -1.4830424859     1.3952605761    -1.0910746527
    7      C      -0.9188328871     2.7209083697    -0.7459604913
    8      C       0.5916519021     2.7131799530    -1.1571510217
    9      O       1.3936758096     2.1967105459    -0.0191098174
   10      C       2.0578097621     0.9844564410    -0.3781801080
   11      C       2.8947573492     0.4949384185     0.8516258665
   12      C       3.8403036619    -0.7264478713     0.5079813477
   13      C       3.6433455618    -1.3210129745    -0.9353816367
   14      O       4.3740118614    -1.1558101074    -1.9345946473
   15      O      -4.4218468008     1.3434370512    -0.8228221982
   16      O       2.5229919886    -2.2194374835    -0.8823605290
   17      O       1.9802085704     0.4464889904    -1.5067213758
   18      C       2.2391561556    -2.7437547276    -2.2358927144
   19      C       3.9675919000     1.5968964385     1.2546285209
   20      C       4.5978059504     1.2117614805     2.6509617807
   21      C       5.5648584219     0.0404737339     2.2384846849
   22      C       5.2693890476    -0.0621820902     0.6910130337
   23      O       5.0607052909     1.3489970240     0.2883830130
   24      H       2.2054348540     0.2694869289     1.6856871020
   25      H       3.6825434285    -1.5449284465     1.2325902686
   26      H       3.5932128274     2.6356522108     1.1709368752
   27      H       5.1513400979     2.0662376407     3.0714508673
   28      H       3.8309263286     0.8960586736     3.3763509156
   29      H       6.6192350993     0.3072920087     2.4134217170
   30      H       5.3438624116    -0.9001279420     2.7678409304
   31      H       6.0660281505    -0.5229749890     0.0755234402
   32      O      -2.3768414244     1.4421522642     1.1096817265
   33      C      -5.3702714868     2.4786437922    -0.8626803723
   34      C      -4.1880215676    -1.9623470146     0.9287026887
   35      C      -3.6227944819    -3.3861955310     0.5516631598
   36      C      -2.0812492777    -3.0800907659     0.4635804495
   37      C      -2.0415456838    -1.5620386848     0.9015200968
   38      O      -3.1654312853    -1.4315818407     1.8581981741
   39      H      -4.2609101436    -1.6343501653    -1.2660961695
   40      H      -2.0108006958    -0.9094064962    -1.2612820102
   41      H      -5.7755470415     2.7038327641     0.1448033182
   42      H      -5.1918848604    -1.9519040603     1.3964417615
   43      H      -3.8437660990    -4.1088586639     1.3534343067
   44      H      -4.0387309009    -3.7688023652    -0.3940681942
   45      H      -1.5014100288    -3.7013472674     1.1643233557
   46      H      -1.6784148106    -3.2241000340    -0.5517141631
   47      H      -1.0946063525    -1.2324069910     1.3707656728
   48      H      -6.2175759449     2.2748099944    -1.5488108339
   49      H      -4.7911908859     3.3450764861    -1.2313553054
   50      H       1.4019700664    -3.4568701110    -2.1214519536
   51      H       3.1169458575    -3.2673099510    -2.6672298221
   52      H       1.9406123374    -1.9277376892    -2.9257403497
   53      H       0.7552810392     2.0606062952    -2.0424235775
   54      H       0.9388619807     3.7454524942    -1.3735650809
   55      H      -1.0479256891     2.9042079093     0.3437372593
   56      H      -1.4615890678     3.5073158746    -1.3143580404
 ----------------------------------------------------------------

    9   -1510.2834090179      5.17E-09 Convergence criterion met
 Total energy in the final basis set = -1510.28340902
 Final energy is   -1510.28340901785
 **  OPTIMIZATION CONVERGED  **

                    Orbital Energies (a.u.)
 --------------------------------------------------------------

 Alpha MOs
 -- Occupied --
-18.944 -18.940 -18.924 -18.919 -18.889 -18.888 -18.886 -18.879
-18.865 -18.860 -10.108 -10.105 -10.096 -10.090 -10.073 -10.070
-10.068 -10.061 -10.060 -10.060 -10.056 -10.054 -10.041 -10.040
-10.036 -10.032 -10.021 -10.020 -10.020 -10.019  -1.021  -1.018
 -1.004  -0.997  -0.971  -0.969  -0.945  -0.941  -0.929  -0.924
 -0.764  -0.763  -0.728  -0.723  -0.714  -0.705  -0.696  -0.666
 -0.654  -0.619  -0.598  -0.577  -0.546  -0.544  -0.538  -0.536
 -0.513  -0.512  -0.489  -0.476  -0.462  -0.454  -0.453  -0.448
 -0.433  -0.431  -0.428  -0.416  -0.414  -0.412  -0.404  -0.403
 -0.400  -0.384  -0.371  -0.366  -0.362  -0.355  -0.352  -0.349
 -0.344  -0.338  -0.333  -0.332  -0.331  -0.325  -0.324  -0.314
 -0.314  -0.307  -0.306  -0.301  -0.297  -0.292  -0.275  -0.273
 -0.272  -0.255  -0.250  -0.244  -0.244  -0.235  -0.234  -0.189
 -0.182  -0.165  -0.164  -0.163  -0.159  -0.149  -0.144  -0.143
 -0.141

          Ground-State Mulliken Net Atomic Charges

     Atom                 Charge (a.u.)
  ----------------------------------------
      1 O                    -0.212081
      2 C                     0.212637
      3 C                    -0.079227
      4 C                    -0.078878
      5 C                     0.218271
      6 O                    -0.176771
      7 C                    -0.055424
      8 C                    -0.055151
      9 O                    -0.173277
     10 C                     0.216321
     11 C                    -0.077237
     12 C                    -0.082036
     13 C                     0.215626
     14 O                    -0.216561
     15 O                    -0.166560
     16 O                    -0.176862
     17 O                    -0.207373
     18 C                    -0.128452
     19 C                     0.024681
     20 C                    -0.144222
     21 C                    -0.143686
     22 C                     0.024644
     23 O                    -0.190106
     24 H                     0.087411
     25 H                     0.083446
     26 H                     0.087442
     27 H                     0.078343
     28 H                     0.073930
     29 H                     0.077971
     30 H                     0.073221
     31 H                     0.088633
     32 O                    -0.220363
     33 C                    -0.125989
     34 C                     0.025096
     35 C                    -0.142814
     36 C                    -0.144556
     37 C                     0.026495
     38 O                    -0.186350
     39 H                     0.085471
     40 H                     0.087490
     41 H                     0.093214
     42 H                     0.088726
     43 H                     0.078477
     44 H                     0.073545
     45 H                     0.078600
     46 H                     0.074054
     47 H                     0.083007
     48 H                     0.091677
     49 H                     0.091868
     50 H                     0.083635
     51 H                     0.086666
     52 H                     0.091951
     53 H                     0.108126
     54 H                     0.087041
     55 H                     0.104431
     56 H                     0.081822
  ----------------------------------------
  Sum of atomic charges =    -0.000000

                    Cartesian Multipole Moments
 -----------------------------------------------------------------
    Charge (ESU x 10^10)
                -0.0000
    Dipole Moment (Debye)
         X      -0.6642      Y      -0.2752      Z      -0.0634
       Tot       0.7218
    Quadrupole Moments (Debye-Ang)
        XX    -173.4472     XY      -4.0716     YY    -145.5938
        XZ      19.4252     YZ      -1.5801     ZZ    -162.4441

 Total job time:  53.03s(wall), 2525.62s(cpu)
        *  Thank you very much for using Q-Chem.  Have a nice day.  *
