 Q-Chem 5.0, Q-Chem, Inc., Pleasanton, CA (2017)
 Q-Chem 5.0.1 for Intel X86 EM64T Linux

User input:
--------------------------------------------------------------
$molecule
0  1
O -3.94934 -3.66094 2.70899
C -3.26408 -4.56952 2.26188
C -3.36658 -6.02376 2.66595
C -2.08915 -6.87319 2.56349
C -0.811 -6.1325 2.23825
O -0.17345 -6.74276 1.19588
C 1.18982 -6.33088 1.05071
C 2.092 -7.54915 0.88326
O 2.59439 -7.96566 2.16272
C 2.11341 -9.14781 2.62132
C 2.68737 -9.53572 3.96324
C 2.24624 -10.91193 4.48259
C 1.60731 -11.83026 3.46027
O 2.15337 -12.78425 2.92522
O -2.55432 -4.31868 1.12875
O 0.26645 -11.67177 3.28283
O 1.25181 -9.76066 2.00976
C -0.51063 -12.46054 2.46028
C 4.22027 -9.70639 3.94533
C 4.7698 -9.50544 5.35591
C 4.25812 -10.75771 6.03635
C 3.63773 -11.48518 4.83664
O 4.42337 -11.08059 3.743
H 2.42266 -8.71553 4.6685
H 1.58863 -10.87886 5.37909
H 4.73737 -9.02715 3.23312
H 5.87937 -9.56871 5.28142
H 4.49149 -8.54985 5.85018
H 5.1309 -11.31998 6.43646
H 3.50864 -10.59063 6.84006
H 3.60432 -12.58 5.03246
O -0.38118 -5.18394 2.88632
C -2.41371 -3.07382 0.55163
C -3.6646 -6.17659 4.17393
C -4.27941 -7.54914 4.45206
C -3.06676 -8.43998 4.28797
C -1.9882 -7.39008 4.00919
O -2.39579 -6.28015 4.77039
H -4.21142 -6.45033 2.08066
H -2.21397 -7.71941 1.84881
H -1.92259 -2.37697 1.26411
H -4.32906 -5.38106 4.5761
H -4.58952 -7.57077 5.52139
H -5.14989 -7.80558 3.81067
H -2.86197 -8.93897 5.2615
H -3.13908 -9.20145 3.48145
H -0.98037 -7.80128 4.24275
H -3.4066 -2.67265 0.25618
H -1.78 -3.16314 -0.35441
H -1.56093 -12.10608 2.50377
H -0.47505 -13.51823 2.79817
H -0.15171 -12.38845 1.41132
H 1.61002 -8.32374 0.2453
H 2.99235 -7.22706 0.31707
H 1.61182 -5.62833 1.80443
H 1.21789 -5.79539 0.07701
$end

$opt
CONSTRAINT
tors           1           2           3           4    -151.270
tors           3           4           5           6    -129.376
tors           4           5           6           7    -164.626
tors           5           6           7           8    +132.336
tors           6           7           8           9     -92.721
tors           7           8           9          10    +110.904
tors           8           9          10          11    +179.513
tors           9          10          11          12    -176.073
tors          11          12          13          14    +103.422
ENDCONSTRAINT
$end

$rem
JOBTYPE                   OPT
METHOD                    B3LYP
DFT_D                     d3_op
BASIS                     STO-3G
GEOM_OPT_MAX_CYCLES       100
GEOM_OPT_TOL_GRADIENT     300
GEOM_OPT_TOL_DISPLACEMENT 1200
GEOM_OPT_TOL_ENERGY       100
SYMMETRY                  False
THRESH                    12
SCF_CONVERGENCE           8
MAX_SUB_FILE_NUM          128
MEM_STATIC                400
MEM_TOTAL                 4000
$end
--------------------------------------------------------------

   15   -1510.1510867903      5.82E-09 Convergence criterion met
 Total energy in the final basis set = -1510.15108679
   14   -1510.2206608481      6.53E-09 Convergence criterion met
 Total energy in the final basis set = -1510.22066085
   14   -1510.2573195670      5.90E-09 Convergence criterion met
 Total energy in the final basis set = -1510.25731957
   14   -1510.2730811868      6.48E-09 Convergence criterion met
 Total energy in the final basis set = -1510.27308119
   14   -1510.2791849210      4.41E-09 Convergence criterion met
 Total energy in the final basis set = -1510.27918492
   13   -1510.2821262535      5.82E-09 Convergence criterion met
 Total energy in the final basis set = -1510.28212625
   13   -1510.2836141798      2.98E-09 Convergence criterion met
 Total energy in the final basis set = -1510.28361418
   12   -1510.2843472368      8.50E-09 Convergence criterion met
   12   -1510.2853623328      2.77E-09 Convergence criterion met
 Total energy in the final basis set = -1510.28536233
   11   -1510.2854050204      6.67E-09 Convergence criterion met
 Total energy in the final basis set = -1510.28540502
   10   -1510.2854222447      7.81E-09 Convergence criterion met
 Total energy in the final basis set = -1510.28542224
    9   -1510.2854387697      9.35E-09 Convergence criterion met
 Total energy in the final basis set = -1510.28543877
    9   -1510.2854443854      9.09E-09 Convergence criterion met
 Total energy in the final basis set = -1510.28544439
    9   -1510.2854465261      9.45E-09 Convergence criterion met
 Total energy in the final basis set = -1510.28544653

             Standard Nuclear Orientation (Angstroms)
    I     Atom           X                Y                Z
 ----------------------------------------------------------------
    1      O      -6.0704277155    -0.0277311679     0.5045748875
    2      C      -4.9811429492     0.0431169520    -0.1023960406
    3      C      -3.9177643897    -1.0957281728    -0.2743737970
    4      C      -2.4217901146    -0.6047655076    -0.4292152652
    5      C      -2.2092164971     0.9164017072    -0.1052807889
    6      O      -1.4872153715     1.4938736806    -1.2049445756
    7      C      -0.9272706501     2.8137861688    -0.8290515762
    8      C       0.5728219420     2.8288328505    -1.2829402038
    9      O       1.4178347611     2.3772790116    -0.1480205220
   10      C       1.9872231696     1.0968782537    -0.4245752312
   11      C       2.8743998571     0.6756702148     0.7930145975
   12      C       3.6385154276    -0.6892077229     0.5560772165
   13      C       3.2715135022    -1.4237253264    -0.7864004217
   14      O       3.9471813514    -1.4738310463    -1.8353879818
   15      O      -4.5641560189     1.1758319247    -0.8762710996
   16      O       2.0581639800    -2.1613224546    -0.5618737296
   17      O       1.8019756270     0.4569299277    -1.4854737384
   18      C       1.6363134748    -2.8163630947    -1.8191560463
   19      C       4.0987945450     1.6753531449     0.9702279376
   20      C       4.7834188403     1.3930852627     2.3664056795
   21      C       5.5711876654     0.0652790378     2.0579279954
   22      C       5.1460251642    -0.1960086627     0.5612596981
   23      O       5.0766743400     1.1671444902    -0.0170325821
   24      H       2.2412327521     0.6454995690     1.6982789668
   25      H       3.4380361764    -1.3869753805     1.3884516303
   26      H       3.8469112037     2.7347392172     0.7685027714
   27      H       5.4633158909     2.2168845513     2.6354827689
   28      H       4.0415595690     1.2695237954     3.1715101510
   29      H       6.6600277482     0.2174986691     2.1284574954
   30      H       5.2853078153    -0.7648241421     2.7234922936
   31      H       5.8314553451    -0.8300565182    -0.0337296666
   32      O      -2.4474106807     1.5147029806     0.9666396694
   33      C      -5.5240017397     2.2908819688    -0.7143281149
   34      C      -3.8128254546    -2.0432289295     0.9948019584
   35      C      -3.2050150104    -3.4193448367     0.5192104815
   36      C      -1.7171983817    -2.9970643660     0.2262796932
   37      C      -1.7217788427    -1.4869774491     0.6936224393
   38      O      -2.7131270809    -1.4523091216     1.7935758367
   39      H      -4.2170473142    -1.6806015878    -1.1646599157
   40      H      -2.0207823935    -0.8076081431    -1.4371345354
   41      H      -5.5270157863     2.6700590481     0.3281360733
   42      H      -4.7442361848    -2.1036869162     1.5910829029
   43      H      -3.2605527954    -4.1633822170     1.3300289180
   44      H      -3.7184499555    -3.8228856836    -0.3682149609
   45      H      -0.9990470242    -3.5839326701     0.8203305145
   46      H      -1.4545992497    -3.0924196069    -0.8392460006
   47      H      -0.7416434328    -1.1015784389     1.0359973021
   48      H      -6.5547146526     1.9821877515    -0.9831351228
   49      H      -5.1825109311     3.0898592379    -1.3977075803
   50      H       0.7557700377    -3.4341005712    -1.5648599720
   51      H       2.4361400951    -3.4622221056    -2.2354894829
   52      H       1.3545281459    -2.0652097482    -2.5856029902
   53      H       0.7198156378     2.1442104859    -2.1462301566
   54      H       0.8919077241     3.8590162234    -1.5444584260
   55      H      -1.0273312118     2.9651103697     0.2681530204
   56      H      -1.4920680625     3.6143965479    -1.3547778390
 ----------------------------------------------------------------

    9   -1510.2854466565      5.39E-09 Convergence criterion met
 Total energy in the final basis set = -1510.28544666
 Final energy is   -1510.28544665651
 **  OPTIMIZATION CONVERGED  **

                    Orbital Energies (a.u.)
 --------------------------------------------------------------

 Alpha MOs
 -- Occupied --
-18.941 -18.940 -18.926 -18.919 -18.889 -18.887 -18.887 -18.880
-18.867 -18.861 -10.108 -10.103 -10.096 -10.090 -10.074 -10.069
-10.067 -10.061 -10.060 -10.058 -10.057 -10.055 -10.042 -10.039
-10.036 -10.033 -10.021 -10.021 -10.020 -10.019  -1.022  -1.016
 -1.005  -0.997  -0.970  -0.970  -0.946  -0.940  -0.930  -0.924
 -0.764  -0.763  -0.729  -0.723  -0.714  -0.705  -0.696  -0.664
 -0.655  -0.619  -0.598  -0.577  -0.546  -0.544  -0.538  -0.537
 -0.514  -0.511  -0.488  -0.474  -0.461  -0.455  -0.453  -0.449
 -0.435  -0.431  -0.431  -0.415  -0.413  -0.412  -0.404  -0.403
 -0.400  -0.381  -0.371  -0.367  -0.362  -0.354  -0.353  -0.350
 -0.344  -0.340  -0.334  -0.333  -0.331  -0.325  -0.324  -0.314
 -0.311  -0.306  -0.305  -0.301  -0.295  -0.287  -0.276  -0.274
 -0.272  -0.256  -0.253  -0.246  -0.245  -0.234  -0.234  -0.190
 -0.180  -0.166  -0.164  -0.164  -0.159  -0.149  -0.145  -0.143
 -0.141

          Ground-State Mulliken Net Atomic Charges

     Atom                 Charge (a.u.)
  ----------------------------------------
      1 O                    -0.209978
      2 C                     0.214252
      3 C                    -0.079544
      4 C                    -0.077898
      5 C                     0.215681
      6 O                    -0.175613
      7 C                    -0.055121
      8 C                    -0.055079
      9 O                    -0.172970
     10 C                     0.215377
     11 C                    -0.077744
     12 C                    -0.082153
     13 C                     0.215707
     14 O                    -0.216388
     15 O                    -0.168783
     16 O                    -0.177516
     17 O                    -0.206646
     18 C                    -0.129116
     19 C                     0.024995
     20 C                    -0.144043
     21 C                    -0.143738
     22 C                     0.024830
     23 O                    -0.189575
     24 H                     0.087721
     25 H                     0.083611
     26 H                     0.086543
     27 H                     0.078411
     28 H                     0.074099
     29 H                     0.078095
     30 H                     0.073469
     31 H                     0.088881
     32 O                    -0.220223
     33 C                    -0.127565
     34 C                     0.024418
     35 C                    -0.143039
     36 C                    -0.143766
     37 C                     0.026384
     38 O                    -0.186959
     39 H                     0.085007
     40 H                     0.087916
     41 H                     0.092901
     42 H                     0.090144
     43 H                     0.078425
     44 H                     0.073033
     45 H                     0.079299
     46 H                     0.072337
     47 H                     0.084302
     48 H                     0.091508
     49 H                     0.090878
     50 H                     0.083306
     51 H                     0.087565
     52 H                     0.091036
     53 H                     0.108894
     54 H                     0.088066
     55 H                     0.103656
     56 H                     0.082711
  ----------------------------------------
  Sum of atomic charges =    -0.000000

                    Cartesian Multipole Moments
 -----------------------------------------------------------------
    Charge (ESU x 10^10)
                -0.0000
    Dipole Moment (Debye)
         X      -0.5360      Y       0.1101      Z      -0.1903
       Tot       0.5794
    Quadrupole Moments (Debye-Ang)
        XX    -169.5455     XY      -1.4935     YY    -145.4000
        XZ      21.4341     YZ      -1.7052     ZZ    -164.0108

 Total job time:  53.34s(wall), 2537.06s(cpu)
        *  Thank you very much for using Q-Chem.  Have a nice day.  *
