 Q-Chem 5.0, Q-Chem, Inc., Pleasanton, CA (2017)
 Q-Chem 5.0.1 for Intel X86 EM64T Linux

User input:
--------------------------------------------------------------
$molecule
0  1
O -6.0704277155 -0.0277311679 0.5045748875
C -4.9811429492 0.043116952 -0.1023960406
C -3.9177643897 -1.0957281728 -0.274373797
C -2.4217901146 -0.6047655076 -0.4292152652
C -2.2092164971 0.9164017072 -0.1052807889
O -1.4872153715 1.4938736806 -1.2049445756
C -0.9272706501 2.8137861688 -0.8290515762
C 0.572821942 2.8288328505 -1.2829402038
O 1.4178347611 2.3772790116 -0.148020522
C 1.9872231696 1.0968782537 -0.4245752312
C 2.8743998571 0.6756702148 0.7930145975
C 3.6385154276 -0.6892077229 0.5560772165
C 3.2715135022 -1.4237253264 -0.7864004217
O 3.9471813514 -1.4738310463 -1.8353879818
O -4.5641560189 1.1758319247 -0.8762710996
O 2.05816398 -2.1613224546 -0.5618737296
O 1.801975627 0.4569299277 -1.4854737384
C 1.6363134748 -2.8163630947 -1.8191560463
C 4.098794545 1.6753531449 0.9702279376
C 4.7834188403 1.3930852627 2.3664056795
C 5.5711876654 0.0652790378 2.0579279954
C 5.1460251642 -0.1960086627 0.5612596981
O 5.07667434 1.1671444902 -0.0170325821
H 2.2412327521 0.645499569 1.6982789668
H 3.4380361764 -1.3869753805 1.3884516303
H 3.8469112037 2.7347392172 0.7685027714
H 5.4633158909 2.2168845513 2.6354827689
H 4.041559569 1.2695237954 3.171510151
H 6.6600277482 0.2174986691 2.1284574954
H 5.2853078153 -0.7648241421 2.7234922936
H 5.8314553451 -0.8300565182 -0.0337296666
O -2.4474106807 1.5147029806 0.9666396694
C -5.5240017397 2.2908819688 -0.7143281149
C -3.8128254546 -2.0432289295 0.9948019584
C -3.2050150104 -3.4193448367 0.5192104815
C -1.7171983817 -2.997064366 0.2262796932
C -1.7217788427 -1.4869774491 0.6936224393
O -2.7131270809 -1.4523091216 1.7935758367
H -4.2170473142 -1.6806015878 -1.1646599157
H -2.0207823935 -0.8076081431 -1.4371345354
H -5.5270157863 2.6700590481 0.3281360733
H -4.7442361848 -2.1036869162 1.5910829029
H -3.2605527954 -4.163382217 1.330028918
H -3.7184499555 -3.8228856836 -0.3682149609
H -0.9990470242 -3.5839326701 0.8203305145
H -1.4545992497 -3.0924196069 -0.8392460006
H -0.7416434328 -1.1015784389 1.0359973021
H -6.5547146526 1.9821877515 -0.9831351228
H -5.1825109311 3.0898592379 -1.3977075803
H 0.7557700377 -3.4341005712 -1.564859972
H 2.4361400951 -3.4622221056 -2.2354894829
H 1.3545281459 -2.0652097482 -2.5856029902
H 0.7198156378 2.1442104859 -2.1462301566
H 0.8919077241 3.8590162234 -1.544458426
H -1.0273312118 2.9651103697 0.2681530204
H -1.4920680625 3.6143965479 -1.354777839
$end

$rem
JOBTYPE                   OPT
METHOD                    B3LYP
DFT_D                     d3_op
BASIS                     STO-3G
GEOM_OPT_MAX_CYCLES       100
GEOM_OPT_TOL_GRADIENT     300
GEOM_OPT_TOL_DISPLACEMENT 1200
GEOM_OPT_TOL_ENERGY       100
SYMMETRY                  False
THRESH                    12
SCF_CONVERGENCE           8
MAX_SUB_FILE_NUM          128
MEM_STATIC                400
MEM_TOTAL                 4000
$end
--------------------------------------------------------------

   15   -1510.2855195175      9.86E-09 Convergence criterion met
 Total energy in the final basis set = -1510.28551952
   14   -1510.2869420018      4.01E-09 Convergence criterion met
 Total energy in the final basis set = -1510.28694200
   14   -1510.2894937083      7.52E-09 Convergence criterion met
 Total energy in the final basis set = -1510.28949371
   15   -1510.2915065845      2.77E-09 Convergence criterion met
 Total energy in the final basis set = -1510.29150658
   15   -1510.2939236424      3.66E-09 Convergence criterion met
 Total energy in the final basis set = -1510.29392364
   14   -1510.2947274049      8.31E-09 Convergence criterion met
 Total energy in the final basis set = -1510.29472740
   14   -1510.2962416670      3.72E-09 Convergence criterion met
 Total energy in the final basis set = -1510.29624167
   14   -1510.2961026531      5.04E-09 Convergence criterion met
   12   -1510.3060032743      5.40E-09 Convergence criterion met
 Total energy in the final basis set = -1510.30600327
   12   -1510.3059975489      4.45E-09 Convergence criterion met
 Total energy in the final basis set = -1510.30599755
   12   -1510.3060219137      2.61E-09 Convergence criterion met
 Total energy in the final basis set = -1510.30602191
   10   -1510.3060210155      9.42E-09 Convergence criterion met
 Total energy in the final basis set = -1510.30602102
    9   -1510.3060239483      7.69E-09 Convergence criterion met
 Total energy in the final basis set = -1510.30602395
    9   -1510.3060227829      1.90E-09 Convergence criterion met
 Total energy in the final basis set = -1510.30602278

             Standard Nuclear Orientation (Angstroms)
    I     Atom           X                Y                Z
 ----------------------------------------------------------------
    1      O      -1.0415360379     0.9680605043     1.8839017533
    2      C      -2.2069094224     0.6853150945     1.5147094894
    3      C      -2.6665669623    -0.6029227061     0.7352941844
    4      C      -2.1228675270    -0.6285104295    -0.7516584398
    5      C      -1.7199778801     0.8038591625    -1.2380731587
    6      O      -1.1624282671     0.7440081159    -2.5528323807
    7      C      -0.9072385656     2.1190516259    -3.0580023322
    8      C       0.5403724300     2.6052541684    -2.6664272461
    9      O       0.7741566413     2.3077594762    -1.2352012543
   10      C       1.5380306949     1.0973707228    -1.1190294103
   11      C       1.5232361960     0.6164727774     0.3576364061
   12      C       2.1697245201    -0.8156755954     0.5386107707
   13      C       2.7946119149    -1.4134951642    -0.7721382775
   14      O       3.9993138136    -1.4651222542    -1.0936578262
   15      O      -3.3639434022     1.4432344004     1.8712927613
   16      O       1.7455482169    -2.0648826706    -1.5276242991
   17      O       2.1080295012     0.5490919041    -2.0918973856
   18      C       2.2761615870    -2.5529263091    -2.8167428538
   19      C       2.4517795707     1.4926689666     1.3083897229
   20      C       1.9966907558     1.1990608680     2.7907207705
   21      C       2.5887285653    -0.2436660782     3.0025551874
   22      C       3.2907410834    -0.4990992854     1.6093903710
   23      O       3.7765416679     0.8432395056     1.2078180248
   24      H       0.4771930810     0.6317698327     0.7439067140
   25      H       1.3855093256    -1.5061579362     0.9072687970
   26      H       2.5145926963     2.5632555749     1.0325330363
   27      H       2.4431539152     1.9272659590     3.4862797009
   28      H       0.8981833262     1.2277402486     2.8819209060
   29      H       3.3277798988    -0.2650874555     3.8194153955
   30      H       1.8084593310    -0.9934557150     3.2093129881
   31      H       4.1300363421    -1.2212042976     1.6198716644
   32      O      -1.9503272975     1.8690125891    -0.6179712057
   33      C      -2.9533646229     2.6845995138     2.5671816628
   34      C      -1.9252468018    -1.8666727271     1.3364167256
   35      C      -2.4719389620    -3.1803207095     0.6480571063
   36      C      -1.7218421239    -3.1390101236    -0.7366928399
   37      C      -0.9874445100    -1.7458711609    -0.6459707159
   38      O      -0.5677461989    -1.7084061733     0.7738214979
   39      H      -3.7669448661    -0.6764471244     0.7790197539
   40      H      -2.9119122316    -0.9799318651    -1.4423836441
   41      H      -2.3382358029     3.3269504039     1.9043783595
   42      H      -1.8872357897    -1.8918122690     2.4427222931
   43      H      -2.1956714554    -4.0695931752     1.2362711163
   44      H      -3.5680375644    -3.1582478879     0.5373033128
   45      H      -0.9792716961    -3.9495095083    -0.8135265411
   46      H      -2.4069236331    -3.2038782509    -1.5968827873
   47      H      -0.0786930314    -1.6425386770    -1.2852223581
   48      H      -2.3735365474     2.4647851187     3.4868284109
   49      H      -3.8887984809     3.2102705374     2.8328584654
   50      H       1.4496415590    -3.1026881090    -3.3039160631
   51      H       3.1419365409    -3.2306356158    -2.6722702983
   52      H       2.5916601061    -1.7076860377    -3.4624959801
   53      H       1.3046533248     2.0723049303    -3.2717627038
   54      H       0.6227285998     3.7014549428    -2.8106450138
   55      H      -1.6623516843     2.8154484058    -2.6372988142
   56      H      -1.0064787835     2.0682496223    -4.1612351847
 ----------------------------------------------------------------

    9   -1510.3060233060      4.64E-09 Convergence criterion met
 Total energy in the final basis set = -1510.30602331
 Final energy is   -1510.30602330604
 **  OPTIMIZATION CONVERGED  **

                    Orbital Energies (a.u.)
 --------------------------------------------------------------

 Alpha MOs
 -- Occupied --
-18.948 -18.935 -18.932 -18.915 -18.892 -18.889 -18.877 -18.870
-18.868 -18.854 -10.111 -10.103 -10.095 -10.081 -10.078 -10.071
-10.065 -10.062 -10.051 -10.050 -10.043 -10.041 -10.040 -10.039
-10.022 -10.019 -10.011 -10.008 -10.001  -9.996  -1.027  -1.011
 -1.008  -0.990  -0.975  -0.952  -0.949  -0.935  -0.933  -0.917
 -0.767  -0.745  -0.726  -0.719  -0.703  -0.700  -0.684  -0.662
 -0.648  -0.618  -0.593  -0.570  -0.548  -0.540  -0.529  -0.520
 -0.513  -0.499  -0.487  -0.474  -0.460  -0.457  -0.447  -0.438
 -0.431  -0.424  -0.418  -0.414  -0.410  -0.407  -0.400  -0.398
 -0.393  -0.382  -0.370  -0.366  -0.358  -0.355  -0.353  -0.344
 -0.341  -0.337  -0.330  -0.326  -0.321  -0.318  -0.316  -0.309
 -0.306  -0.304  -0.297  -0.288  -0.285  -0.281  -0.277  -0.263
 -0.263  -0.255  -0.251  -0.242  -0.235  -0.233  -0.213  -0.198
 -0.176  -0.170  -0.164  -0.159  -0.156  -0.151  -0.147  -0.133
 -0.126

          Ground-State Mulliken Net Atomic Charges

     Atom                 Charge (a.u.)
  ----------------------------------------
      1 O                    -0.224359
      2 C                     0.222470
      3 C                    -0.080012
      4 C                    -0.081559
      5 C                     0.212524
      6 O                    -0.168163
      7 C                    -0.052017
      8 C                    -0.055995
      9 O                    -0.171531
     10 C                     0.210064
     11 C                    -0.092060
     12 C                    -0.092042
     13 C                     0.216836
     14 O                    -0.215945
     15 O                    -0.167138
     16 O                    -0.180577
     17 O                    -0.212679
     18 C                    -0.127859
     19 C                     0.025580
     20 C                    -0.148350
     21 C                    -0.143932
     22 C                     0.024328
     23 O                    -0.192948
     24 H                     0.112121
     25 H                     0.105013
     26 H                     0.079609
     27 H                     0.070292
     28 H                     0.089854
     29 H                     0.072241
     30 H                     0.073196
     31 H                     0.082623
     32 O                    -0.206195
     33 C                    -0.127705
     34 C                     0.026498
     35 C                    -0.145321
     36 C                    -0.142775
     37 C                     0.012432
     38 O                    -0.193115
     39 H                     0.086419
     40 H                     0.086432
     41 H                     0.095007
     42 H                     0.082764
     43 H                     0.078049
     44 H                     0.073261
     45 H                     0.079106
     46 H                     0.071993
     47 H                     0.114385
     48 H                     0.088149
     49 H                     0.089359
     50 H                     0.083027
     51 H                     0.087898
     52 H                     0.091907
     53 H                     0.102211
     54 H                     0.089296
     55 H                     0.096372
     56 H                     0.090957
  ----------------------------------------
  Sum of atomic charges =    -0.000000

                    Cartesian Multipole Moments
 -----------------------------------------------------------------
    Charge (ESU x 10^10)
                -0.0000
    Dipole Moment (Debye)
         X      -4.8535      Y      -0.2803      Z      -0.8026
       Tot       4.9274
    Quadrupole Moments (Debye-Ang)
        XX    -172.5894     XY       1.1503     YY    -149.3372
        XZ       1.6266     YZ      -2.8679     ZZ    -147.9999

 Total job time:  158.93s(wall), 7575.10s(cpu)
        *  Thank you very much for using Q-Chem.  Have a nice day.  *
