 Q-Chem 5.0, Q-Chem, Inc., Pleasanton, CA (2017)
 Q-Chem 5.0.1 for Intel X86 EM64T Linux

User input:
--------------------------------------------------------------
$molecule
0  1
O -3.94934 -3.66094 2.70899
C -3.26408 -4.56952 2.26188
C -3.36658 -6.02376 2.66595
C -2.09548 -6.87943 2.53944
C -0.8197 -6.1447 2.19214
O -0.33652 -6.59374 0.99618
C 0.9271 -6.0184 0.64758
C 1.96492 -7.11637 0.43892
O 2.39619 -7.62991 1.70902
C 2.1521 -8.94734 1.91862
C 2.63851 -9.42895 3.26477
C 2.42797 -10.9266 3.53124
C 2.10537 -11.77476 2.31746
O 2.90839 -12.45242 1.69258
O -2.53652 -4.31053 1.14201
O 0.78489 -11.8786 2.00321
O 1.5297 -9.61891 1.1096
C 0.28786 -12.65143 0.97443
C 4.16418 -9.30485 3.44265
C 4.49817 -9.23596 4.93127
C 4.18592 -10.65619 5.35405
C 3.86152 -11.28122 3.99126
O 4.6647 -10.56635 3.08472
H 2.12823 -8.79716 4.02694
H 1.68969 -11.16124 4.32951
H 4.60583 -8.43497 2.90942
H 5.59751 -9.07476 5.00922
H 3.97126 -8.44364 5.50532
H 5.10861 -11.10336 5.78616
H 3.33808 -10.76639 6.06436
H 4.03072 -12.38045 4.02745
O -0.34405 -5.24035 2.87076
C -2.38459 -3.06182 0.57636
C -3.6248 -6.17851 4.18302
C -4.25584 -7.54118 4.47138
C -3.06718 -8.45429 4.25791
C -1.97332 -7.42163 3.97139
O -2.34434 -6.3113 4.75042
H -4.23473 -6.44443 2.11116
H -2.24741 -7.70103 1.80168
H -1.90352 -2.37121 1.30164
H -4.26421 -5.37403 4.60747
H -4.52492 -7.56124 5.55189
H -5.15577 -7.78004 3.86486
H -2.85293 -8.98293 5.21346
H -3.17497 -9.1915 3.43304
H -0.96759 -7.85222 4.1763
H -3.37193 -2.65667 0.26811
H -1.7364 -3.14597 -0.31991
H -0.81611 -12.54801 0.94274
H 0.54292 -13.71992 1.14018
H 0.70717 -12.31109 0.00349
H 1.56943 -7.8526 -0.29483
H 2.85766 -6.65863 -0.03824
H 1.34906 -5.26271 1.34708
H 0.78306 -5.50007 -0.32455
$end

$opt
CONSTRAINT
tors           1           2           3           4    -152.344
tors           3           4           5           6    -118.062
tors           4           5           6           7    -175.455
tors           5           6           7           8    +122.336
tors           6           7           8           9     -76.139
tors           7           8           9          10    +118.823
tors           8           9          10          11    +179.513
tors           9          10          11          12    -178.024
tors          11          12          13          14     +98.553
ENDCONSTRAINT
$end

$rem
JOBTYPE                   OPT
METHOD                    B3LYP
DFT_D                     d3_op
BASIS                     STO-3G
GEOM_OPT_MAX_CYCLES       100
GEOM_OPT_TOL_GRADIENT     300
GEOM_OPT_TOL_DISPLACEMENT 1200
GEOM_OPT_TOL_ENERGY       100
SYMMETRY                  False
THRESH                    12
SCF_CONVERGENCE           8
MAX_SUB_FILE_NUM          128
MEM_STATIC                400
MEM_TOTAL                 4000
$end
--------------------------------------------------------------

   15   -1510.1557224429      5.78E-09 Convergence criterion met
 Total energy in the final basis set = -1510.15572244
   14   -1510.2250742074      6.28E-09 Convergence criterion met
 Total energy in the final basis set = -1510.22507421
   14   -1510.2617970226      5.59E-09 Convergence criterion met
 Total energy in the final basis set = -1510.26179702
   14   -1510.2776270575      4.89E-09 Convergence criterion met
 Total energy in the final basis set = -1510.27762706
   13   -1510.2830267072      7.57E-09 Convergence criterion met
 Total energy in the final basis set = -1510.28302671
   13   -1510.2851063531      5.99E-09 Convergence criterion met
 Total energy in the final basis set = -1510.28510635
   12   -1510.2860448547      7.77E-09 Convergence criterion met
 Total energy in the final basis set = -1510.28604485
   12   -1510.2864658607      8.97E-09 Convergence criterion met
   11   -1510.2871080261      7.06E-09 Convergence criterion met
 Total energy in the final basis set = -1510.28710803
   10   -1510.2871277586      8.05E-09 Convergence criterion met
 Total energy in the final basis set = -1510.28712776
   10   -1510.2871426942      9.79E-09 Convergence criterion met
 Total energy in the final basis set = -1510.28714269
   10   -1510.2871518396      5.67E-09 Convergence criterion met
 Total energy in the final basis set = -1510.28715184
    9   -1510.2871570644      8.40E-09 Convergence criterion met
 Total energy in the final basis set = -1510.28715706
    9   -1510.2871584759      5.24E-09 Convergence criterion met
 Total energy in the final basis set = -1510.28715848

             Standard Nuclear Orientation (Angstroms)
    I     Atom           X                Y                Z
 ----------------------------------------------------------------
    1      O      -6.0573249931     0.1133920961     0.3145762890
    2      C      -4.9165736360     0.1571752719    -0.1923741529
    3      C      -3.9383072807    -1.0473824781    -0.4218426550
    4      C      -2.3950078576    -0.6876096252    -0.4253965351
    5      C      -2.0754701640     0.7867650177     0.0055264485
    6      O      -1.4425789337     1.4447539461    -1.1043822895
    7      C      -1.0212120384     2.8100968360    -0.7110338795
    8      C       0.5203836265     2.9206908461    -0.9468091347
    9      O       1.2041607520     2.1942393918     0.1535174843
   10      C       1.9811575604     1.1135929237    -0.3651022396
   11      C       2.6853119587     0.3956080652     0.8330805189
   12      C       3.6232451411    -0.7988634797     0.3855764266
   13      C       3.6410224246    -1.0670700753    -1.1648852371
   14      O       4.4920079098    -0.6833899644    -1.9945251774
   15      O      -4.3417834903     1.3349988679    -0.7710991256
   16      O       2.5420001890    -1.9417528345    -1.4669998080
   17      O       2.0634740277     0.8244359503    -1.5809866491
   18      C       2.4517295720    -2.1419208908    -2.9298788575
   19      C       3.7346976236     1.3554888458     1.5442594166
   20      C       4.1364696070     0.7157988155     2.9309110200
   21      C       5.0862313609    -0.4492071880     2.4648401053
   22      C       5.0321474327    -0.2764055067     0.8961990620
   23      O       4.9476920873     1.1923483792     0.7131062650
   24      H       1.9058217646     0.0605802318     1.5419445006
   25      H       3.3261968904    -1.7338460068     0.8924461022
   26      H       3.4196612504     2.4163681806     1.5827214989
   27      H       4.6713842336     1.4509092617     3.5528729608
   28      H       3.2587307410     0.3530413858     3.4895421571
   29      H       6.1141655438    -0.3032558417     2.8329516421
   30      H       4.7326170996    -1.4420602244     2.7859123550
   31      H       5.8965625548    -0.6830334119     0.3366627424
   32      O      -2.2220029954     1.3024246514     1.1357379571
   33      C      -5.2123767498     2.5077188477    -0.5311984974
   34      C      -4.0106455179    -2.1130793963     0.7526892652
   35      C      -3.4558780015    -3.4841078843     0.2013600335
   36      C      -1.9166761199    -3.1669278256     0.1067558462
   37      C      -1.8683920175    -1.6968391588     0.6846202503
   38      O      -2.9539174812    -1.6721829533     1.6916162501
   39      H      -4.2205898790    -1.5130808120    -1.3851656743
   40      H      -1.9373628118    -0.8685673922    -1.4133114567
   41      H      -5.2809866436     2.7428293213     0.5506137143
   42      H      -4.9946912630    -2.1569001616     1.2591914019
   43      H      -3.6564962496    -4.2950773168     0.9194526852
   44      H      -3.8986009247    -3.7539883454    -0.7704887381
   45      H      -1.3219292578    -3.8485852593     0.7352533455
   46      H      -1.5354464778    -3.2163664153    -0.9258885049
   47      H      -0.9057758269    -1.4037629379     1.1464244985
   48      H      -6.2358095085     2.3416961188    -0.9245655648
   49      H      -4.7392061104     3.3528511821    -1.0640199720
   50      H       1.6300442126    -2.8635232576    -3.0928770871
   51      H       3.3941137541    -2.5502106351    -3.3488274056
   52      H       2.2181028643    -1.1892117759    -3.4483547346
   53      H       0.8098354173     2.4616104723    -1.9169816262
   54      H       0.8428375906     3.9830866440    -0.9137155031
   55      H      -1.2793695355     2.9659017543     0.3600311827
   56      H      -1.5594174553     3.5480634565    -1.3437053559
 ----------------------------------------------------------------

    9   -1510.2871587661      2.04E-09 Convergence criterion met
 Total energy in the final basis set = -1510.28715877
 Final energy is   -1510.28715876614
 **  OPTIMIZATION CONVERGED  **

                    Orbital Energies (a.u.)
 --------------------------------------------------------------

 Alpha MOs
 -- Occupied --
-18.943 -18.939 -18.927 -18.918 -18.888 -18.887 -18.886 -18.882
-18.867 -18.860 -10.107 -10.105 -10.097 -10.089 -10.072 -10.070
-10.067 -10.061 -10.060 -10.060 -10.056 -10.054 -10.041 -10.041
-10.037 -10.032 -10.021 -10.020 -10.020 -10.018  -1.021  -1.018
 -1.005  -0.996  -0.971  -0.969  -0.945  -0.942  -0.930  -0.923
 -0.765  -0.762  -0.728  -0.723  -0.714  -0.705  -0.696  -0.666
 -0.654  -0.619  -0.598  -0.577  -0.547  -0.544  -0.538  -0.536
 -0.512  -0.512  -0.488  -0.476  -0.462  -0.454  -0.453  -0.450
 -0.432  -0.431  -0.425  -0.418  -0.415  -0.413  -0.404  -0.402
 -0.401  -0.384  -0.372  -0.366  -0.362  -0.355  -0.352  -0.350
 -0.344  -0.339  -0.334  -0.332  -0.331  -0.326  -0.324  -0.313
 -0.312  -0.306  -0.306  -0.301  -0.296  -0.290  -0.275  -0.274
 -0.272  -0.254  -0.253  -0.244  -0.243  -0.235  -0.233  -0.189
 -0.182  -0.166  -0.163  -0.163  -0.161  -0.151  -0.144  -0.144
 -0.140

          Ground-State Mulliken Net Atomic Charges

     Atom                 Charge (a.u.)
  ----------------------------------------
      1 O                    -0.209557
      2 C                     0.213908
      3 C                    -0.078820
      4 C                    -0.078822
      5 C                     0.216603
      6 O                    -0.174903
      7 C                    -0.056278
      8 C                    -0.055114
      9 O                    -0.173117
     10 C                     0.215810
     11 C                    -0.077594
     12 C                    -0.081895
     13 C                     0.215377
     14 O                    -0.215828
     15 O                    -0.168221
     16 O                    -0.176918
     17 O                    -0.207521
     18 C                    -0.128628
     19 C                     0.025253
     20 C                    -0.143782
     21 C                    -0.144087
     22 C                     0.025138
     23 O                    -0.188803
     24 H                     0.086996
     25 H                     0.083259
     26 H                     0.086643
     27 H                     0.078428
     28 H                     0.074377
     29 H                     0.077963
     30 H                     0.073224
     31 H                     0.087946
     32 O                    -0.220558
     33 C                    -0.127355
     34 C                     0.024458
     35 C                    -0.143349
     36 C                    -0.144209
     37 C                     0.026664
     38 O                    -0.187017
     39 H                     0.085667
     40 H                     0.087762
     41 H                     0.093161
     42 H                     0.090121
     43 H                     0.078481
     44 H                     0.073261
     45 H                     0.078342
     46 H                     0.074648
     47 H                     0.082089
     48 H                     0.092253
     49 H                     0.090860
     50 H                     0.083799
     51 H                     0.086914
     52 H                     0.092258
     53 H                     0.106401
     54 H                     0.086526
     55 H                     0.105305
     56 H                     0.082481
  ----------------------------------------
  Sum of atomic charges =    -0.000000

                    Cartesian Multipole Moments
 -----------------------------------------------------------------
    Charge (ESU x 10^10)
                -0.0000
    Dipole Moment (Debye)
         X      -1.1675      Y      -0.4224      Z      -0.5223
       Tot       1.3470
    Quadrupole Moments (Debye-Ang)
        XX    -174.3584     XY      -6.9357     YY    -145.0909
        XZ      18.9781     YZ       0.2493     ZZ    -161.7134

 Total job time:  51.40s(wall), 2446.16s(cpu)
        *  Thank you very much for using Q-Chem.  Have a nice day.  *
