 Q-Chem 5.0, Q-Chem, Inc., Pleasanton, CA (2017)
 Q-Chem 5.0.1 for Intel X86 EM64T Linux

User input:
--------------------------------------------------------------
$molecule
0  1
O -6.0573249931 0.1133920961 0.314576289
C -4.916573636 0.1571752719 -0.1923741529
C -3.9383072807 -1.0473824781 -0.421842655
C -2.3950078576 -0.6876096252 -0.4253965351
C -2.075470164 0.7867650177 0.0055264485
O -1.4425789337 1.4447539461 -1.1043822895
C -1.0212120384 2.810096836 -0.7110338795
C 0.5203836265 2.9206908461 -0.9468091347
O 1.204160752 2.1942393918 0.1535174843
C 1.9811575604 1.1135929237 -0.3651022396
C 2.6853119587 0.3956080652 0.8330805189
C 3.6232451411 -0.7988634797 0.3855764266
C 3.6410224246 -1.0670700753 -1.1648852371
O 4.4920079098 -0.6833899644 -1.9945251774
O -4.3417834903 1.3349988679 -0.7710991256
O 2.542000189 -1.9417528345 -1.466999808
O 2.0634740277 0.8244359503 -1.5809866491
C 2.451729572 -2.1419208908 -2.9298788575
C 3.7346976236 1.3554888458 1.5442594166
C 4.136469607 0.7157988155 2.93091102
C 5.0862313609 -0.449207188 2.4648401053
C 5.0321474327 -0.2764055067 0.896199062
O 4.9476920873 1.1923483792 0.713106265
H 1.9058217646 0.0605802318 1.5419445006
H 3.3261968904 -1.7338460068 0.8924461022
H 3.4196612504 2.4163681806 1.5827214989
H 4.6713842336 1.4509092617 3.5528729608
H 3.258730741 0.3530413858 3.4895421571
H 6.1141655438 -0.3032558417 2.8329516421
H 4.7326170996 -1.4420602244 2.785912355
H 5.8965625548 -0.6830334119 0.3366627424
O -2.2220029954 1.3024246514 1.1357379571
C -5.2123767498 2.5077188477 -0.5311984974
C -4.0106455179 -2.1130793963 0.7526892652
C -3.4558780015 -3.4841078843 0.2013600335
C -1.9166761199 -3.1669278256 0.1067558462
C -1.8683920175 -1.6968391588 0.6846202503
O -2.9539174812 -1.6721829533 1.6916162501
H -4.220589879 -1.513080812 -1.3851656743
H -1.9373628118 -0.8685673922 -1.4133114567
H -5.2809866436 2.7428293213 0.5506137143
H -4.994691263 -2.1569001616 1.2591914019
H -3.6564962496 -4.2950773168 0.9194526852
H -3.8986009247 -3.7539883454 -0.7704887381
H -1.3219292578 -3.8485852593 0.7352533455
H -1.5354464778 -3.2163664153 -0.9258885049
H -0.9057758269 -1.4037629379 1.1464244985
H -6.2358095085 2.3416961188 -0.9245655648
H -4.7392061104 3.3528511821 -1.064019972
H 1.6300442126 -2.8635232576 -3.0928770871
H 3.3941137541 -2.5502106351 -3.3488274056
H 2.2181028643 -1.1892117759 -3.4483547346
H 0.8098354173 2.4616104723 -1.9169816262
H 0.8428375906 3.983086644 -0.9137155031
H -1.2793695355 2.9659017543 0.3600311827
H -1.5594174553 3.5480634565 -1.3437053559
$end

$rem
JOBTYPE                   OPT
METHOD                    B3LYP
DFT_D                     d3_op
BASIS                     STO-3G
GEOM_OPT_MAX_CYCLES       100
GEOM_OPT_TOL_GRADIENT     300
GEOM_OPT_TOL_DISPLACEMENT 1200
GEOM_OPT_TOL_ENERGY       100
SYMMETRY                  False
THRESH                    12
SCF_CONVERGENCE           8
MAX_SUB_FILE_NUM          128
MEM_STATIC                400
MEM_TOTAL                 4000
$end
--------------------------------------------------------------

   16   -1510.2871884110      5.54E-09 Convergence criterion met
 Total energy in the final basis set = -1510.28718841
   14   -1510.2886171067      4.89E-09 Convergence criterion met
 Total energy in the final basis set = -1510.28861711
   14   -1510.2905997795      8.29E-09 Convergence criterion met
 Total energy in the final basis set = -1510.29059978
   14   -1510.2888404685      6.01E-09 Convergence criterion met
 Total energy in the final basis set = -1510.28884047
   14   -1510.2885161630      8.10E-09 Convergence criterion met
 Total energy in the final basis set = -1510.28851616
   13   -1510.2901869245      3.73E-09 Convergence criterion met
 Total energy in the final basis set = -1510.29018692
   13   -1510.2903920367      4.06E-09 Convergence criterion met
 Total energy in the final basis set = -1510.29039204
   14   -1510.2901398853      6.22E-09 Convergence criterion met
   12   -1510.3055824233      7.77E-09 Convergence criterion met
 Total energy in the final basis set = -1510.30558242
   12   -1510.3056620598      6.09E-09 Convergence criterion met
 Total energy in the final basis set = -1510.30566206
   11   -1510.3057047077      7.88E-09 Convergence criterion met
 Total energy in the final basis set = -1510.30570471
   11   -1510.3057181311      4.75E-09 Convergence criterion met
 Total energy in the final basis set = -1510.30571813
   11   -1510.3057203990      2.81E-09 Convergence criterion met
 Total energy in the final basis set = -1510.30572040
   10   -1510.3057231974      5.78E-09 Convergence criterion met
 Total energy in the final basis set = -1510.30572320

             Standard Nuclear Orientation (Angstroms)
    I     Atom           X                Y                Z
 ----------------------------------------------------------------
    1      O      -1.2458972640     0.4874311605     1.9703172479
    2      C      -2.3613585939     0.3100633503     1.4223253961
    3      C      -2.7321044906    -0.7884024396     0.3565540343
    4      C      -2.1936469226    -0.4395900956    -1.0889313970
    5      C      -1.7781384668     1.0608623304    -1.2281685742
    6      O      -1.2782885093     1.2840621732    -2.5476706371
    7      C      -0.8053774668     2.6831155033    -2.6951902345
    8      C       0.7259391944     2.7831625998    -2.3477896941
    9      O       0.9525559437     2.3732134484    -0.9434931921
   10      C       1.3285411779     0.9892744346    -0.8865758991
   11      C       1.3695918744     0.5249749613     0.5978165843
   12      C       2.1669243131    -0.8268682349     0.8063716539
   13      C       2.8363076530    -1.3826257704    -0.4998803433
   14      O       3.9596697737    -1.0958592761    -0.9661438007
   15      O      -3.5505005191     1.0084520369     1.7917345374
   16      O       1.9711440754    -2.3891992856    -1.0559454969
   17      O       1.5424390546     0.2907357834    -1.9063182777
   18      C       2.5264382573    -2.8679854240    -2.3401369529
   19      C       2.1761043121     1.5079313594     1.5455849234
   20      C       1.7585333815     1.1741647708     3.0305647499
   21      C       2.5314591460    -0.1778073184     3.2619731899
   22      C       3.2516668654    -0.3638491385     1.8669520621
   23      O       3.5714709534     1.0219441152     1.4511435775
   24      H       0.3189827244     0.4121559535     0.9634616228
   25      H       1.4844103466    -1.6031035747     1.1938081507
   26      H       2.1096529443     2.5744834334     1.2563193870
   27      H       2.1034830052     1.9610568559     3.7200403396
   28      H       0.6658644912     1.0600275806     3.1226531752
   29      H       3.2731339853    -0.0882830569     4.0716383184
   30      H       1.8559372694    -1.0175275434     3.4900395054
   31      H       4.1705735593    -0.9811795987     1.8827216897
   32      O      -1.8982315238     1.9511556696    -0.3541900922
   33      C      -3.2202232962     2.0874956093     2.7511091604
   34      C      -1.9057499515    -2.1074111147     0.6556976148
   35      C      -2.3755750100    -3.2618323394    -0.3176658224
   36      C      -1.6363374804    -2.8659480144    -1.6510881874
   37      C      -0.9963695095    -1.4873869033    -1.2368951609
   38      O      -0.5637792710    -1.7393158349     0.1554834358
   39      H      -3.8256687922    -0.9389880205     0.3653442976
   40      H      -2.9627444580    -0.6435313259    -1.8561282106
   41      H      -2.5335749096     2.8287192650     2.2935936813
   42      H      -1.8570953716    -2.3822771897     1.7269735399
   43      H      -2.0430408911    -4.2428305320     0.0566589728
   44      H      -3.4714129596    -3.2802014786    -0.4314366748
   45      H      -0.8407469632    -3.5871506453    -1.8975299914
   46      H      -2.3184231416    -2.7766436424    -2.5116820237
   47      H      -0.1343727374    -1.1374865623    -1.8413052324
   48      H      -2.7483824970     1.6854478569     3.6707796708
   49      H      -4.1792728987     2.5744342990     3.0059695478
   50      H       1.8556718039    -3.6774690137    -2.6828887894
   51      H       3.5565847059    -3.2626791685    -2.2246602343
   52      H       2.5435015407    -2.0567743225    -3.0970636100
   53      H       1.3085735202     2.1238537329    -3.0261996470
   54      H       1.0623034757     3.8355319609    -2.4443436037
   55      H      -1.3886154727     3.3505113155    -2.0259474875
   56      H      -0.9700705622     2.9622181155    -3.7558184723
 ----------------------------------------------------------------

    9   -1510.3057233541      8.83E-09 Convergence criterion met
 Total energy in the final basis set = -1510.30572335
 Final energy is   -1510.30572335407
 **  OPTIMIZATION CONVERGED  **

                    Orbital Energies (a.u.)
 --------------------------------------------------------------

 Alpha MOs
 -- Occupied --
-18.948 -18.937 -18.934 -18.908 -18.892 -18.890 -18.874 -18.874
-18.867 -18.846 -10.112 -10.105 -10.096 -10.080 -10.075 -10.074
-10.063 -10.063 -10.057 -10.046 -10.043 -10.040 -10.040 -10.039
-10.022 -10.019 -10.010 -10.008 -10.002  -9.997  -1.029  -1.012
 -1.008  -0.985  -0.973  -0.951  -0.950  -0.936  -0.935  -0.911
 -0.767  -0.744  -0.727  -0.720  -0.704  -0.699  -0.684  -0.663
 -0.644  -0.619  -0.593  -0.570  -0.547  -0.540  -0.528  -0.520
 -0.515  -0.500  -0.486  -0.470  -0.461  -0.458  -0.443  -0.439
 -0.433  -0.426  -0.418  -0.413  -0.411  -0.406  -0.398  -0.394
 -0.392  -0.381  -0.372  -0.365  -0.359  -0.356  -0.349  -0.344
 -0.340  -0.334  -0.331  -0.329  -0.322  -0.317  -0.313  -0.308
 -0.307  -0.304  -0.296  -0.289  -0.285  -0.278  -0.274  -0.265
 -0.260  -0.256  -0.252  -0.244  -0.236  -0.230  -0.213  -0.200
 -0.177  -0.171  -0.164  -0.156  -0.153  -0.150  -0.145  -0.127
 -0.125

          Ground-State Mulliken Net Atomic Charges

     Atom                 Charge (a.u.)
  ----------------------------------------
      1 O                    -0.223228
      2 C                     0.223124
      3 C                    -0.080853
      4 C                    -0.081412
      5 C                     0.210760
      6 O                    -0.168780
      7 C                    -0.052392
      8 C                    -0.054080
      9 O                    -0.170868
     10 C                     0.210822
     11 C                    -0.092100
     12 C                    -0.082537
     13 C                     0.210951
     14 O                    -0.221710
     15 O                    -0.166868
     16 O                    -0.172068
     17 O                    -0.219130
     18 C                    -0.129217
     19 C                     0.023430
     20 C                    -0.147506
     21 C                    -0.143805
     22 C                     0.024195
     23 O                    -0.193280
     24 H                     0.117146
     25 H                     0.095170
     26 H                     0.083289
     27 H                     0.070533
     28 H                     0.086385
     29 H                     0.072513
     30 H                     0.071975
     31 H                     0.080824
     32 O                    -0.207480
     33 C                    -0.127720
     34 C                     0.025280
     35 C                    -0.144759
     36 C                    -0.141444
     37 C                     0.022844
     38 O                    -0.186265
     39 H                     0.086501
     40 H                     0.087606
     41 H                     0.095484
     42 H                     0.082742
     43 H                     0.078930
     44 H                     0.072829
     45 H                     0.081107
     46 H                     0.072774
     47 H                     0.103540
     48 H                     0.088494
     49 H                     0.089778
     50 H                     0.080941
     51 H                     0.085684
     52 H                     0.088436
     53 H                     0.102281
     54 H                     0.090690
     55 H                     0.098978
     56 H                     0.091462
  ----------------------------------------
  Sum of atomic charges =    -0.000000

                    Cartesian Multipole Moments
 -----------------------------------------------------------------
    Charge (ESU x 10^10)
                 0.0000
    Dipole Moment (Debye)
         X      -4.6389      Y      -0.1263      Z      -0.8322
       Tot       4.7146
    Quadrupole Moments (Debye-Ang)
        XX    -169.4157     XY      -0.5750     YY    -148.2968
        XZ       0.8871     YZ      -3.2746     ZZ    -149.5248

 Total job time:  205.18s(wall), 9767.15s(cpu)
        *  Thank you very much for using Q-Chem.  Have a nice day.  *
