 Q-Chem 5.0, Q-Chem, Inc., Pleasanton, CA (2017)
 Q-Chem 5.0.1 for Intel X86 EM64T Linux

User input:
--------------------------------------------------------------
$molecule
0  1
O -3.94934 -3.66094 2.70899
C -3.26408 -4.56952 2.26188
C -3.36658 -6.02376 2.66595
C -2.09548 -6.87943 2.53944
C -0.8197 -6.1447 2.19214
O -0.33652 -6.59374 0.99618
C 0.9271 -6.0184 0.64758
C 1.9232 -7.11604 0.28825
O 2.15407 -7.95953 1.4276
C 2.00753 -9.28967 1.20762
C 2.29149 -10.12367 2.43418
C 2.42852 -11.63102 2.17454
C 2.61869 -12.03759 0.72705
O 3.68979 -12.3 0.19938
O -2.53892 -4.31133 1.14025
O 1.47727 -12.26479 0.02117
O 1.63674 -9.73565 0.13194
C 1.44471 -12.70269 -1.28654
C 3.67021 -9.8237 3.06922
C 3.64605 -10.2176 4.54482
C 3.60499 -11.72625 4.43007
C 3.76152 -11.88583 2.91266
O 4.53861 -10.78169 2.5246
H 1.50523 -9.87098 3.18097
H 1.61233 -12.25106 2.6064
H 3.99318 -8.76491 2.96896
H 4.63065 -9.92021 4.97262
H 2.83369 -9.76571 5.15376
H 4.48392 -12.14279 4.97035
H 2.66963 -12.20593 4.79151
H 4.1874 -12.88633 2.67604
O -0.35191 -5.23169 2.86485
C -2.38822 -3.06303 0.57335
C -3.62574 -6.17786 4.18276
C -4.25643 -7.54057 4.4714
C -3.06719 -8.45313 4.25934
C -1.97372 -7.42015 3.97218
O -2.34544 -6.30959 4.75054
H -4.23414 -6.44449 2.11027
H -2.24676 -7.70241 1.80309
H -1.90563 -2.37187 1.29711
H -4.2657 -5.37343 4.60647
H -4.52654 -7.56034 5.55166
H -5.15563 -7.77995 3.864
H -2.8529 -8.98041 5.21564
H -3.17443 -9.19148 3.43544
H -0.96806 -7.85021 4.17795
H -3.37621 -2.65813 0.26688
H -1.74192 -3.14784 -0.32422
H 0.38853 -12.79957 -1.61137
H 1.9377 -13.69469 -1.3709
H 1.95671 -11.97094 -1.94746
H 1.5465 -7.62662 -0.62443
H 2.88386 -6.63113 0.01158
H 1.40229 -5.38857 1.43263
H 0.78529 -5.37429 -0.24672
$end

$opt
CONSTRAINT
tors           1           2           3           4    -152.344
tors           3           4           5           6    -118.062
tors           4           5           6           7    -175.455
tors           5           6           7           8    +128.596
tors           6           7           8           9     -62.703
tors           7           8           9          10    +128.380
tors           8           9          10          11    +178.791
tors           9          10          11          12    -167.796
tors          11          12          13          14     +98.553
ENDCONSTRAINT
$end

$rem
JOBTYPE                   OPT
METHOD                    B3LYP
DFT_D                     d3_op
BASIS                     STO-3G
GEOM_OPT_MAX_CYCLES       100
GEOM_OPT_TOL_GRADIENT     300
GEOM_OPT_TOL_DISPLACEMENT 1200
GEOM_OPT_TOL_ENERGY       100
SYMMETRY                  False
THRESH                    12
SCF_CONVERGENCE           8
MAX_SUB_FILE_NUM          128
MEM_STATIC                400
MEM_TOTAL                 4000
$end
--------------------------------------------------------------

   15   -1510.1541953832      5.83E-09 Convergence criterion met
 Total energy in the final basis set = -1510.15419538
   14   -1510.2235522188      6.71E-09 Convergence criterion met
 Total energy in the final basis set = -1510.22355222
   13   -1510.2604111926      9.30E-09 Convergence criterion met
 Total energy in the final basis set = -1510.26041119
   14   -1510.2762611862      6.15E-09 Convergence criterion met
 Total energy in the final basis set = -1510.27626119
   14   -1510.2814914033      4.64E-09 Convergence criterion met
 Total energy in the final basis set = -1510.28149140
   13   -1510.2833322600      5.85E-09 Convergence criterion met
 Total energy in the final basis set = -1510.28333226
   12   -1510.2843189369      9.28E-09 Convergence criterion met
 Total energy in the final basis set = -1510.28431894
   12   -1510.2848045527      6.12E-09 Convergence criterion met
   11   -1510.2856102826      9.28E-09 Convergence criterion met
 Total energy in the final basis set = -1510.28561028
   11   -1510.2856507161      8.66E-09 Convergence criterion met
 Total energy in the final basis set = -1510.28565072
   10   -1510.2856717417      9.52E-09 Convergence criterion met
 Total energy in the final basis set = -1510.28567174
   10   -1510.2856879385      9.60E-09 Convergence criterion met
 Total energy in the final basis set = -1510.28568794
    9   -1510.2856958348      9.62E-09 Convergence criterion met
 Total energy in the final basis set = -1510.28569583
    9   -1510.2856982896      8.69E-09 Convergence criterion met
 Total energy in the final basis set = -1510.28569829

             Standard Nuclear Orientation (Angstroms)
    I     Atom           X                Y                Z
 ----------------------------------------------------------------
    1      O       6.2524780619     0.3806135567     0.0533960741
    2      C       5.0398549928     0.5528835736     0.2984869829
    3      C       4.0926545877    -0.4137374799     1.0928064926
    4      C       2.5576121152    -0.3422353434     0.7048215794
    5      C       2.2445491575     0.5524116103    -0.5447257870
    6      O       1.3925672112     1.6274498671    -0.1147318852
    7      C       0.9767446281     2.4428603878    -1.2800603806
    8      C      -0.5787815010     2.5758388901    -1.2355678921
    9      O      -1.1444113275     1.2096421940    -1.3734640225
   10      C      -2.0836304938     0.9411589049    -0.3323117262
   11      C      -2.6640889589    -0.4975631185    -0.5521102491
   12      C      -3.9320968795    -0.8049334749     0.3447556499
   13      C      -4.3178724570     0.3460279762     1.3458405862
   14      O      -5.1961735317     1.2219115591     1.1989439999
   15      O       4.3181256440     1.7472903309    -0.0264617657
   16      O      -3.5657279596     0.1415596962     2.5516965406
   17      O      -2.3833423156     1.7504507867     0.5752750813
   18      C      -3.8335515262     1.2460097065     3.4985111260
   19      C      -3.2811669358    -0.6509241352    -2.0087699405
   20      C      -3.5351706318    -2.1848830995    -2.2883526044
   21      C      -4.8183781264    -2.4458313506    -1.4154328882
   22      C      -5.0404552379    -1.0217080768    -0.7704887637
   23      O      -4.6412082350    -0.0892173230    -1.8510947577
   24      H      -1.8543299095    -1.2301917888    -0.3799816816
   25      H      -3.7676213077    -1.7228408469     0.9368828276
   26      H      -2.7172482973    -0.1091895507    -2.7926411535
   27      H      -3.7310962801    -2.3533715949    -3.3591461388
   28      H      -2.6786351758    -2.8071724166    -1.9833654068
   29      H      -5.6818550012    -2.7245349769    -2.0402203001
   30      H      -4.6647115117    -3.2282108083    -0.6552019336
   31      H      -6.0722970865    -0.8005704618    -0.4354261441
   32      O       2.5491950376     0.3319462186    -1.7376401163
   33      C       5.1558832534     2.6521226691    -0.8450656355
   34      C       4.4196316295    -1.9392841806     0.8041192916
   35      C       3.8315383176    -2.7995786633     1.9893044885
   36      C       2.2893174101    -2.7152876670     1.6838218332
   37      C       2.2852346672    -1.8687665489     0.3492099192
   38      O       3.5340150382    -2.2769549531    -0.3341182258
   39      H       4.2224795885    -0.1838373253     2.1673578396
   40      H       1.9410711256     0.0109492238     1.5495630970
   41      H       5.3762113668     2.2062192917    -1.8365673017
   42      H       5.4799883532    -2.1297375152     0.5468856439
   43      H       4.1973623334    -3.8369534628     1.9288674258
   44      H       4.0945556963    -2.3874942277     2.9764671529
   45      H       1.8555559276    -3.7126169821     1.5087324860
   46      H       1.7222686481    -2.2203289708     2.4884775312
   47      H       1.4125371857    -2.0338631678    -0.3121320197
   48      H       6.1142354967     2.8871104482    -0.3392395800
   49      H       4.5656803214     3.5772126460    -0.9787670889
   50      H      -3.2653685647     1.0096611863     4.4170674996
   51      H      -4.9133191285     1.3284322712     3.7391481031
   52      H      -3.4877942077     2.2165850043     3.0872198521
   53      H      -0.9274378973     3.0126662560    -0.2747741143
   54      H      -0.9378633454     3.2016706761    -2.0810191849
   55      H       1.3179032775     1.9316183624    -2.2074800035
   56      H       1.4475241735     3.4477909178    -1.2154658879
 ----------------------------------------------------------------

    9   -1510.2856984776      3.43E-09 Convergence criterion met
 Total energy in the final basis set = -1510.28569848
 Final energy is   -1510.28569847755
 **  OPTIMIZATION CONVERGED  **

                    Orbital Energies (a.u.)
 --------------------------------------------------------------

 Alpha MOs
 -- Occupied --
-18.944 -18.940 -18.927 -18.918 -18.889 -18.887 -18.886 -18.882
-18.867 -18.859 -10.107 -10.106 -10.098 -10.089 -10.073 -10.070
-10.068 -10.062 -10.060 -10.059 -10.056 -10.053 -10.041 -10.041
-10.038 -10.032 -10.022 -10.021 -10.020 -10.018  -1.021  -1.018
 -1.005  -0.996  -0.972  -0.969  -0.945  -0.943  -0.930  -0.923
 -0.766  -0.762  -0.729  -0.723  -0.715  -0.706  -0.697  -0.667
 -0.653  -0.619  -0.599  -0.576  -0.547  -0.544  -0.539  -0.536
 -0.513  -0.511  -0.488  -0.479  -0.464  -0.455  -0.453  -0.451
 -0.433  -0.431  -0.421  -0.417  -0.415  -0.413  -0.406  -0.401
 -0.400  -0.385  -0.372  -0.367  -0.362  -0.356  -0.354  -0.349
 -0.344  -0.340  -0.333  -0.332  -0.331  -0.327  -0.324  -0.314
 -0.313  -0.307  -0.306  -0.301  -0.297  -0.291  -0.275  -0.274
 -0.272  -0.254  -0.254  -0.244  -0.243  -0.236  -0.233  -0.186
 -0.182  -0.169  -0.164  -0.163  -0.161  -0.151  -0.145  -0.144
 -0.140

          Ground-State Mulliken Net Atomic Charges

     Atom                 Charge (a.u.)
  ----------------------------------------
      1 O                    -0.209261
      2 C                     0.214094
      3 C                    -0.078684
      4 C                    -0.079143
      5 C                     0.217898
      6 O                    -0.175260
      7 C                    -0.054798
      8 C                    -0.053381
      9 O                    -0.173206
     10 C                     0.217316
     11 C                    -0.077083
     12 C                    -0.081768
     13 C                     0.214817
     14 O                    -0.216998
     15 O                    -0.168025
     16 O                    -0.175240
     17 O                    -0.208016
     18 C                    -0.128219
     19 C                     0.024381
     20 C                    -0.143992
     21 C                    -0.143950
     22 C                     0.024970
     23 O                    -0.189427
     24 H                     0.085322
     25 H                     0.083276
     26 H                     0.088775
     27 H                     0.078551
     28 H                     0.073082
     29 H                     0.077969
     30 H                     0.072975
     31 H                     0.087764
     32 O                    -0.220473
     33 C                    -0.127315
     34 C                     0.024436
     35 C                    -0.143262
     36 C                    -0.144752
     37 C                     0.026019
     38 O                    -0.186449
     39 H                     0.085852
     40 H                     0.086982
     41 H                     0.093358
     42 H                     0.090395
     43 H                     0.078756
     44 H                     0.073597
     45 H                     0.077721
     46 H                     0.074145
     47 H                     0.082036
     48 H                     0.092784
     49 H                     0.090905
     50 H                     0.085146
     51 H                     0.086367
     52 H                     0.092074
     53 H                     0.104216
     54 H                     0.086982
     55 H                     0.103551
     56 H                     0.082188
  ----------------------------------------
  Sum of atomic charges =    -0.000000

                    Cartesian Multipole Moments
 -----------------------------------------------------------------
    Charge (ESU x 10^10)
                -0.0000
    Dipole Moment (Debye)
         X       0.9507      Y      -0.3449      Z       1.6114
       Tot       1.9025
    Quadrupole Moments (Debye-Ang)
        XX    -178.8009     XY      16.8275     YY    -149.9883
        XZ       4.7845     YZ      -5.7091     ZZ    -155.9681

 Total job time:  49.33s(wall), 2346.12s(cpu)
        *  Thank you very much for using Q-Chem.  Have a nice day.  *
