 Q-Chem 5.0, Q-Chem, Inc., Pleasanton, CA (2017)
 Q-Chem 5.0.1 for Intel X86 EM64T Linux

User input:
--------------------------------------------------------------
$molecule
0  1
O 6.2524780619 0.3806135567 0.0533960741
C 5.0398549928 0.5528835736 0.2984869829
C 4.0926545877 -0.4137374799 1.0928064926
C 2.5576121152 -0.3422353434 0.7048215794
C 2.2445491575 0.5524116103 -0.544725787
O 1.3925672112 1.6274498671 -0.1147318852
C 0.9767446281 2.4428603878 -1.2800603806
C -0.578781501 2.5758388901 -1.2355678921
O -1.1444113275 1.209642194 -1.3734640225
C -2.0836304938 0.9411589049 -0.3323117262
C -2.6640889589 -0.4975631185 -0.5521102491
C -3.9320968795 -0.8049334749 0.3447556499
C -4.317872457 0.3460279762 1.3458405862
O -5.1961735317 1.2219115591 1.1989439999
O 4.318125644 1.7472903309 -0.0264617657
O -3.5657279596 0.1415596962 2.5516965406
O -2.3833423156 1.7504507867 0.5752750813
C -3.8335515262 1.2460097065 3.498511126
C -3.2811669358 -0.6509241352 -2.0087699405
C -3.5351706318 -2.1848830995 -2.2883526044
C -4.8183781264 -2.4458313506 -1.4154328882
C -5.0404552379 -1.0217080768 -0.7704887637
O -4.641208235 -0.089217323 -1.8510947577
H -1.8543299095 -1.2301917888 -0.3799816816
H -3.7676213077 -1.7228408469 0.9368828276
H -2.7172482973 -0.1091895507 -2.7926411535
H -3.7310962801 -2.3533715949 -3.3591461388
H -2.6786351758 -2.8071724166 -1.9833654068
H -5.6818550012 -2.7245349769 -2.0402203001
H -4.6647115117 -3.2282108083 -0.6552019336
H -6.0722970865 -0.8005704618 -0.4354261441
O 2.5491950376 0.3319462186 -1.7376401163
C 5.1558832534 2.6521226691 -0.8450656355
C 4.4196316295 -1.9392841806 0.8041192916
C 3.8315383176 -2.7995786633 1.9893044885
C 2.2893174101 -2.715287667 1.6838218332
C 2.2852346672 -1.8687665489 0.3492099192
O 3.5340150382 -2.2769549531 -0.3341182258
H 4.2224795885 -0.1838373253 2.1673578396
H 1.9410711256 0.0109492238 1.549563097
H 5.3762113668 2.2062192917 -1.8365673017
H 5.4799883532 -2.1297375152 0.5468856439
H 4.1973623334 -3.8369534628 1.9288674258
H 4.0945556963 -2.3874942277 2.9764671529
H 1.8555559276 -3.7126169821 1.508732486
H 1.7222686481 -2.2203289708 2.4884775312
H 1.4125371857 -2.0338631678 -0.3121320197
H 6.1142354967 2.8871104482 -0.33923958
H 4.5656803214 3.577212646 -0.9787670889
H -3.2653685647 1.0096611863 4.4170674996
H -4.9133191285 1.3284322712 3.7391481031
H -3.4877942077 2.2165850043 3.0872198521
H -0.9274378973 3.012666256 -0.2747741143
H -0.9378633454 3.2016706761 -2.0810191849
H 1.3179032775 1.9316183624 -2.2074800035
H 1.4475241735 3.4477909178 -1.2154658879
$end

$rem
JOBTYPE                   OPT
METHOD                    B3LYP
DFT_D                     d3_op
BASIS                     STO-3G
GEOM_OPT_MAX_CYCLES       100
GEOM_OPT_TOL_GRADIENT     300
GEOM_OPT_TOL_DISPLACEMENT 1200
GEOM_OPT_TOL_ENERGY       100
SYMMETRY                  False
THRESH                    12
SCF_CONVERGENCE           8
MAX_SUB_FILE_NUM          128
MEM_STATIC                400
MEM_TOTAL                 4000
$end
--------------------------------------------------------------

   16   -1510.2856527825      5.39E-09 Convergence criterion met
 Total energy in the final basis set = -1510.28565278
   13   -1510.2866097027      9.02E-09 Convergence criterion met
 Total energy in the final basis set = -1510.28660970
   14   -1510.2878381718      4.78E-09 Convergence criterion met
 Total energy in the final basis set = -1510.28783817
   15   -1510.2861880710      3.01E-09 Convergence criterion met
 Total energy in the final basis set = -1510.28618807
   13   -1510.2896530309      8.30E-09 Convergence criterion met
 Total energy in the final basis set = -1510.28965303
   15   -1510.2919741261      2.08E-09 Convergence criterion met
 Total energy in the final basis set = -1510.29197413
   13   -1510.2937309405      8.93E-09 Convergence criterion met
 Total energy in the final basis set = -1510.29373094
   14   -1510.2954998342      9.44E-09 Convergence criterion met
   12   -1510.2993223241      6.97E-09 Convergence criterion met
 Total energy in the final basis set = -1510.29932232
   12   -1510.2992221439      7.54E-09 Convergence criterion met
 Total energy in the final basis set = -1510.29922214
   12   -1510.2993356981      6.15E-09 Convergence criterion met
 Total energy in the final basis set = -1510.29933570
   12   -1510.2992455053      4.27E-09 Convergence criterion met
 Total energy in the final basis set = -1510.29924551
   11   -1510.2993397304      8.65E-09 Convergence criterion met
 Total energy in the final basis set = -1510.29933973
   11   -1510.2993304366      3.19E-09 Convergence criterion met
 Total energy in the final basis set = -1510.29933044

             Standard Nuclear Orientation (Angstroms)
    I     Atom           X                Y                Z
 ----------------------------------------------------------------
    1      O      -5.1862149113    -0.1848750271    -0.4442944834
    2      C      -4.0415459998     0.2120479897    -0.7480347406
    3      C      -2.8199955013    -0.6641755463    -1.2045636190
    4      C      -1.4801496091    -0.3737763344    -0.4015357712
    5      C      -1.5558556154     0.8657347751     0.5485973627
    6      O      -0.9516649689     1.9742828144    -0.1452884225
    7      C      -0.8629570196     3.1546292981     0.7412944223
    8      C       0.6561105657     3.3998373806     1.0691942978
    9      O       1.2315844903     2.1424481428     1.6053794915
   10      C       1.7128494136     1.3237684764     0.5369893908
   11      C       2.0841936491    -0.0791743671     1.1177793836
   12      C       2.5274259162    -1.0996658694    -0.0064496455
   13      C       2.4475392709    -0.5398550104    -1.4752098588
   14      O       3.3959756275    -0.2090151886    -2.2146305721
   15      O      -3.6408441796     1.5872685005    -0.7278649861
   16      O       1.0798355672    -0.6540608008    -1.9361814565
   17      O       1.8470466045     1.6951733894    -0.6517771008
   18      C       0.9646839099    -0.1257793414    -3.3133096118
   19      C       3.4079434451    -0.0084543382     1.9956504507
   20      C       3.5465887655    -1.3613579286     2.7994853758
   21      C       4.0239390574    -2.3427455439     1.6648161738
   22      C       4.0308109660    -1.3793669793     0.4147986473
   23      O       4.4812261952    -0.0856257784     0.9806590647
   24      H       1.2278503722    -0.4555303350     1.7052544131
   25      H       1.9141977701    -2.0158612301     0.0440530617
   26      H       3.5024482297     0.9143099779     2.6006069565
   27      H       4.3033025481    -1.2616989238     3.5937092309
   28      H       2.5927632874    -1.6700698771     3.2562500659
   29      H       5.0390055835    -2.7227882097     1.8615526896
   30      H       3.3457824371    -3.2001967198     1.5281202629
   31      H       4.6869161581    -1.6801910278    -0.4247623387
   32      O      -1.9951452825     0.9264567357     1.7175745779
   33      C      -4.7326978647     2.4301432098    -0.1900563424
   34      C      -3.0895546022    -2.1749847088    -0.8143575451
   35      C      -2.0228703999    -3.0928203051    -1.5280045837
   36      C      -0.7360319665    -2.7865309289    -0.6757393806
   37      C      -1.3099704650    -1.7517236197     0.3728297751
   38      O      -2.6937704864    -2.2160817926     0.6124128835
   39      H      -2.6690424480    -0.5280399149    -2.2916213084
   40      H      -0.6160606938    -0.2258180400    -1.0816049722
   41      H      -4.9378878477     2.1898143261     0.8733852122
   42      H      -4.1478003218    -2.4806702537    -0.9298975675
   43      H      -2.3175455070    -4.1517399558    -1.4547306448
   44      H      -1.8984773167    -2.8344518683    -2.5918346187
   45      H      -0.3557043249    -3.6896894215    -0.1732686144
   46      H       0.0661671378    -2.3244197732    -1.2777419576
   47      H      -0.7581542011    -1.6807383439     1.3299462408
   48      H      -5.6701586660     2.3048082684    -0.7689051176
   49      H      -4.3801610189     3.4746657863    -0.2715256078
   50      H      -0.0726069115    -0.3318906223    -3.6354811620
   51      H       1.6779475090    -0.6231539022    -4.0011069313
   52      H       1.1507252222     0.9674031004    -3.3351960171
   53      H       1.2021379698     3.7060692982     0.1519379297
   54      H       0.7671267768     4.1698295908     1.8589950790
   55      H      -1.4341198262     2.9440547617     1.6720358693
   56      H      -1.2916206605     4.0314461733     0.2130522621
 ----------------------------------------------------------------

   10   -1510.2993385155      9.81E-09 Convergence criterion met
 Total energy in the final basis set = -1510.29933852
 Final energy is   -1510.29933851553
 **  OPTIMIZATION CONVERGED  **

                    Orbital Energies (a.u.)
 --------------------------------------------------------------

 Alpha MOs
 -- Occupied --
-18.943 -18.937 -18.935 -18.927 -18.890 -18.890 -18.881 -18.878
-18.874 -18.871 -10.110 -10.102 -10.099 -10.096 -10.077 -10.069
-10.066 -10.064 -10.064 -10.061 -10.053 -10.052 -10.044 -10.039
-10.035 -10.023 -10.022 -10.022 -10.015 -10.007  -1.025  -1.014
 -1.009  -1.003  -0.973  -0.964  -0.948  -0.937  -0.936  -0.932
 -0.768  -0.758  -0.729  -0.721  -0.714  -0.704  -0.695  -0.663
 -0.662  -0.620  -0.599  -0.577  -0.549  -0.542  -0.540  -0.533
 -0.515  -0.506  -0.490  -0.475  -0.469  -0.461  -0.452  -0.446
 -0.435  -0.427  -0.425  -0.419  -0.415  -0.413  -0.411  -0.405
 -0.399  -0.381  -0.375  -0.369  -0.363  -0.359  -0.351  -0.349
 -0.345  -0.341  -0.340  -0.336  -0.329  -0.326  -0.324  -0.315
 -0.309  -0.307  -0.302  -0.301  -0.295  -0.285  -0.283  -0.277
 -0.269  -0.257  -0.253  -0.248  -0.243  -0.237  -0.227  -0.193
 -0.179  -0.178  -0.167  -0.161  -0.158  -0.153  -0.148  -0.147
 -0.139

          Ground-State Mulliken Net Atomic Charges

     Atom                 Charge (a.u.)
  ----------------------------------------
      1 O                    -0.208608
      2 C                     0.211692
      3 C                    -0.077808
      4 C                    -0.092842
      5 C                     0.210491
      6 O                    -0.172904
      7 C                    -0.056327
      8 C                    -0.051416
      9 O                    -0.171651
     10 C                     0.216716
     11 C                    -0.078758
     12 C                    -0.082960
     13 C                     0.220896
     14 O                    -0.208877
     15 O                    -0.169931
     16 O                    -0.177927
     17 O                    -0.203399
     18 C                    -0.127640
     19 C                     0.025680
     20 C                    -0.143789
     21 C                    -0.143938
     22 C                     0.025245
     23 O                    -0.188293
     24 H                     0.087324
     25 H                     0.085754
     26 H                     0.086755
     27 H                     0.079218
     28 H                     0.074961
     29 H                     0.078978
     30 H                     0.073677
     31 H                     0.089489
     32 O                    -0.219080
     33 C                    -0.128441
     34 C                     0.024105
     35 C                    -0.144532
     36 C                    -0.153735
     37 C                     0.023728
     38 O                    -0.190468
     39 H                     0.082742
     40 H                     0.105683
     41 H                     0.092237
     42 H                     0.088716
     43 H                     0.076187
     44 H                     0.070532
     45 H                     0.069603
     46 H                     0.086739
     47 H                     0.076029
     48 H                     0.091202
     49 H                     0.089080
     50 H                     0.086192
     51 H                     0.090747
     52 H                     0.096646
     53 H                     0.099000
     54 H                     0.090906
     55 H                     0.100917
     56 H                     0.085454
  ----------------------------------------
  Sum of atomic charges =    -0.000000

                    Cartesian Multipole Moments
 -----------------------------------------------------------------
    Charge (ESU x 10^10)
                -0.0000
    Dipole Moment (Debye)
         X       0.0587      Y       0.6586      Z      -0.4681
       Tot       0.8101
    Quadrupole Moments (Debye-Ang)
        XX    -177.4674     XY     -13.3551     YY    -146.4049
        XZ      12.5604     YZ       4.7798     ZZ    -157.3034

 Total job time:  94.15s(wall), 4486.98s(cpu)
        *  Thank you very much for using Q-Chem.  Have a nice day.  *
