 Q-Chem 5.0, Q-Chem, Inc., Pleasanton, CA (2017)
 Q-Chem 5.0.1 for Intel X86 EM64T Linux

User input:
--------------------------------------------------------------
$molecule
0  1
O -5.8690224247 0.1189667522 0.1883221144
C -4.6896574338 0.1952882594 -0.2172426279
C -3.687914767 -0.9967987155 -0.4131606345
C -2.144765677 -0.6455399486 -0.3159206622
C -1.8256133586 0.8395673279 0.0760698772
O -1.2761296101 1.4823094485 -1.0847123313
C -0.9337469337 2.8923942459 -0.7849265955
C 0.5925347317 3.0585469653 -1.0949698518
O 1.3522597262 2.4327868127 0.0175051504
C 1.8388712539 1.1476933128 -0.3729612027
C 2.6407378538 0.5359069888 0.8245806455
C 3.370692215 -0.8190044913 0.4524103738
C 3.0701203164 -1.343024062 -1.0008701376
O 3.7897365864 -1.227028532 -2.0148899266
O -4.0832201002 1.4064020179 -0.6800082747
O 1.8475651585 -2.09875922 -0.9497714907
O 1.6619318622 0.639470988 -1.5034899937
C 1.4744988574 -2.5287327459 -2.3147712481
C 3.883080173 1.4537329317 1.1945891412
C 4.4724037488 0.9754990494 2.5800845477
C 5.2302204485 -0.33679831 2.1533210242
C 4.8909260276 -0.3938736373 0.6134226278
O 4.9024814692 1.0320026833 0.2077924779
H 1.9529436487 0.4132536032 1.6813691231
H 3.0902432245 -1.6141900797 1.1659349197
H 3.6782087246 2.5388311919 1.1125868928
H 5.1641991122 1.7306719265 2.9857929295
H 3.6800999731 0.7876719198 3.3223430929
H 6.3173192763 -0.2402386593 2.3032901899
H 4.876430875 -1.2295831524 2.6930490269
H 5.5927825191 -0.9763998438 -0.0141761165
O -1.9178032529 1.3767113292 1.2015195132
C -4.9945610779 2.5542189467 -0.4727832416
C -3.8334437738 -2.0748897616 0.7437799988
C -3.2196768472 -3.4363043196 0.2324159818
C -1.6809177775 -3.1076343918 0.2764565263
C -1.6975421093 -1.6343342769 0.8451182521
O -2.8600420531 -1.6207700551 1.7629524725
H -3.9128905739 -1.4485570975 -1.3979888356
H -1.6277714695 -0.8621519123 -1.267038762
H -5.2169866708 2.705564805 0.6031538292
H -4.8531189669 -2.1351141643 1.1724319496
H -3.4772701381 -4.2556822543 0.922320969
H -3.5718369375 -3.7009456054 -0.7773951927
H -1.1400566658 -3.7801844853 0.9607406633
H -1.2056372569 -3.1585675219 -0.7157725543
H -0.7777862533 -1.323529121 1.3768841807
H -5.950930968 2.4171165085 -1.0175645077
H -4.4633727569 3.43882414 -0.8692963207
H 0.5733982835 -3.1600541303 -2.20531625
H 2.2825031511 -3.1157482706 -2.7972747264
H 1.2403855217 -1.6551862756 -2.9576099302
H 0.8443627038 2.5565467053 -2.0531721152
H 0.8772532624 4.1305348137 -1.1251290213
H -1.1511407074 3.101378348 0.2856974803
H -1.5409429861 3.5557562441 -1.4375148239
$end

$rem
JOBTYPE                   OPT
METHOD                    B3LYP
DFT_D                     d3_op
BASIS                     STO-3G
GEOM_OPT_MAX_CYCLES       100
GEOM_OPT_TOL_GRADIENT     300
GEOM_OPT_TOL_DISPLACEMENT 1200
GEOM_OPT_TOL_ENERGY       100
SYMMETRY                  False
THRESH                    12
SCF_CONVERGENCE           8
MAX_SUB_FILE_NUM          128
MEM_STATIC                400
MEM_TOTAL                 4000
$end
--------------------------------------------------------------

   16   -1510.2886279737      5.41E-09 Convergence criterion met
 Total energy in the final basis set = -1510.28862797
   14   -1510.2796626463      2.73E-09 Convergence criterion met
 Total energy in the final basis set = -1510.27966265
   15   -1510.2916594056      1.88E-09 Convergence criterion met
 Total energy in the final basis set = -1510.29165941
   14   -1510.2936043171      5.25E-09 Convergence criterion met
 Total energy in the final basis set = -1510.29360432
   15   -1510.2944875731      2.06E-09 Convergence criterion met
 Total energy in the final basis set = -1510.29448757
   15   -1510.2944893540      1.46E-09 Convergence criterion met
 Total energy in the final basis set = -1510.29448935
   14   -1510.2963151144      9.50E-09 Convergence criterion met
 Total energy in the final basis set = -1510.29631511
   13   -1510.2977976700      4.95E-09 Convergence criterion met
   12   -1510.2992348475      3.44E-09 Convergence criterion met
 Total energy in the final basis set = -1510.29923485
   11   -1510.2992410352      3.68E-09 Convergence criterion met
 Total energy in the final basis set = -1510.29924104
   10   -1510.2992491590      6.92E-09 Convergence criterion met
 Total energy in the final basis set = -1510.29924916
    9   -1510.2992579855      8.84E-09 Convergence criterion met
 Total energy in the final basis set = -1510.29925799
   11   -1510.2992527718      3.31E-09 Convergence criterion met
 Total energy in the final basis set = -1510.29925277
   11   -1510.2992589786      2.47E-09 Convergence criterion met
 Total energy in the final basis set = -1510.29925898

             Standard Nuclear Orientation (Angstroms)
    I     Atom           X                Y                Z
 ----------------------------------------------------------------
    1      O      -5.1677417162    -0.0866660228     0.6665988162
    2      C      -4.1204754191     0.0244631947    -0.0049441500
    3      C      -2.9514643138    -1.0183189675    -0.1204549434
    4      C      -1.5044685126    -0.4050980971     0.1078010197
    5      C      -1.4707126216     1.1545244952     0.2105977921
    6      O      -1.0634565392     1.6567865229    -1.0770321575
    7      C      -0.8740839754     3.1226213086    -1.0233368667
    8      C       0.6666703745     3.4193258711    -1.1369215652
    9      O       1.3780645861     2.6397830717    -0.0948728779
   10      C       1.7215813885     1.3448474447    -0.5928725605
   11      C       2.2632320828     0.4854768032     0.5946560133
   12      C       2.5477440975    -1.0124640162     0.1762254865
   13      C       2.2073192749    -1.3556964851    -1.3221612282
   14      O       3.0105528113    -1.5359679708    -2.2593784298
   15      O      -3.8075004776     1.1611016152    -0.8185798023
   16      O       0.7902599758    -1.6336316903    -1.4239434929
   17      O       1.6372744060     0.9882793655    -1.7908771603
   18      C       0.4381433710    -1.9448735437    -2.8268476692
   19      C       3.7169858380     0.9580456734     1.0342822172
   20      C       4.0550051047     0.2923069173     2.4268289867
   21      C       4.3520868209    -1.1905234853     1.9903504117
   22      C       4.1105522233    -1.1033464185     0.4327072723
   23      O       4.5990612102     0.2509244348     0.0805459101
   24      H       1.5493473166     0.5550203217     1.4347104139
   25      H       1.9875194211    -1.7081385845     0.8243058213
   26      H       3.8731454230     2.0529886741     0.9805949395
   27      H       4.9413360330     0.7680536159     2.8759918340
   28      H       3.2152399703     0.3684839384     3.1359267735
   29      H       5.3953999809    -1.4731869346     2.2026840679
   30      H       3.6828466153    -1.9193624838     2.4747118632
   31      H       4.6257430250    -1.8680878645    -0.1799863185
   32      O      -1.6917209535     1.8771656757     1.2065350488
   33      C      -4.8434991582     2.2065554374    -0.6597071422
   34      C      -3.0441878007    -2.0429508134     1.0848197916
   35      C      -2.0813879115    -3.2599966711     0.8009851424
   36      C      -0.6752505803    -2.6065052831     1.0679056170
   37      C      -1.0977232456    -1.1348118199     1.4597256126
   38      O      -2.3750329018    -1.3105760331     2.1849655521
   39      H      -3.0182794693    -1.5186601648    -1.1043183902
   40      H      -0.8009030852    -0.7030721827    -0.6958259028
   41      H      -4.8697213155     2.5922292868     0.3801020788
   42      H      -4.0836699555    -2.3002394576     1.3676790563
   43      H      -2.2876580964    -4.0843845537     1.5019097303
   44      H      -2.1851763439    -3.6387600113    -0.2286127447
   45      H      -0.1491576107    -3.1004463560     1.9000480491
   46      H      -0.0346967658    -2.6006063894     0.1679875123
   47      H      -0.3741732240    -0.5788303960     2.0863765447
   48      H      -5.8516099315     1.8264957153    -0.9224402178
   49      H      -4.5610606494     3.0224385457    -1.3500476892
   50      H      -0.6247952036    -2.2486805684    -2.8178954575
   51      H       1.0614854930    -2.7686223639    -3.2292530705
   52      H       0.5645950203    -1.0526013276    -3.4733335858
   53      H       1.0388415826     3.1340439535    -2.1437188708
   54      H       0.8748090815     4.4901378808    -0.9389861433
   55      H      -1.2722619576     3.4970439239    -0.0549865360
   56      H      -1.4195284287     3.5834852810    -1.8728185293
 ----------------------------------------------------------------

    9   -1510.2992586774      6.14E-09 Convergence criterion met
 Total energy in the final basis set = -1510.29925868
 Final energy is   -1510.29925867736
 **  OPTIMIZATION CONVERGED  **

                    Orbital Energies (a.u.)
 --------------------------------------------------------------

 Alpha MOs
 -- Occupied --
-18.943 -18.937 -18.935 -18.927 -18.890 -18.890 -18.881 -18.878
-18.874 -18.871 -10.110 -10.101 -10.099 -10.096 -10.077 -10.069
-10.066 -10.064 -10.064 -10.060 -10.053 -10.052 -10.044 -10.039
-10.035 -10.023 -10.023 -10.022 -10.015 -10.007  -1.025  -1.014
 -1.008  -1.003  -0.973  -0.964  -0.948  -0.938  -0.935  -0.932
 -0.768  -0.758  -0.729  -0.721  -0.713  -0.704  -0.695  -0.663
 -0.662  -0.620  -0.599  -0.577  -0.549  -0.542  -0.540  -0.533
 -0.515  -0.506  -0.490  -0.475  -0.469  -0.461  -0.452  -0.446
 -0.435  -0.427  -0.425  -0.419  -0.415  -0.413  -0.410  -0.405
 -0.399  -0.381  -0.375  -0.369  -0.363  -0.359  -0.351  -0.349
 -0.345  -0.341  -0.340  -0.336  -0.329  -0.326  -0.324  -0.315
 -0.309  -0.307  -0.302  -0.301  -0.295  -0.285  -0.283  -0.277
 -0.269  -0.256  -0.253  -0.248  -0.243  -0.237  -0.227  -0.194
 -0.179  -0.178  -0.167  -0.161  -0.158  -0.153  -0.148  -0.147
 -0.139

          Ground-State Mulliken Net Atomic Charges

     Atom                 Charge (a.u.)
  ----------------------------------------
      1 O                    -0.208809
      2 C                     0.211804
      3 C                    -0.077814
      4 C                    -0.091586
      5 C                     0.210821
      6 O                    -0.172792
      7 C                    -0.056388
      8 C                    -0.051525
      9 O                    -0.171558
     10 C                     0.216243
     11 C                    -0.078884
     12 C                    -0.082903
     13 C                     0.220617
     14 O                    -0.209096
     15 O                    -0.169976
     16 O                    -0.177957
     17 O                    -0.203629
     18 C                    -0.127834
     19 C                     0.025718
     20 C                    -0.143587
     21 C                    -0.144130
     22 C                     0.025393
     23 O                    -0.188019
     24 H                     0.087336
     25 H                     0.085963
     26 H                     0.086621
     27 H                     0.079206
     28 H                     0.075009
     29 H                     0.078923
     30 H                     0.073679
     31 H                     0.089341
     32 O                    -0.218637
     33 C                    -0.128190
     34 C                     0.023952
     35 C                    -0.144536
     36 C                    -0.154463
     37 C                     0.023958
     38 O                    -0.190405
     39 H                     0.083023
     40 H                     0.104522
     41 H                     0.092478
     42 H                     0.088812
     43 H                     0.076092
     44 H                     0.070466
     45 H                     0.069218
     46 H                     0.087920
     47 H                     0.075747
     48 H                     0.090764
     49 H                     0.089269
     50 H                     0.086122
     51 H                     0.090829
     52 H                     0.096484
     53 H                     0.098969
     54 H                     0.090826
     55 H                     0.100968
     56 H                     0.085628
  ----------------------------------------
  Sum of atomic charges =    -0.000000

                    Cartesian Multipole Moments
 -----------------------------------------------------------------
    Charge (ESU x 10^10)
                -0.0000
    Dipole Moment (Debye)
         X      -0.1250      Y       0.3215      Z      -0.7857
       Tot       0.8581
    Quadrupole Moments (Debye-Ang)
        XX    -171.0546     XY      -3.0102     YY    -144.9942
        XZ      19.8405     YZ      -3.6833     ZZ    -164.8316

 Total job time:  92.82s(wall), 4422.63s(cpu)
        *  Thank you very much for using Q-Chem.  Have a nice day.  *
