 Q-Chem 5.0, Q-Chem, Inc., Pleasanton, CA (2017)
 Q-Chem 5.0.1 for Intel X86 EM64T Linux

User input:
--------------------------------------------------------------
$molecule
0  1
O -3.94934 -3.66094 2.70899
C -3.26408 -4.56952 2.26188
C -3.36658 -6.02376 2.66595
C -2.10704 -6.88966 2.49969
C -0.83614 -6.16476 2.11576
O -0.49109 -6.48104 0.83266
C 0.71472 -5.84222 0.40003
C 1.7356 -6.88752 -0.03733
O 2.3204 -7.51294 1.11581
C 1.84009 -8.74476 1.41758
C 2.50181 -9.35325 2.63105
C 2.10876 -10.8092 2.92091
C 1.41603 -11.5441 1.79097
O 1.95154 -12.33105 1.02384
O -2.51509 -4.29776 1.15941
O 0.06147 -11.41557 1.7459
O 0.91424 -9.23945 0.7917
C -0.75246 -12.05544 0.83458
C 4.03267 -9.49097 2.48459
C 4.67337 -9.53401 3.8703
C 4.21657 -10.89646 4.34699
C 3.5244 -11.40975 3.07798
O 4.23299 -10.80238 2.02692
H 2.28538 -8.67199 3.48489
H 1.51243 -10.95365 3.84867
H 4.49896 -8.68665 1.87511
H 5.77594 -9.56271 3.71448
H 4.42268 -8.68703 4.5446
H 5.11761 -11.50443 4.58459
H 3.51969 -10.88904 5.21296
H 3.51106 -12.52244 3.07535
O -0.31059 -5.30011 2.80931
C -2.35405 -3.0439 0.60774
C -3.56842 -6.17749 4.1932
C -4.20997 -7.53057 4.50301
C -3.04735 -8.46312 4.23561
C -1.94589 -7.44671 3.92055
O -2.27151 -6.33422 4.71607
H -4.26494 -6.43476 2.15366
H -2.28954 -7.69735 1.75364
H -1.88862 -2.35891 1.34837
H -4.17862 -5.36416 4.64315
H -4.43061 -7.54805 5.59456
H -5.14049 -7.75448 3.93845
H -2.81116 -9.01053 5.17518
H -3.19741 -9.18469 3.40341
H -0.94062 -7.89438 4.0873
H -3.33573 -2.6377 0.28331
H -1.68783 -3.11944 -0.27602
H -1.80684 -11.76784 1.02467
H -0.65639 -13.15696 0.9421
H -0.48 -11.75325 -0.19927
H 1.29258 -7.58421 -0.78437
H 2.56066 -6.36746 -0.56895
H 1.20636 -5.1485 1.11794
H 0.44981 -5.23575 -0.49226
$end

$opt
CONSTRAINT
tors           1           2           3           4    -154.131
tors           3           4           5           6    -109.968
tors           4           5           6           7    -179.356
tors           5           6           7           8    +122.336
tors           6           7           8           9     -76.139
tors           7           8           9          10    +101.908
tors           8           9          10          11    +179.513
tors           9          10          11          12    -173.376
tors          11          12          13          14     +99.970
ENDCONSTRAINT
$end

$rem
JOBTYPE                   OPT
METHOD                    B3LYP
DFT_D                     d3_op
BASIS                     STO-3G
GEOM_OPT_MAX_CYCLES       100
GEOM_OPT_TOL_GRADIENT     300
GEOM_OPT_TOL_DISPLACEMENT 1200
GEOM_OPT_TOL_ENERGY       100
SYMMETRY                  False
THRESH                    12
SCF_CONVERGENCE           8
MAX_SUB_FILE_NUM          128
MEM_STATIC                400
MEM_TOTAL                 4000
$end
--------------------------------------------------------------

   15   -1510.1546682765      5.86E-09 Convergence criterion met
 Total energy in the final basis set = -1510.15466828
   14   -1510.2242385341      5.91E-09 Convergence criterion met
 Total energy in the final basis set = -1510.22423853
   14   -1510.2611081191      4.93E-09 Convergence criterion met
 Total energy in the final basis set = -1510.26110812
   14   -1510.2770980736      5.63E-09 Convergence criterion met
 Total energy in the final basis set = -1510.27709807
   14   -1510.2829222529      3.60E-09 Convergence criterion met
 Total energy in the final basis set = -1510.28292225
   13   -1510.2855050053      7.84E-09 Convergence criterion met
 Total energy in the final basis set = -1510.28550501
   13   -1510.2868167571      3.59E-09 Convergence criterion met
 Total energy in the final basis set = -1510.28681676
   12   -1510.2873762940      9.60E-09 Convergence criterion met
   11   -1510.2884596910      6.45E-09 Convergence criterion met
 Total energy in the final basis set = -1510.28845969
   11   -1510.2885190713      5.28E-09 Convergence criterion met
 Total energy in the final basis set = -1510.28851907
   11   -1510.2885543761      5.09E-09 Convergence criterion met
 Total energy in the final basis set = -1510.28855438
   10   -1510.2885671170      9.06E-09 Convergence criterion met
 Total energy in the final basis set = -1510.28856712
   11   -1510.2885716909      3.37E-09 Convergence criterion met
 Total energy in the final basis set = -1510.28857169
   11   -1510.2885723841      2.19E-09 Convergence criterion met
 Total energy in the final basis set = -1510.28857238

             Standard Nuclear Orientation (Angstroms)
    I     Atom           X                Y                Z
 ----------------------------------------------------------------
    1      O      -5.8690224247     0.1189667522     0.1883221144
    2      C      -4.6896574338     0.1952882594    -0.2172426279
    3      C      -3.6879147670    -0.9967987155    -0.4131606345
    4      C      -2.1447656770    -0.6455399486    -0.3159206622
    5      C      -1.8256133586     0.8395673279     0.0760698772
    6      O      -1.2761296101     1.4823094485    -1.0847123313
    7      C      -0.9337469337     2.8923942459    -0.7849265955
    8      C       0.5925347317     3.0585469653    -1.0949698518
    9      O       1.3522597262     2.4327868127     0.0175051504
   10      C       1.8388712539     1.1476933128    -0.3729612027
   11      C       2.6407378538     0.5359069888     0.8245806455
   12      C       3.3706922150    -0.8190044913     0.4524103738
   13      C       3.0701203164    -1.3430240620    -1.0008701376
   14      O       3.7897365864    -1.2270285320    -2.0148899266
   15      O      -4.0832201002     1.4064020179    -0.6800082747
   16      O       1.8475651585    -2.0987592200    -0.9497714907
   17      O       1.6619318622     0.6394709880    -1.5034899937
   18      C       1.4744988574    -2.5287327459    -2.3147712481
   19      C       3.8830801730     1.4537329317     1.1945891412
   20      C       4.4724037488     0.9754990494     2.5800845477
   21      C       5.2302204485    -0.3367983100     2.1533210242
   22      C       4.8909260276    -0.3938736373     0.6134226278
   23      O       4.9024814692     1.0320026833     0.2077924779
   24      H       1.9529436487     0.4132536032     1.6813691231
   25      H       3.0902432245    -1.6141900797     1.1659349197
   26      H       3.6782087246     2.5388311919     1.1125868928
   27      H       5.1641991122     1.7306719265     2.9857929295
   28      H       3.6800999731     0.7876719198     3.3223430929
   29      H       6.3173192763    -0.2402386593     2.3032901899
   30      H       4.8764308750    -1.2295831524     2.6930490269
   31      H       5.5927825191    -0.9763998438    -0.0141761165
   32      O      -1.9178032529     1.3767113292     1.2015195132
   33      C      -4.9945610779     2.5542189467    -0.4727832416
   34      C      -3.8334437738    -2.0748897616     0.7437799988
   35      C      -3.2196768472    -3.4363043196     0.2324159818
   36      C      -1.6809177775    -3.1076343918     0.2764565263
   37      C      -1.6975421093    -1.6343342769     0.8451182521
   38      O      -2.8600420531    -1.6207700551     1.7629524725
   39      H      -3.9128905739    -1.4485570975    -1.3979888356
   40      H      -1.6277714695    -0.8621519123    -1.2670387620
   41      H      -5.2169866708     2.7055648050     0.6031538292
   42      H      -4.8531189669    -2.1351141643     1.1724319496
   43      H      -3.4772701381    -4.2556822543     0.9223209690
   44      H      -3.5718369375    -3.7009456054    -0.7773951927
   45      H      -1.1400566658    -3.7801844853     0.9607406633
   46      H      -1.2056372569    -3.1585675219    -0.7157725543
   47      H      -0.7777862533    -1.3235291210     1.3768841807
   48      H      -5.9509309680     2.4171165085    -1.0175645077
   49      H      -4.4633727569     3.4388241400    -0.8692963207
   50      H       0.5733982835    -3.1600541303    -2.2053162500
   51      H       2.2825031511    -3.1157482706    -2.7972747264
   52      H       1.2403855217    -1.6551862756    -2.9576099302
   53      H       0.8443627038     2.5565467053    -2.0531721152
   54      H       0.8772532624     4.1305348137    -1.1251290213
   55      H      -1.1511407074     3.1013783480     0.2856974803
   56      H      -1.5409429861     3.5557562441    -1.4375148239
 ----------------------------------------------------------------

    9   -1510.2885715148      4.08E-09 Convergence criterion met
 Total energy in the final basis set = -1510.28857151
 Final energy is   -1510.28857151482
 **  OPTIMIZATION CONVERGED  **

                    Orbital Energies (a.u.)
 --------------------------------------------------------------

 Alpha MOs
 -- Occupied --
-18.944 -18.940 -18.926 -18.919 -18.887 -18.886 -18.886 -18.881
-18.867 -18.860 -10.106 -10.105 -10.097 -10.089 -10.074 -10.070
-10.068 -10.060 -10.059 -10.058 -10.056 -10.055 -10.040 -10.040
-10.035 -10.032 -10.020 -10.020 -10.019 -10.018  -1.022  -1.018
 -1.004  -0.997  -0.970  -0.969  -0.945  -0.942  -0.931  -0.924
 -0.764  -0.762  -0.728  -0.722  -0.714  -0.704  -0.696  -0.667
 -0.655  -0.619  -0.598  -0.577  -0.546  -0.543  -0.537  -0.536
 -0.511  -0.511  -0.489  -0.476  -0.461  -0.455  -0.452  -0.449
 -0.433  -0.429  -0.427  -0.417  -0.416  -0.413  -0.404  -0.403
 -0.400  -0.385  -0.372  -0.364  -0.362  -0.354  -0.352  -0.349
 -0.344  -0.338  -0.333  -0.332  -0.330  -0.326  -0.324  -0.313
 -0.311  -0.305  -0.305  -0.301  -0.297  -0.291  -0.275  -0.273
 -0.272  -0.255  -0.252  -0.245  -0.244  -0.234  -0.233  -0.191
 -0.182  -0.165  -0.163  -0.161  -0.159  -0.150  -0.144  -0.143
 -0.141

          Ground-State Mulliken Net Atomic Charges

     Atom                 Charge (a.u.)
  ----------------------------------------
      1 O                    -0.210609
      2 C                     0.213279
      3 C                    -0.078637
      4 C                    -0.079331
      5 C                     0.216880
      6 O                    -0.174070
      7 C                    -0.055523
      8 C                    -0.053034
      9 O                    -0.172376
     10 C                     0.215217
     11 C                    -0.077774
     12 C                    -0.082114
     13 C                     0.215526
     14 O                    -0.216417
     15 O                    -0.167839
     16 O                    -0.177376
     17 O                    -0.206366
     18 C                    -0.128604
     19 C                     0.024781
     20 C                    -0.144064
     21 C                    -0.143886
     22 C                     0.024949
     23 O                    -0.189601
     24 H                     0.087654
     25 H                     0.083157
     26 H                     0.087189
     27 H                     0.078215
     28 H                     0.074218
     29 H                     0.077949
     30 H                     0.073352
     31 H                     0.088135
     32 O                    -0.221152
     33 C                    -0.126711
     34 C                     0.024401
     35 C                    -0.143777
     36 C                    -0.143059
     37 C                     0.027194
     38 O                    -0.188016
     39 H                     0.085743
     40 H                     0.088693
     41 H                     0.093607
     42 H                     0.089572
     43 H                     0.078285
     44 H                     0.072782
     45 H                     0.078597
     46 H                     0.073307
     47 H                     0.083884
     48 H                     0.091637
     49 H                     0.090578
     50 H                     0.081123
     51 H                     0.087623
     52 H                     0.092332
     53 H                     0.105526
     54 H                     0.088344
     55 H                     0.104095
     56 H                     0.082512
  ----------------------------------------
  Sum of atomic charges =    -0.000000

                    Cartesian Multipole Moments
 -----------------------------------------------------------------
    Charge (ESU x 10^10)
                -0.0000
    Dipole Moment (Debye)
         X      -0.7864      Y       0.2074      Z      -0.2554
       Tot       0.8525
    Quadrupole Moments (Debye-Ang)
        XX    -171.1837     XY      -4.5469     YY    -144.2066
        XZ      19.1487     YZ      -1.0789     ZZ    -163.4226

 Total job time:  54.13s(wall), 2578.13s(cpu)
        *  Thank you very much for using Q-Chem.  Have a nice day.  *
