 Q-Chem 5.0, Q-Chem, Inc., Pleasanton, CA (2017)
 Q-Chem 5.0.1 for Intel X86 EM64T Linux

User input:
--------------------------------------------------------------
$molecule
0  1
O -5.8443134634 0.2277603769 -0.0022724821
C -4.6418136956 0.2527989655 -0.339962866
C -3.6648990968 -0.9728774011 -0.4240225395
C -2.130899404 -0.662234501 -0.1605956347
C -1.8335712636 0.8193999383 0.2563286449
O -1.1449801375 1.4682829807 -0.828048648
C -0.8384256792 2.8673680746 -0.4522936636
C 0.6572132559 3.1751507129 -0.8038945512
O 1.5564713225 2.5270016469 0.183889865
C 1.8875699312 1.2045987815 -0.2481347376
C 2.8397302129 0.5489898716 0.8066878335
C 3.3945842953 -0.8555329133 0.3324616556
C 2.8437412532 -1.3439974077 -1.0597512334
O 3.4629493209 -1.3579218324 -2.1447785104
O -3.9668821409 1.4273772254 -0.8032153583
O 1.5631905811 -1.9685379403 -0.8542419365
O 1.5321662203 0.711409336 -1.3429683534
C 1.0140770774 -2.3789298211 -2.1654829569
C 4.1896600567 1.3784044037 0.9375657506
C 4.9637461477 0.8799889042 2.2209362765
C 5.5262457874 -0.5016512515 1.7193682799
C 4.9486270739 -0.5495270727 0.2506923955
O 5.0012078653 0.8655062185 -0.1881015785
H 2.3109297557 0.4828230195 1.7749481525
H 3.1672705897 -1.6345709577 1.0820851783
H 4.0516523202 2.4742965482 0.8593536584
H 5.7754789894 1.5794172005 2.4768386884
H 4.2976136753 0.7782445889 3.09253431
H 6.6277112818 -0.5064005961 1.7010786283
H 5.1786704193 -1.3499069782 2.3302307194
H 5.4975042696 -1.1924955783 -0.4641722816
O -2.0482292267 1.3529947816 1.3674209184
C -4.8513926261 2.6092607513 -0.6932912243
C -3.9721336599 -2.0275076182 0.720589953
C -3.344555182 -3.4130938158 0.3029761553
C -1.813700028 -3.1289624924 0.5323022177
C -1.8502505599 -1.6416680734 1.060820631
O -3.1099557935 -1.5795341224 1.838740814
H -3.7960014215 -1.4270229562 -1.4245503896
H -1.5142295906 -0.9031397829 -1.0439102309
H -5.116784119 2.8185033893 0.3630616176
H -5.0357267792 -2.0510501005 1.0291690567
H -3.7100309113 -4.215458197 0.9635043356
H -3.5777347523 -3.680419399 -0.740086816
H -1.3868960341 -3.7968102512 1.297045784
H -1.2194705124 -3.2250249284 -0.389018086
H -0.9903995538 -1.3462065354 1.6923216548
H -5.7861593906 2.4729680501 -1.2744202653
H -4.2764378649 3.4584086123 -1.105889021
H 0.1001263899 -2.9633643522 -1.9542461044
H 1.7317770414 -3.0051644853 -2.7334179277
H 0.7534786476 -1.4936548349 -2.7816943675
H 0.885886954 2.8148323566 -1.8293468241
H 0.8461261933 4.2652608866 -0.7276809507
H -1.0362702309 2.9942314401 0.635187157
H -1.5018499025 3.5497001317 -1.0276371317
$end

$rem
JOBTYPE                   OPT
METHOD                    B3LYP
DFT_D                     d3_op
BASIS                     STO-3G
GEOM_OPT_MAX_CYCLES       100
GEOM_OPT_TOL_GRADIENT     300
GEOM_OPT_TOL_DISPLACEMENT 1200
GEOM_OPT_TOL_ENERGY       100
SYMMETRY                  False
THRESH                    12
SCF_CONVERGENCE           8
MAX_SUB_FILE_NUM          128
MEM_STATIC                400
MEM_TOTAL                 4000
$end
--------------------------------------------------------------

   16   -1510.2887744127      5.24E-09 Convergence criterion met
 Total energy in the final basis set = -1510.28877441
   14   -1510.2895530056      7.98E-09 Convergence criterion met
 Total energy in the final basis set = -1510.28955301
   15   -1510.2916989041      3.05E-09 Convergence criterion met
 Total energy in the final basis set = -1510.29169890
   15   -1510.2842196517      4.10E-09 Convergence criterion met
 Total energy in the final basis set = -1510.28421965
   14   -1510.2930270834      8.76E-09 Convergence criterion met
 Total energy in the final basis set = -1510.29302708
   15   -1510.2939214410      2.31E-09 Convergence criterion met
 Total energy in the final basis set = -1510.29392144
   15   -1510.2964829257      2.25E-09 Convergence criterion met
 Total energy in the final basis set = -1510.29648293
   13   -1510.2975082192      8.71E-09 Convergence criterion met
   12   -1510.2990687199      8.66E-09 Convergence criterion met
 Total energy in the final basis set = -1510.29906872
   12   -1510.2991156569      8.26E-09 Convergence criterion met
 Total energy in the final basis set = -1510.29911566
   12   -1510.2991366047      6.18E-09 Convergence criterion met
 Total energy in the final basis set = -1510.29913660
   11   -1510.2991421764      4.71E-09 Convergence criterion met
 Total energy in the final basis set = -1510.29914218
   11   -1510.2991450594      2.57E-09 Convergence criterion met
 Total energy in the final basis set = -1510.29914506
    9   -1510.2991454055      5.71E-09 Convergence criterion met
 Total energy in the final basis set = -1510.29914541

             Standard Nuclear Orientation (Angstroms)
    I     Atom           X                Y                Z
 ----------------------------------------------------------------
    1      O      -5.1390450063     0.0631616782     0.7402353198
    2      C      -4.0973528461     0.1624901978     0.0582548779
    3      C      -2.9664869410    -0.9148427765    -0.1091795068
    4      C      -1.4960112490    -0.3589559285     0.1122021819
    5      C      -1.4107035821     1.1930980297     0.2798550210
    6      O      -0.9965178079     1.7385892392    -0.9878898016
    7      C      -0.7598345033     3.1939575785    -0.8709904906
    8      C       0.7876672314     3.4467566175    -0.9965432916
    9      O       1.4882469219     2.5991794044    -0.0012151974
   10      C       1.7804186123     1.3166720030    -0.5607968904
   11      C       2.3069866116     0.3876788801     0.5803703224
   12      C       2.5318233021    -1.1000651155     0.0936762313
   13      C       2.1593149253    -1.3669597836    -1.4125030210
   14      O       2.9436785946    -1.5338553145    -2.3680445334
   15      O      -3.7571312266     1.3150659943    -0.7212838671
   16      O       0.7322115944    -1.5912890912    -1.5059724780
   17      O       1.6678771846     1.0166111780    -1.7718328219
   18      C       0.3512776611    -1.8260565694    -2.9162217370
   19      C       3.7826153383     0.7882382849     1.0194738689
   20      C       4.1168358473     0.0501044856     2.3757496582
   21      C       4.3512131814    -1.4221619398     1.8704354374
   22      C       4.0933404258    -1.2571277935     0.3224713601
   23      O       4.6257873701     0.0933220148     0.0223486940
   24      H       1.6067471434     0.4455004186     1.4326504056
   25      H       1.9565397223    -1.8025543359     0.7209504619
   26      H       3.9774970364     1.8782310425     1.0117148375
   27      H       5.0278262562     0.4730731904     2.8282409446
   28      H       3.2927493007     0.1264697488     3.1031278179
   29      H       5.3856545646    -1.7523081671     2.0557602963
   30      H       3.6611154838    -2.1465065967     2.3318218138
   31      H       4.5722066582    -2.0117239407    -0.3309029666
   32      O      -1.6009269733     1.8784488623     1.3081680496
   33      C      -4.7586453495     2.3858933051    -0.5163993661
   34      C      -3.0747871036    -1.9745251148     1.0638129074
   35      C      -2.1660666281    -3.2172320483     0.7179435420
   36      C      -0.7304360172    -2.6254403394     0.9723894046
   37      C      -1.0875575672    -1.1538314561     1.4263393174
   38      O      -2.3548998825    -1.3080431900     2.1734379702
   39      H      -3.0666734481    -1.3811339545    -1.1068319687
   40      H      -0.8173145562    -0.6461614283    -0.7161242794
   41      H      -4.7597158958     2.7400090890     0.5349292052
   42      H      -4.1175359317    -2.2015897576     1.3601436873
   43      H      -2.3873088822    -4.0556062391     1.3974760311
   44      H      -2.3083345110    -3.5583364119    -0.3201885020
   45      H      -0.2042641096    -3.1679309097     1.7736331443
   46      H      -0.1100336826    -2.6107577405     0.0584649510
   47      H      -0.3294442207    -0.6490149441     2.0552998075
   48      H      -5.7811812518     2.0444843758    -0.7764337706
   49      H      -4.4605060191     3.2137827115    -1.1854791041
   50      H      -0.7196223508    -2.1004478326    -2.9049889232
   51      H       0.9450889997    -2.6465889552    -3.3669569803
   52      H       0.4932866740    -0.9077736813    -3.5219560865
   53      H       1.1358735516     3.1952007686    -2.0207776208
   54      H       1.0333845089     4.5004420646    -0.7547429221
   55      H      -1.1308571127     3.5343806475     0.1205417772
   56      H      -1.3034529336     3.7105781985    -1.6889530099
 ----------------------------------------------------------------

    9   -1510.2991453083      4.15E-09 Convergence criterion met
 Total energy in the final basis set = -1510.29914531
 Final energy is   -1510.29914530828
 **  OPTIMIZATION CONVERGED  **

                    Orbital Energies (a.u.)
 --------------------------------------------------------------

 Alpha MOs
 -- Occupied --
-18.943 -18.937 -18.935 -18.927 -18.890 -18.889 -18.881 -18.878
-18.874 -18.871 -10.110 -10.101 -10.099 -10.096 -10.077 -10.068
-10.066 -10.064 -10.064 -10.060 -10.053 -10.052 -10.044 -10.039
-10.035 -10.023 -10.023 -10.022 -10.015 -10.007  -1.025  -1.014
 -1.008  -1.003  -0.973  -0.965  -0.948  -0.938  -0.935  -0.932
 -0.767  -0.758  -0.729  -0.721  -0.713  -0.704  -0.695  -0.663
 -0.662  -0.620  -0.599  -0.577  -0.549  -0.542  -0.540  -0.533
 -0.515  -0.506  -0.490  -0.475  -0.469  -0.461  -0.452  -0.446
 -0.435  -0.427  -0.425  -0.419  -0.415  -0.413  -0.410  -0.405
 -0.399  -0.381  -0.375  -0.369  -0.363  -0.359  -0.350  -0.349
 -0.345  -0.341  -0.340  -0.336  -0.329  -0.327  -0.324  -0.315
 -0.309  -0.307  -0.302  -0.301  -0.295  -0.285  -0.283  -0.277
 -0.269  -0.256  -0.253  -0.248  -0.243  -0.237  -0.227  -0.193
 -0.179  -0.178  -0.167  -0.161  -0.158  -0.152  -0.148  -0.147
 -0.139

          Ground-State Mulliken Net Atomic Charges

     Atom                 Charge (a.u.)
  ----------------------------------------
      1 O                    -0.208881
      2 C                     0.211816
      3 C                    -0.077923
      4 C                    -0.091553
      5 C                     0.210763
      6 O                    -0.172807
      7 C                    -0.056497
      8 C                    -0.051529
      9 O                    -0.171645
     10 C                     0.216249
     11 C                    -0.078905
     12 C                    -0.082807
     13 C                     0.220514
     14 O                    -0.209086
     15 O                    -0.169927
     16 O                    -0.177974
     17 O                    -0.203620
     18 C                    -0.127911
     19 C                     0.025707
     20 C                    -0.143599
     21 C                    -0.144159
     22 C                     0.025332
     23 O                    -0.187976
     24 H                     0.087211
     25 H                     0.085863
     26 H                     0.086591
     27 H                     0.079251
     28 H                     0.075026
     29 H                     0.078902
     30 H                     0.073654
     31 H                     0.089331
     32 O                    -0.218659
     33 C                    -0.128205
     34 C                     0.024032
     35 C                    -0.144507
     36 C                    -0.154130
     37 C                     0.024092
     38 O                    -0.190359
     39 H                     0.083063
     40 H                     0.104720
     41 H                     0.092451
     42 H                     0.088899
     43 H                     0.076112
     44 H                     0.070543
     45 H                     0.069345
     46 H                     0.087578
     47 H                     0.075693
     48 H                     0.090799
     49 H                     0.089303
     50 H                     0.086063
     51 H                     0.090949
     52 H                     0.096381
     53 H                     0.098948
     54 H                     0.090822
     55 H                     0.101107
     56 H                     0.085547
  ----------------------------------------
  Sum of atomic charges =    -0.000000

                    Cartesian Multipole Moments
 -----------------------------------------------------------------
    Charge (ESU x 10^10)
                -0.0000
    Dipole Moment (Debye)
         X      -0.1438      Y       0.3381      Z      -0.7670
       Tot       0.8505
    Quadrupole Moments (Debye-Ang)
        XX    -170.6429     XY      -2.9264     YY    -144.4745
        XZ      19.6978     YZ      -3.4961     ZZ    -165.7214

 Total job time:  88.41s(wall), 4213.16s(cpu)
        *  Thank you very much for using Q-Chem.  Have a nice day.  *
