 Q-Chem 5.0, Q-Chem, Inc., Pleasanton, CA (2017)
 Q-Chem 5.0.1 for Intel X86 EM64T Linux

User input:
--------------------------------------------------------------
$molecule
0  1
O -3.94934 -3.66094 2.70899
C -3.26408 -4.56952 2.26188
C -3.36658 -6.02376 2.66595
C -2.08479 -6.86856 2.58126
C -0.80516 -6.12345 2.2723
O -0.37688 -6.43863 1.01427
C 0.84222 -5.78088 0.65314
C 1.81727 -6.78067 0.04011
O 2.38106 -7.60857 1.06947
C 1.68859 -8.7397 1.35261
C 2.3344 -9.56906 2.43693
C 1.67852 -10.93546 2.68402
C 0.73014 -11.41799 1.60493
O 0.97154 -12.29715 0.79045
O -2.54665 -4.31735 1.13421
O -0.55118 -10.96686 1.70481
O 0.64716 -9.00243 0.77116
C -1.58322 -11.35312 0.87543
C 3.77877 -9.99842 2.10147
C 4.53729 -10.28193 3.39624
C 3.85734 -11.55829 3.84486
C 2.94568 -11.81893 2.63893
O 3.65189 -11.28244 1.5482
H 2.35179 -8.93425 3.35163
H 1.16058 -11.02497 3.66432
H 4.33602 -9.25727 1.48833
H 5.58673 -10.51989 3.10846
H 4.54213 -9.4594 4.14343
H 4.63116 -12.35199 3.94078
H 3.27002 -11.47964 4.78534
H 2.70163 -12.90258 2.57471
O -0.34775 -5.23444 2.9829
C -2.39618 -3.07127 0.56267
C -3.68196 -6.19085 4.16985
C -4.30901 -7.5624 4.42426
C -3.10318 -8.46245 4.25179
C -2.00969 -7.41743 4.0131
O -2.4219 -6.31531 4.7841
H -4.20212 -6.45337 2.0693
H -2.20467 -7.68574 1.83239
H -1.9056 -2.37983 1.28074
H -4.34507 -5.39518 4.57381
H -4.62044 -7.59319 5.49305
H -5.18158 -7.80596 3.78075
H -2.91993 -8.99389 5.21217
H -3.17141 -9.19673 3.41994
H -1.00793 -7.83913 4.25226
H -3.38511 -2.66383 0.26266
H -1.75706 -3.16083 -0.33958
H -2.51074 -10.82695 1.18141
H -1.74941 -12.44861 0.95488
H -1.34919 -11.08314 -0.17652
H 1.38406 -7.3514 -0.81266
H 2.65656 -6.1888 -0.38357
H 1.36502 -5.22012 1.46061
H 0.58769 -5.04971 -0.144
$end

$opt
CONSTRAINT
tors           1           2           3           4    -150.479
tors           3           4           5           6    -109.968
tors           4           5           6           7    -179.356
tors           5           6           7           8    +132.801
tors           6           7           8           9     -74.975
tors           7           8           9          10     +89.318
tors           8           9          10          11    +179.743
tors           9          10          11          12    -173.376
tors          11          12          13          14    +105.466
ENDCONSTRAINT
$end

$rem
JOBTYPE                   OPT
METHOD                    B3LYP
DFT_D                     d3_op
BASIS                     STO-3G
GEOM_OPT_MAX_CYCLES       100
GEOM_OPT_TOL_GRADIENT     300
GEOM_OPT_TOL_DISPLACEMENT 1200
GEOM_OPT_TOL_ENERGY       100
SYMMETRY                  False
THRESH                    12
SCF_CONVERGENCE           8
MAX_SUB_FILE_NUM          128
MEM_STATIC                400
MEM_TOTAL                 4000
$end
--------------------------------------------------------------

   15   -1510.1544194849      5.96E-09 Convergence criterion met
 Total energy in the final basis set = -1510.15441948
   14   -1510.2240456785      6.09E-09 Convergence criterion met
 Total energy in the final basis set = -1510.22404568
   14   -1510.2608284002      5.85E-09 Convergence criterion met
 Total energy in the final basis set = -1510.26082840
   14   -1510.2766552997      6.29E-09 Convergence criterion met
 Total energy in the final basis set = -1510.27665530
   14   -1510.2829299186      3.39E-09 Convergence criterion met
 Total energy in the final basis set = -1510.28292992
   13   -1510.2857443188      4.45E-09 Convergence criterion met
 Total energy in the final basis set = -1510.28574432
   13   -1510.2864593841      4.69E-09 Convergence criterion met
 Total energy in the final basis set = -1510.28645938
   13   -1510.2869901694      9.82E-09 Convergence criterion met
   11   -1510.2887224399      3.97E-09 Convergence criterion met
 Total energy in the final basis set = -1510.28872244
    9   -1510.2887313021      9.10E-09 Convergence criterion met
 Total energy in the final basis set = -1510.28873130
   11   -1510.2887393637      2.11E-09 Convergence criterion met
 Total energy in the final basis set = -1510.28873936
   10   -1510.2887405159      7.06E-09 Convergence criterion met
 Total energy in the final basis set = -1510.28874052
    9   -1510.2887346420      6.98E-09 Convergence criterion met
 Total energy in the final basis set = -1510.28873464
    9   -1510.2887420594      1.99E-09 Convergence criterion met
 Total energy in the final basis set = -1510.28874206

             Standard Nuclear Orientation (Angstroms)
    I     Atom           X                Y                Z
 ----------------------------------------------------------------
    1      O      -5.8443134634     0.2277603769    -0.0022724821
    2      C      -4.6418136956     0.2527989655    -0.3399628660
    3      C      -3.6648990968    -0.9728774011    -0.4240225395
    4      C      -2.1308994040    -0.6622345010    -0.1605956347
    5      C      -1.8335712636     0.8193999383     0.2563286449
    6      O      -1.1449801375     1.4682829807    -0.8280486480
    7      C      -0.8384256792     2.8673680746    -0.4522936636
    8      C       0.6572132559     3.1751507129    -0.8038945512
    9      O       1.5564713225     2.5270016469     0.1838898650
   10      C       1.8875699312     1.2045987815    -0.2481347376
   11      C       2.8397302129     0.5489898716     0.8066878335
   12      C       3.3945842953    -0.8555329133     0.3324616556
   13      C       2.8437412532    -1.3439974077    -1.0597512334
   14      O       3.4629493209    -1.3579218324    -2.1447785104
   15      O      -3.9668821409     1.4273772254    -0.8032153583
   16      O       1.5631905811    -1.9685379403    -0.8542419365
   17      O       1.5321662203     0.7114093360    -1.3429683534
   18      C       1.0140770774    -2.3789298211    -2.1654829569
   19      C       4.1896600567     1.3784044037     0.9375657506
   20      C       4.9637461477     0.8799889042     2.2209362765
   21      C       5.5262457874    -0.5016512515     1.7193682799
   22      C       4.9486270739    -0.5495270727     0.2506923955
   23      O       5.0012078653     0.8655062185    -0.1881015785
   24      H       2.3109297557     0.4828230195     1.7749481525
   25      H       3.1672705897    -1.6345709577     1.0820851783
   26      H       4.0516523202     2.4742965482     0.8593536584
   27      H       5.7754789894     1.5794172005     2.4768386884
   28      H       4.2976136753     0.7782445889     3.0925343100
   29      H       6.6277112818    -0.5064005961     1.7010786283
   30      H       5.1786704193    -1.3499069782     2.3302307194
   31      H       5.4975042696    -1.1924955783    -0.4641722816
   32      O      -2.0482292267     1.3529947816     1.3674209184
   33      C      -4.8513926261     2.6092607513    -0.6932912243
   34      C      -3.9721336599    -2.0275076182     0.7205899530
   35      C      -3.3445551820    -3.4130938158     0.3029761553
   36      C      -1.8137000280    -3.1289624924     0.5323022177
   37      C      -1.8502505599    -1.6416680734     1.0608206310
   38      O      -3.1099557935    -1.5795341224     1.8387408140
   39      H      -3.7960014215    -1.4270229562    -1.4245503896
   40      H      -1.5142295906    -0.9031397829    -1.0439102309
   41      H      -5.1167841190     2.8185033893     0.3630616176
   42      H      -5.0357267792    -2.0510501005     1.0291690567
   43      H      -3.7100309113    -4.2154581970     0.9635043356
   44      H      -3.5777347523    -3.6804193990    -0.7400868160
   45      H      -1.3868960341    -3.7968102512     1.2970457840
   46      H      -1.2194705124    -3.2250249284    -0.3890180860
   47      H      -0.9903995538    -1.3462065354     1.6923216548
   48      H      -5.7861593906     2.4729680501    -1.2744202653
   49      H      -4.2764378649     3.4584086123    -1.1058890210
   50      H       0.1001263899    -2.9633643522    -1.9542461044
   51      H       1.7317770414    -3.0051644853    -2.7334179277
   52      H       0.7534786476    -1.4936548349    -2.7816943675
   53      H       0.8858869540     2.8148323566    -1.8293468241
   54      H       0.8461261933     4.2652608866    -0.7276809507
   55      H      -1.0362702309     2.9942314401     0.6351871570
   56      H      -1.5018499025     3.5497001317    -1.0276371317
 ----------------------------------------------------------------

    8   -1510.2887420613      8.53E-09 Convergence criterion met
 Total energy in the final basis set = -1510.28874206
 Final energy is   -1510.28874206132
 **  OPTIMIZATION CONVERGED  **

                    Orbital Energies (a.u.)
 --------------------------------------------------------------

 Alpha MOs
 -- Occupied --
-18.943 -18.941 -18.927 -18.918 -18.888 -18.886 -18.886 -18.881
-18.867 -18.858 -10.106 -10.104 -10.097 -10.089 -10.077 -10.070
-10.067 -10.060 -10.058 -10.058 -10.056 -10.055 -10.040 -10.040
-10.036 -10.032 -10.020 -10.020 -10.019 -10.018  -1.022  -1.018
 -1.004  -0.996  -0.969  -0.969  -0.945  -0.942  -0.931  -0.922
 -0.763  -0.762  -0.728  -0.722  -0.714  -0.704  -0.696  -0.667
 -0.655  -0.619  -0.598  -0.578  -0.546  -0.543  -0.537  -0.536
 -0.511  -0.510  -0.488  -0.476  -0.461  -0.455  -0.452  -0.449
 -0.433  -0.430  -0.426  -0.416  -0.415  -0.414  -0.404  -0.403
 -0.399  -0.384  -0.374  -0.364  -0.362  -0.354  -0.353  -0.349
 -0.344  -0.339  -0.333  -0.332  -0.329  -0.326  -0.324  -0.312
 -0.310  -0.305  -0.305  -0.300  -0.297  -0.289  -0.275  -0.273
 -0.272  -0.256  -0.252  -0.245  -0.244  -0.234  -0.233  -0.192
 -0.182  -0.167  -0.162  -0.161  -0.157  -0.149  -0.144  -0.143
 -0.140

          Ground-State Mulliken Net Atomic Charges

     Atom                 Charge (a.u.)
  ----------------------------------------
      1 O                    -0.210014
      2 C                     0.213417
      3 C                    -0.078466
      4 C                    -0.079165
      5 C                     0.216028
      6 O                    -0.170903
      7 C                    -0.056894
      8 C                    -0.051105
      9 O                    -0.171672
     10 C                     0.215027
     11 C                    -0.078238
     12 C                    -0.081930
     13 C                     0.215774
     14 O                    -0.218788
     15 O                    -0.167969
     16 O                    -0.177515
     17 O                    -0.202194
     18 C                    -0.129032
     19 C                     0.024769
     20 C                    -0.143882
     21 C                    -0.144110
     22 C                     0.024989
     23 O                    -0.189473
     24 H                     0.086855
     25 H                     0.083036
     26 H                     0.086825
     27 H                     0.078239
     28 H                     0.073831
     29 H                     0.078029
     30 H                     0.073237
     31 H                     0.089060
     32 O                    -0.221288
     33 C                    -0.126954
     34 C                     0.023988
     35 C                    -0.143925
     36 C                    -0.143367
     37 C                     0.027427
     38 O                    -0.187734
     39 H                     0.085414
     40 H                     0.090101
     41 H                     0.093423
     42 H                     0.089831
     43 H                     0.078261
     44 H                     0.072499
     45 H                     0.078438
     46 H                     0.073374
     47 H                     0.084354
     48 H                     0.091975
     49 H                     0.090000
     50 H                     0.079157
     51 H                     0.089006
     52 H                     0.091831
     53 H                     0.102153
     54 H                     0.090353
     55 H                     0.103283
     56 H                     0.080626
  ----------------------------------------
  Sum of atomic charges =    -0.000000

                    Cartesian Multipole Moments
 -----------------------------------------------------------------
    Charge (ESU x 10^10)
                -0.0000
    Dipole Moment (Debye)
         X      -0.2591      Y       0.3535      Z      -0.0071
       Tot       0.4383
    Quadrupole Moments (Debye-Ang)
        XX    -170.0759     XY      -3.1655     YY    -143.8482
        XZ      20.3165     YZ      -1.6348     ZZ    -165.1508

 Total job time:  59.64s(wall), 2841.92s(cpu)
        *  Thank you very much for using Q-Chem.  Have a nice day.  *
