 Q-Chem 5.0, Q-Chem, Inc., Pleasanton, CA (2017)
 Q-Chem 5.0.1 for Intel X86 EM64T Linux

User input:
--------------------------------------------------------------
$molecule
0  1
O -3.94934 -3.66094 2.70899
C -3.26408 -4.56952 2.26188
C -3.36658 -6.02376 2.66595
C -2.08479 -6.86856 2.58126
C -0.80516 -6.12345 2.2723
O -0.37688 -6.43863 1.01427
C 0.96447 -6.01243 0.75278
C 1.74474 -7.12626 0.06233
O 2.06985 -8.15582 1.00953
C 1.07348 -9.03521 1.27985
C 1.47854 -10.09516 2.27638
C 0.50092 -11.27275 2.40219
C -0.52269 -11.40325 1.29228
O -0.58371 -12.32266 0.48884
O -2.54609 -4.31712 1.13464
O -1.62291 -10.60884 1.4195
O 0.01263 -8.97793 0.68167
C -2.72746 -10.66156 0.59428
C 2.77143 -10.84994 1.88796
C 3.42045 -11.42272 3.14612
C 2.432 -12.51416 3.49883
C 1.50144 -12.44144 2.28137
O 2.33253 -12.01216 1.23249
H 1.65342 -9.57055 3.24278
H -0.04665 -11.29118 3.37032
H 3.50769 -10.22902 1.33327
H 4.37532 -11.89796 2.82473
H 3.63262 -10.69463 3.95835
H 2.97765 -13.48316 3.53289
H 1.86796 -12.35772 4.44388
H 0.99397 -13.42006 2.13207
O -0.33126 -5.24218 2.98121
C -2.39722 -3.07112 0.56241
C -3.68023 -6.19007 4.17045
C -4.30769 -7.56126 4.42597
C -3.10199 -8.46143 4.25489
C -2.00857 -7.41745 4.01278
O -2.41945 -6.31465 4.78349
H -4.20287 -6.4536 2.07047
H -2.20751 -7.68351 1.83163
H -1.90854 -2.37829 1.28044
H -4.34277 -5.39406 4.57467
H -4.6201 -7.59171 5.49446
H -5.17958 -7.80482 3.7815
H -2.91727 -8.98973 5.21671
H -3.17199 -9.19869 3.42691
H -1.00678 -7.83972 4.25082
H -3.38661 -2.6656 0.26129
H -1.75725 -3.16014 -0.33928
H -3.46459 -9.90082 0.92349
H -3.20033 -11.66518 0.64967
H -2.43131 -10.44183 -0.45365
H 1.2482 -7.51446 -0.85576
H 2.70803 -6.67843 -0.26278
H 1.54216 -5.65932 1.63825
H 0.90127 -5.16906 0.03192
$end

$opt
CONSTRAINT
tors           1           2           3           4    -150.479
tors           3           4           5           6    -109.968
tors           4           5           6           7    -167.136
tors           5           6           7           8    +135.009
tors           6           7           8           9     -74.273
tors           7           8           9          10     +80.571
tors           8           9          10          11    +179.743
tors           9          10          11          12    -168.050
tors          11          12          13          14    +114.309
ENDCONSTRAINT
$end

$rem
JOBTYPE                   OPT
METHOD                    B3LYP
DFT_D                     d3_op
BASIS                     STO-3G
GEOM_OPT_MAX_CYCLES       100
GEOM_OPT_TOL_GRADIENT     300
GEOM_OPT_TOL_DISPLACEMENT 1200
GEOM_OPT_TOL_ENERGY       100
SYMMETRY                  False
THRESH                    12
SCF_CONVERGENCE           8
MAX_SUB_FILE_NUM          128
MEM_STATIC                400
MEM_TOTAL                 4000
$end
--------------------------------------------------------------

   15   -1510.1500008802      5.90E-09 Convergence criterion met
 Total energy in the final basis set = -1510.15000088
   14   -1510.2202921394      6.13E-09 Convergence criterion met
 Total energy in the final basis set = -1510.22029214
   14   -1510.2568676805      6.80E-09 Convergence criterion met
 Total energy in the final basis set = -1510.25686768
   14   -1510.2720587906      7.99E-09 Convergence criterion met
 Total energy in the final basis set = -1510.27205879
   14   -1510.2779098653      6.61E-09 Convergence criterion met
 Total energy in the final basis set = -1510.27790987
   14   -1510.2810190946      3.96E-09 Convergence criterion met
 Total energy in the final basis set = -1510.28101909
   13   -1510.2833261824      7.98E-09 Convergence criterion met
 Total energy in the final basis set = -1510.28332618
   13   -1510.2846493629      8.75E-09 Convergence criterion met
   12   -1510.2871363895      2.68E-09 Convergence criterion met
 Total energy in the final basis set = -1510.28713639
   12   -1510.2872286992      2.56E-09 Convergence criterion met
 Total energy in the final basis set = -1510.28722870
   11   -1510.2872573153      4.37E-09 Convergence criterion met
 Total energy in the final basis set = -1510.28725732
   10   -1510.2872790641      9.51E-09 Convergence criterion met
 Total energy in the final basis set = -1510.28727906
    9   -1510.2872850563      9.65E-09 Convergence criterion met
 Total energy in the final basis set = -1510.28728506
    9   -1510.2872870354      9.61E-09 Convergence criterion met
 Total energy in the final basis set = -1510.28728704

             Standard Nuclear Orientation (Angstroms)
    I     Atom           X                Y                Z
 ----------------------------------------------------------------
    1      O      -5.6382946039    -0.3225625921    -0.2316582396
    2      C      -4.4351494331    -0.0593306345    -0.4401399566
    3      C      -3.2309953658    -1.0656319034    -0.4349960498
    4      C      -1.8409013711    -0.4468833543    -0.0074271343
    5      C      -1.8043866166     1.0785862559     0.3331204755
    6      O      -1.0752085692     1.7549594576    -0.7136359421
    7      C      -0.7599274151     3.1271113236    -0.2683379570
    8      C       0.7412169102     3.4253385918    -0.6275280812
    9      O       1.6264397964     2.6886073381     0.3184908684
   10      C       1.7275474579     1.3259192776    -0.1213180044
   11      C       2.6498292034     0.4911760938     0.8238148469
   12      C       3.0063766592    -0.9128855543     0.1817034688
   13      C       2.3416754354    -1.2296373955    -1.2160665937
   14      O       2.9601269263    -1.3644346928    -2.2939708321
   15      O      -3.9551247212     1.2357645015    -0.8203705706
   16      O       0.9834512632    -1.7067984176    -1.0438546993
   17      O       1.3063082213     0.9177161340    -1.2311013114
   18      C       0.4409749453    -2.0839088534    -2.3698549252
   19      C       4.0945173187     1.1418711300     0.9480443555
   20      C       4.8655282448     0.4229351194     2.1241379978
   21      C       5.2341020021    -0.9525138961     1.4531319247
   22      C       4.5789402797    -0.7794351880     0.0279579842
   23      O       4.7791919234     0.6587360764    -0.2714231880
   24      H       2.1676072077     0.3839234402     1.8127565610
   25      H       2.7317959388    -1.7303146285     0.8730416924
   26      H       4.0887089852     2.2485889900     0.9858784392
   27      H       5.7664499957     0.9950581579     2.3972703836
   28      H       4.2369933331     0.3059126970     3.0216000641
   29      H       6.3248612093    -1.0774686558     1.3626666203
   30      H       4.8227043736    -1.8172669024     1.9978299254
   31      H       5.0028882705    -1.4026912581    -0.7830176271
   32      O      -2.1618044810     1.6306460374     1.3974117812
   33      C      -5.0543406889     2.2262317528    -0.7874322937
   34      C      -3.4210816161    -2.1868792709     0.6659558724
   35      C      -2.3781285149    -3.3456324607     0.3884529064
   36      C      -1.0484492820    -2.7052444074     0.9356929215
   37      C      -1.5599715519    -1.2726596266     1.3355384485
   38      O      -2.9104679703    -1.5252150066     1.8872897039
   39      H      -3.1633178429    -1.5047013081    -1.4487537808
   40      H      -1.0554359246    -0.6406001048    -0.7575681471
   41      H      -5.4697239364     2.3354594108     0.2350717397
   42      H      -4.4731392693    -2.5060682179     0.8011268910
   43      H      -2.6518909034    -4.2536675191     0.9487438122
   44      H      -2.3232913656    -3.5981546988    -0.6828042043
   45      H      -0.6857803319    -3.2419620839     1.8265340662
   46      H      -0.2314761326    -2.6336840690     0.1945238829
   47      H      -0.9373232912    -0.7324934626     2.0743067345
   48      H      -5.8760277715     1.9435051039    -1.4766496572
   49      H      -4.6095945306     3.1851006899    -1.1110413308
   50      H      -0.5355822328    -2.5656642190    -2.1811478661
   51      H       1.1109284072    -2.7921217711    -2.8976392611
   52      H       0.2948370234    -1.1907220797    -3.0111587631
   53      H       0.9506803725     3.1250468192    -1.6756514599
   54      H       0.9662174848     4.5006128066    -0.4800297946
   55      H      -0.9446443469     3.2086957803     0.8252286478
   56      H      -1.4173432428     3.8536825128    -0.7954014040
 ----------------------------------------------------------------

    9   -1510.2872876213      7.33E-09 Convergence criterion met
 Total energy in the final basis set = -1510.28728762
 Final energy is   -1510.28728762127
 **  OPTIMIZATION CONVERGED  **

                    Orbital Energies (a.u.)
 --------------------------------------------------------------

 Alpha MOs
 -- Occupied --
-18.947 -18.941 -18.925 -18.925 -18.893 -18.889 -18.880 -18.878
-18.864 -18.864 -10.110 -10.101 -10.096 -10.093 -10.079 -10.067
-10.067 -10.064 -10.059 -10.059 -10.054 -10.050 -10.045 -10.038
-10.037 -10.027 -10.023 -10.022 -10.014 -10.003  -1.025  -1.015
 -1.003  -1.001  -0.973  -0.964  -0.947  -0.939  -0.929  -0.927
 -0.766  -0.758  -0.728  -0.719  -0.714  -0.704  -0.694  -0.663
 -0.659  -0.619  -0.598  -0.578  -0.547  -0.541  -0.540  -0.531
 -0.513  -0.508  -0.490  -0.475  -0.465  -0.459  -0.452  -0.445
 -0.435  -0.429  -0.425  -0.416  -0.413  -0.413  -0.406  -0.404
 -0.396  -0.383  -0.375  -0.366  -0.364  -0.358  -0.351  -0.348
 -0.344  -0.338  -0.336  -0.334  -0.327  -0.324  -0.323  -0.315
 -0.308  -0.305  -0.302  -0.299  -0.294  -0.287  -0.280  -0.277
 -0.266  -0.261  -0.249  -0.247  -0.245  -0.237  -0.227  -0.196
 -0.179  -0.173  -0.166  -0.159  -0.154  -0.148  -0.146  -0.144
 -0.138

          Ground-State Mulliken Net Atomic Charges

     Atom                 Charge (a.u.)
  ----------------------------------------
      1 O                    -0.210278
      2 C                     0.213951
      3 C                    -0.077659
      4 C                    -0.085748
      5 C                     0.214632
      6 O                    -0.171126
      7 C                    -0.056932
      8 C                    -0.050845
      9 O                    -0.166933
     10 C                     0.212815
     11 C                    -0.078666
     12 C                    -0.080855
     13 C                     0.218085
     14 O                    -0.218373
     15 O                    -0.167286
     16 O                    -0.178517
     17 O                    -0.195661
     18 C                    -0.129902
     19 C                     0.024690
     20 C                    -0.143769
     21 C                    -0.144058
     22 C                     0.024726
     23 O                    -0.189396
     24 H                     0.086285
     25 H                     0.083716
     26 H                     0.088212
     27 H                     0.078973
     28 H                     0.074027
     29 H                     0.078895
     30 H                     0.073659
     31 H                     0.091441
     32 O                    -0.223314
     33 C                    -0.126600
     34 C                     0.024178
     35 C                    -0.144801
     36 C                    -0.155879
     37 C                     0.026391
     38 O                    -0.190694
     39 H                     0.083597
     40 H                     0.097453
     41 H                     0.093379
     42 H                     0.087889
     43 H                     0.076065
     44 H                     0.068116
     45 H                     0.070719
     46 H                     0.092432
     47 H                     0.078533
     48 H                     0.091027
     49 H                     0.090815
     50 H                     0.083026
     51 H                     0.090710
     52 H                     0.092246
     53 H                     0.102228
     54 H                     0.091713
     55 H                     0.101810
     56 H                     0.080860
  ----------------------------------------
  Sum of atomic charges =    -0.000000

                    Cartesian Multipole Moments
 -----------------------------------------------------------------
    Charge (ESU x 10^10)
                -0.0000
    Dipole Moment (Debye)
         X       0.8901      Y       0.5981      Z       0.0372
       Tot       1.0730
    Quadrupole Moments (Debye-Ang)
        XX    -170.1838     XY      -5.6092     YY    -145.4974
        XZ      19.0494     YZ      -1.4584     ZZ    -164.8583

 Total job time:  62.49s(wall), 2975.01s(cpu)
        *  Thank you very much for using Q-Chem.  Have a nice day.  *
