 Q-Chem 5.0, Q-Chem, Inc., Pleasanton, CA (2017)
 Q-Chem 5.0.1 for Intel X86 EM64T Linux

User input:
--------------------------------------------------------------
$molecule
0  1
O -5.6382946039 -0.3225625921 -0.2316582396
C -4.4351494331 -0.0593306345 -0.4401399566
C -3.2309953658 -1.0656319034 -0.4349960498
C -1.8409013711 -0.4468833543 -0.0074271343
C -1.8043866166 1.0785862559 0.3331204755
O -1.0752085692 1.7549594576 -0.7136359421
C -0.7599274151 3.1271113236 -0.268337957
C 0.7412169102 3.4253385918 -0.6275280812
O 1.6264397964 2.6886073381 0.3184908684
C 1.7275474579 1.3259192776 -0.1213180044
C 2.6498292034 0.4911760938 0.8238148469
C 3.0063766592 -0.9128855543 0.1817034688
C 2.3416754354 -1.2296373955 -1.2160665937
O 2.9601269263 -1.3644346928 -2.2939708321
O -3.9551247212 1.2357645015 -0.8203705706
O 0.9834512632 -1.7067984176 -1.0438546993
O 1.3063082213 0.917716134 -1.2311013114
C 0.4409749453 -2.0839088534 -2.3698549252
C 4.0945173187 1.14187113 0.9480443555
C 4.8655282448 0.4229351194 2.1241379978
C 5.2341020021 -0.9525138961 1.4531319247
C 4.5789402797 -0.779435188 0.0279579842
O 4.7791919234 0.6587360764 -0.271423188
H 2.1676072077 0.3839234402 1.812756561
H 2.7317959388 -1.7303146285 0.8730416924
H 4.0887089852 2.24858899 0.9858784392
H 5.7664499957 0.9950581579 2.3972703836
H 4.2369933331 0.305912697 3.0216000641
H 6.3248612093 -1.0774686558 1.3626666203
H 4.8227043736 -1.8172669024 1.9978299254
H 5.0028882705 -1.4026912581 -0.7830176271
O -2.161804481 1.6306460374 1.3974117812
C -5.0543406889 2.2262317528 -0.7874322937
C -3.4210816161 -2.1868792709 0.6659558724
C -2.3781285149 -3.3456324607 0.3884529064
C -1.048449282 -2.7052444074 0.9356929215
C -1.5599715519 -1.2726596266 1.3355384485
O -2.9104679703 -1.5252150066 1.8872897039
H -3.1633178429 -1.5047013081 -1.4487537808
H -1.0554359246 -0.6406001048 -0.7575681471
H -5.4697239364 2.3354594108 0.2350717397
H -4.4731392693 -2.5060682179 0.801126891
H -2.6518909034 -4.2536675191 0.9487438122
H -2.3232913656 -3.5981546988 -0.6828042043
H -0.6857803319 -3.2419620839 1.8265340662
H -0.2314761326 -2.633684069 0.1945238829
H -0.9373232912 -0.7324934626 2.0743067345
H -5.8760277715 1.9435051039 -1.4766496572
H -4.6095945306 3.1851006899 -1.1110413308
H -0.5355822328 -2.565664219 -2.1811478661
H 1.1109284072 -2.7921217711 -2.8976392611
H 0.2948370234 -1.1907220797 -3.0111587631
H 0.9506803725 3.1250468192 -1.6756514599
H 0.9662174848 4.5006128066 -0.4800297946
H -0.9446443469 3.2086957803 0.8252286478
H -1.4173432428 3.8536825128 -0.795401404
$end

$rem
JOBTYPE                   OPT
METHOD                    B3LYP
DFT_D                     d3_op
BASIS                     STO-3G
GEOM_OPT_MAX_CYCLES       100
GEOM_OPT_TOL_GRADIENT     300
GEOM_OPT_TOL_DISPLACEMENT 1200
GEOM_OPT_TOL_ENERGY       100
SYMMETRY                  False
THRESH                    12
SCF_CONVERGENCE           8
MAX_SUB_FILE_NUM          128
MEM_STATIC                400
MEM_TOTAL                 4000
$end
--------------------------------------------------------------

   16   -1510.2872956624      5.57E-09 Convergence criterion met
 Total energy in the final basis set = -1510.28729566
   14   -1510.2867363844      7.56E-09 Convergence criterion met
 Total energy in the final basis set = -1510.28673638
   15   -1510.2885720749      2.29E-09 Convergence criterion met
 Total energy in the final basis set = -1510.28857207
   15   -1510.2897916013      2.50E-09 Convergence criterion met
 Total energy in the final basis set = -1510.28979160
   15   -1510.2872252281      3.23E-09 Convergence criterion met
 Total energy in the final basis set = -1510.28722523
   13   -1510.2889619179      5.04E-09 Convergence criterion met
 Total energy in the final basis set = -1510.28896192
   13   -1510.2912662677      4.30E-09 Convergence criterion met
 Total energy in the final basis set = -1510.29126627
   14   -1510.2946043899      6.34E-09 Convergence criterion met
   12   -1510.2988750909      6.55E-09 Convergence criterion met
 Total energy in the final basis set = -1510.29887509
   12   -1510.2989158941      3.05E-09 Convergence criterion met
 Total energy in the final basis set = -1510.29891589
   12   -1510.2988852748      2.71E-09 Convergence criterion met
 Total energy in the final basis set = -1510.29888527
   11   -1510.2989304810      7.54E-09 Convergence criterion met
 Total energy in the final basis set = -1510.29893048
   11   -1510.2989132247      6.68E-09 Convergence criterion met
 Total energy in the final basis set = -1510.29891322
   10   -1510.2989278288      9.18E-09 Convergence criterion met
 Total energy in the final basis set = -1510.29892783

             Standard Nuclear Orientation (Angstroms)
    I     Atom           X                Y                Z
 ----------------------------------------------------------------
    1      O      -5.0998458582    -0.2484528892     0.7499949767
    2      C      -4.0613262571    -0.0624240785     0.0814228480
    3      C      -2.8738157214    -1.0683330062    -0.1318197258
    4      C      -1.4377742822    -0.4468683393     0.1370414192
    5      C      -1.4445566767     1.0893922153     0.4258881164
    6      O      -1.0405636153     1.7583947322    -0.7844220050
    7      C      -0.8806571737     3.2090440684    -0.5424266162
    8      C       0.6510809015     3.5519058772    -0.6497614944
    9      O       1.4053256026     2.6479291556     0.2527273159
   10      C       1.7490577975     1.4412924517    -0.4321918938
   11      C       2.3404038671     0.4313203134     0.6039712932
   12      C       2.6159176351    -0.9899571611    -0.0333747436
   13      C       2.2049021987    -1.1292169472    -1.5464728980
   14      O       2.9647292091    -1.1773868632    -2.5346620749
   15      O      -3.7766519245     1.1439301119    -0.6366224349
   16      O       0.7855295964    -1.4047153139    -1.6182344830
   17      O       1.6299746347     1.2550065499    -1.6652601530
   18      C       0.3657265928    -1.5209287592    -3.0321400724
   19      C       3.8088301850     0.8515583668     1.0478826818
   20      C       4.2138516873    -0.0079708006     2.3098291454
   21      C       4.5074478435    -1.4047022042     1.6458717066
   22      C       4.1900267921    -1.0934759692     0.1321357596
   23      O       4.6507731681     0.3050421657    -0.0387570960
   24      H       1.6591500833     0.3758831753     1.4715223612
   25      H       2.0941564342    -1.7760954560     0.5392312584
   26      H       3.9560081073     1.9442933524     1.1510486299
   27      H       5.1138607924     0.4114496998     2.7868928643
   28      H       3.4059525286    -0.0531320080     3.0578717292
   29      H       5.5631483108    -1.6949058992     1.7671247960
   30      H       3.8708131181    -2.2093819035     2.0470822705
   31      H       4.6795214606    -1.7518212600    -0.6112690029
   32      O      -1.6924282202     1.6791640481     1.5002764949
   33      C      -4.8318532098     2.1512085378    -0.3842767690
   34      C      -2.9336712695    -2.2002412929     0.9748661157
   35      C      -1.9658412294    -3.3744808932     0.5560283775
   36      C      -0.5607537277    -2.7275087726     0.8439951769
   37      C      -0.9887396319    -1.3080128916     1.3943096229
   38      O      -2.2465114749    -1.5720161754     2.1265493202
   39      H      -2.9402347369    -1.4806802358    -1.1558704886
   40      H      -0.7395590715    -0.6315988633    -0.7052247353
   41      H      -4.8425358610     2.4637378690     0.6801306236
   42      H      -3.9647062635    -2.4943949881     1.2526622812
   43      H      -2.1427711059    -4.2617240536     1.1847811045
   44      H      -2.0935888405    -3.6597212182    -0.5005755299
   45      H      -0.0009313537    -3.2933921234     1.6052076365
   46      H       0.0500075493    -2.6250711199    -0.0701218451
   47      H      -0.2549784219    -0.8107269191     2.0572252983
   48      H      -5.8371183413     1.7661804189    -0.6504766375
   49      H      -4.5837364908     3.0192783825    -1.0221392542
   50      H      -0.6923774796    -1.8410374541    -3.0145403767
   51      H       0.9759778810    -2.2685306688    -3.5778048079
   52      H       0.4495010077    -0.5442681977    -3.5513005158
   53      H       0.9996539746     3.4206766156    -1.6959405923
   54      H       0.8453158148     4.5878844037    -0.3063726591
   55      H      -1.2644105988     3.4404690942     0.4753076746
   56      H      -1.4559962013     3.7660942570    -1.3106481848
 ----------------------------------------------------------------

    8   -1510.2989272007      7.51E-09 Convergence criterion met
 Total energy in the final basis set = -1510.29892720
 Final energy is   -1510.29892720073
 **  OPTIMIZATION CONVERGED  **

                    Orbital Energies (a.u.)
 --------------------------------------------------------------

 Alpha MOs
 -- Occupied --
-18.943 -18.937 -18.935 -18.927 -18.890 -18.889 -18.881 -18.878
-18.874 -18.871 -10.110 -10.101 -10.099 -10.095 -10.077 -10.068
-10.066 -10.064 -10.064 -10.060 -10.053 -10.053 -10.044 -10.039
-10.035 -10.023 -10.022 -10.022 -10.015 -10.009  -1.025  -1.014
 -1.008  -1.003  -0.973  -0.965  -0.948  -0.937  -0.935  -0.932
 -0.768  -0.758  -0.729  -0.721  -0.714  -0.704  -0.696  -0.663
 -0.662  -0.620  -0.600  -0.577  -0.549  -0.542  -0.540  -0.534
 -0.515  -0.506  -0.490  -0.475  -0.469  -0.461  -0.453  -0.446
 -0.435  -0.427  -0.425  -0.419  -0.416  -0.413  -0.410  -0.405
 -0.399  -0.381  -0.375  -0.369  -0.363  -0.359  -0.350  -0.349
 -0.345  -0.341  -0.340  -0.336  -0.329  -0.327  -0.324  -0.315
 -0.309  -0.306  -0.303  -0.301  -0.295  -0.285  -0.282  -0.277
 -0.269  -0.257  -0.253  -0.248  -0.243  -0.237  -0.227  -0.193
 -0.179  -0.178  -0.167  -0.161  -0.158  -0.153  -0.148  -0.147
 -0.139

          Ground-State Mulliken Net Atomic Charges

     Atom                 Charge (a.u.)
  ----------------------------------------
      1 O                    -0.208935
      2 C                     0.211635
      3 C                    -0.077954
      4 C                    -0.092859
      5 C                     0.210415
      6 O                    -0.172823
      7 C                    -0.056845
      8 C                    -0.051522
      9 O                    -0.171569
     10 C                     0.216628
     11 C                    -0.078780
     12 C                    -0.082811
     13 C                     0.220671
     14 O                    -0.209147
     15 O                    -0.169987
     16 O                    -0.178167
     17 O                    -0.203421
     18 C                    -0.127826
     19 C                     0.025686
     20 C                    -0.143664
     21 C                    -0.144073
     22 C                     0.025293
     23 O                    -0.188040
     24 H                     0.086972
     25 H                     0.085609
     26 H                     0.086522
     27 H                     0.079250
     28 H                     0.074895
     29 H                     0.078957
     30 H                     0.073598
     31 H                     0.089564
     32 O                    -0.218651
     33 C                    -0.128388
     34 C                     0.024073
     35 C                    -0.144266
     36 C                    -0.152759
     37 C                     0.024208
     38 O                    -0.190090
     39 H                     0.082662
     40 H                     0.106313
     41 H                     0.092115
     42 H                     0.088972
     43 H                     0.076225
     44 H                     0.070776
     45 H                     0.069948
     46 H                     0.085688
     47 H                     0.075802
     48 H                     0.090988
     49 H                     0.089248
     50 H                     0.086082
     51 H                     0.090986
     52 H                     0.096430
     53 H                     0.098935
     54 H                     0.090861
     55 H                     0.101261
     56 H                     0.085308
  ----------------------------------------
  Sum of atomic charges =    -0.000000

                    Cartesian Multipole Moments
 -----------------------------------------------------------------
    Charge (ESU x 10^10)
                -0.0000
    Dipole Moment (Debye)
         X      -0.0699      Y       0.3077      Z      -0.7030
       Tot       0.7706
    Quadrupole Moments (Debye-Ang)
        XX    -169.8357     XY      -5.6483     YY    -144.4773
        XZ      19.7985     YZ      -0.8895     ZZ    -166.7790

 Total job time:  89.58s(wall), 4273.59s(cpu)
        *  Thank you very much for using Q-Chem.  Have a nice day.  *
