 Q-Chem 5.0, Q-Chem, Inc., Pleasanton, CA (2017)
 Q-Chem 5.0.1 for Intel X86 EM64T Linux

User input:
--------------------------------------------------------------
$molecule
0  1
O -5.6560044909 -0.1369745984 0.3772140437
C -4.5473365114 -0.0483549728 -0.1902265022
C -3.4466941948 -1.1600377021 -0.3078985853
C -1.9583023354 -0.622271194 -0.2254600936
C -1.8537036257 0.8990190209 0.1257805674
O -1.1868416487 1.5989174638 -0.9452748112
C -0.9328248095 2.9911306495 -0.5075104082
C 0.5750718477 3.3415073528 -0.7513980523
O 1.4066986072 2.6398185144 0.2616322282
C 1.7658922493 1.3487895549 -0.2472296173
C 2.6471975798 0.5923432407 0.7978379367
C 3.1343082821 -0.8135342951 0.2581788169
C 2.6063866621 -1.2136790391 -1.173412742
O 3.3172556839 -1.3855159782 -2.1874116265
O -4.1003749564 1.1094141191 -0.9084445987
O 1.2314825956 -1.6411211505 -1.094728242
O 1.5244858959 0.9649573598 -1.4158527461
C 0.7753764337 -1.9926732497 -2.459864941
C 4.0399512022 1.3341644191 1.0011354796
C 4.753734103 0.7217931326 2.2702737887
C 5.2512106808 -0.6599974553 1.7028633887
C 4.7032044449 -0.5956914127 0.2245042448
O 4.8463906236 0.835964614 -0.1344549202
H 2.0931237273 0.5069192169 1.75016404
H 2.8460376065 -1.6169437794 0.9603058796
H 3.9689806305 2.4391146409 0.9818104823
H 5.596280086 1.359422788 2.5817256948
H 4.0621672203 0.6096958272 3.1205068376
H 6.3510454565 -0.7233225567 1.7032390791
H 4.8473909888 -1.5201679249 2.2603700718
H 5.2250434335 -1.2306662836 -0.5173486888
O -2.1746586773 1.4364442075 1.210155174
C -5.0677415634 2.2187608175 -0.7518692096
C -3.4940486371 -2.154068247 0.9256327772
C -2.7205467443 -3.4719226819 0.5312520818
C -1.2292692418 -2.9734188626 0.5954657918
C -1.4241418258 -1.465827442 1.0175732178
O -2.6011031198 -1.509511401 1.9162725111
H -3.6104650601 -1.6980542456 -1.2606198865
H -1.3891650711 -0.8169822219 -1.1492419777
H -5.1165351915 2.5618486964 0.3019735107
H -4.5093377153 -2.2932068527 1.3459906098
H -2.9129688095 -4.2672660678 1.2686289352
H -3.0063536966 -3.8398607598 -0.4673790948
H -0.6590473127 -3.5097893268 1.3704397642
H -0.6932594614 -3.070092047 -0.3599215093
H -0.5570442388 -1.0099255612 1.5333688907
H -6.0853922251 1.9211553672 -1.0766377339
H -4.6965182608 3.0402389508 -1.3917038558
H -0.2357962774 -2.425807448 -2.3551831603
H 1.4479796672 -2.7334042001 -2.9376998378
H 0.7245856367 -1.092460167 -3.1059358579
H 0.8796794553 3.0401009534 -1.7758114431
H 0.7422678147 4.426898838 -0.59845486
H -1.2061296071 3.0726572536 0.567905974
H -1.5737809315 3.6791349421 -1.1009953885
$end

$rem
JOBTYPE                   OPT
METHOD                    B3LYP
DFT_D                     d3_op
BASIS                     STO-3G
GEOM_OPT_MAX_CYCLES       100
GEOM_OPT_TOL_GRADIENT     300
GEOM_OPT_TOL_DISPLACEMENT 1200
GEOM_OPT_TOL_ENERGY       100
SYMMETRY                  False
THRESH                    12
SCF_CONVERGENCE           8
MAX_SUB_FILE_NUM          128
MEM_STATIC                400
MEM_TOTAL                 4000
$end
--------------------------------------------------------------

   16   -1510.2881861676      5.30E-09 Convergence criterion met
 Total energy in the final basis set = -1510.28818617
   14   -1510.2887219049      4.51E-09 Convergence criterion met
 Total energy in the final basis set = -1510.28872190
   14   -1510.2927874577      4.44E-09 Convergence criterion met
 Total energy in the final basis set = -1510.29278746
   15   -1510.2826051058      2.44E-09 Convergence criterion met
 Total energy in the final basis set = -1510.28260511
   15   -1510.2940073677      2.69E-09 Convergence criterion met
 Total energy in the final basis set = -1510.29400737
   15   -1510.2945005492      2.19E-09 Convergence criterion met
 Total energy in the final basis set = -1510.29450055
   13   -1510.2966686422      6.82E-09 Convergence criterion met
 Total energy in the final basis set = -1510.29666864
   13   -1510.2971556407      8.07E-09 Convergence criterion met
   11   -1510.2989470493      9.07E-09 Convergence criterion met
 Total energy in the final basis set = -1510.29894705
   11   -1510.2989516617      5.34E-09 Convergence criterion met
 Total energy in the final basis set = -1510.29895166
   11   -1510.2989445915      6.29E-09 Convergence criterion met
 Total energy in the final basis set = -1510.29894459
   11   -1510.2989541346      4.45E-09 Convergence criterion met
 Total energy in the final basis set = -1510.29895413
   10   -1510.2989521300      8.90E-09 Convergence criterion met
 Total energy in the final basis set = -1510.29895213
    9   -1510.2989541481      6.88E-09 Convergence criterion met
 Total energy in the final basis set = -1510.29895415

             Standard Nuclear Orientation (Angstroms)
    I     Atom           X                Y                Z
 ----------------------------------------------------------------
    1      O      -5.1381429551    -0.1994434150     0.6983267399
    2      C      -4.0939810294    -0.0245906837     0.0355389214
    3      C      -2.9137567791    -1.0415265099    -0.1656330583
    4      C      -1.4739470337    -0.4309033921     0.1075501100
    5      C      -1.4677672663     1.1080277166     0.3824157034
    6      O      -1.0530454856     1.7620861640    -0.8324292010
    7      C      -0.8812937331     3.2134978979    -0.6034548447
    8      C       0.6543556342     3.5407344550    -0.7014839581
    9      O       1.3912961429     2.6432585959     0.2215510754
   10      C       1.7335994662     1.4247584090    -0.4428710136
   11      C       2.3039925161     0.4248076223     0.6144986050
   12      C       2.5778828933    -1.0071593673     0.0010319020
   13      C       2.1903945442    -1.1636898924    -1.5165916294
   14      O       2.9658181321    -1.2275205544    -2.4917023121
   15      O      -3.7949995881     1.1763744866    -0.6856902255
   16      O       0.7706171698    -1.4308225829    -1.6087133117
   17      O       1.6275504741     1.2226404982    -1.6746050478
   18      C       0.3744866386    -1.5638679405    -3.0279822835
   19      C       3.7690418929     0.8410670273     1.0734068512
   20      C       4.1494947830    -0.0015860905     2.3541616895
   21      C       4.4392240875    -1.4112672160     1.7162890352
   22      C       4.1482133904    -1.1206902189     0.1931507176
   23      O       4.6228797972     0.2713722006     0.0081904998
   24      H       1.6106143422     0.3860003510     1.4733434053
   25      H       2.0409985436    -1.7814056799     0.5757717224
   26      H       3.9229188252     1.9341543655     1.1618057834
   27      H       5.0471139619     0.4175712932     2.8359431377
   28      H       3.3317688518    -0.0275662997     3.0923763958
   29      H       5.4899745984    -1.7098730549     1.8583334711
   30      H       3.7886654465    -2.2034963327     2.1200203842
   31      H       4.6441697631    -1.7942344523    -0.5321361514
   32      O      -1.7136577084     1.7096317205     1.4506741548
   33      C      -4.8430390683     2.1935764479    -0.4434317479
   34      C      -2.9897939267    -2.1654465188     0.9481391498
   35      C      -2.0281890948    -3.3500285128     0.5444960232
   36      C      -0.6201916277    -2.7125277041     0.8392784629
   37      C      -1.0410031804    -1.2854803382     1.3751033253
   38      O      -2.3060751642    -1.5340069954     2.1001581010
   39      H      -2.9780567822    -1.4597507012    -1.1873918554
   40      H      -0.7722075048    -0.6296855329    -0.7283034355
   41      H      -4.8573488050     2.5101972519     0.6197264487
   42      H      -4.0249592436    -2.4497505426     1.2207706675
   43      H      -2.2171943943    -4.2316727924     1.1775866033
   44      H      -2.1500417673    -3.6412947138    -0.5111803560
   45      H      -0.0717942246    -3.2770158949     1.6097950311
   46      H      -0.0005236861    -2.6217036501    -0.0701833960
   47      H      -0.3083596466    -0.7885060833     2.0394516675
   48      H      -5.8499322266     1.8160673505    -0.7142043034
   49      H      -4.5836833095     3.0570673251    -1.0830207176
   50      H      -0.6882292988    -1.8687824837    -3.0242769144
   51      H       0.9832411802    -2.3290137133    -3.5505665213
   52      H       0.4815131223    -0.5971742137    -3.5613081393
   53      H       1.0113572452     3.3904027178    -1.7422420301
   54      H       0.8551180354     4.5799378626    -0.3718605084
   55      H      -1.2708179571     3.4592214773     0.4087183490
   56      H      -1.4449571745     3.7679324652    -1.3821482243
 ----------------------------------------------------------------

    9   -1510.2989530857      3.81E-09 Convergence criterion met
 Total energy in the final basis set = -1510.29895309
 Final energy is   -1510.29895308568
 **  OPTIMIZATION CONVERGED  **

                    Orbital Energies (a.u.)
 --------------------------------------------------------------

 Alpha MOs
 -- Occupied --
-18.943 -18.937 -18.935 -18.927 -18.890 -18.889 -18.881 -18.878
-18.874 -18.871 -10.110 -10.101 -10.099 -10.095 -10.077 -10.068
-10.066 -10.064 -10.064 -10.060 -10.053 -10.053 -10.044 -10.039
-10.035 -10.023 -10.023 -10.022 -10.015 -10.008  -1.025  -1.014
 -1.008  -1.003  -0.973  -0.965  -0.948  -0.938  -0.935  -0.932
 -0.767  -0.758  -0.729  -0.721  -0.714  -0.704  -0.696  -0.663
 -0.662  -0.620  -0.599  -0.577  -0.549  -0.542  -0.540  -0.534
 -0.515  -0.506  -0.490  -0.475  -0.469  -0.461  -0.453  -0.446
 -0.435  -0.427  -0.425  -0.419  -0.415  -0.413  -0.410  -0.405
 -0.399  -0.381  -0.375  -0.369  -0.363  -0.359  -0.350  -0.349
 -0.345  -0.341  -0.340  -0.336  -0.329  -0.327  -0.324  -0.315
 -0.309  -0.306  -0.302  -0.301  -0.295  -0.285  -0.282  -0.277
 -0.269  -0.257  -0.253  -0.248  -0.243  -0.237  -0.227  -0.193
 -0.179  -0.178  -0.167  -0.161  -0.158  -0.153  -0.148  -0.147
 -0.139

          Ground-State Mulliken Net Atomic Charges

     Atom                 Charge (a.u.)
  ----------------------------------------
      1 O                    -0.208925
      2 C                     0.211677
      3 C                    -0.077948
      4 C                    -0.092497
      5 C                     0.210476
      6 O                    -0.172810
      7 C                    -0.056776
      8 C                    -0.051550
      9 O                    -0.171601
     10 C                     0.216525
     11 C                    -0.078803
     12 C                    -0.082818
     13 C                     0.220584
     14 O                    -0.209141
     15 O                    -0.169956
     16 O                    -0.178116
     17 O                    -0.203477
     18 C                    -0.127799
     19 C                     0.025698
     20 C                    -0.143647
     21 C                    -0.144091
     22 C                     0.025307
     23 O                    -0.188035
     24 H                     0.087017
     25 H                     0.085661
     26 H                     0.086538
     27 H                     0.079255
     28 H                     0.074926
     29 H                     0.078933
     30 H                     0.073587
     31 H                     0.089516
     32 O                    -0.218680
     33 C                    -0.128367
     34 C                     0.024066
     35 C                    -0.144309
     36 C                    -0.153032
     37 C                     0.024198
     38 O                    -0.190130
     39 H                     0.082774
     40 H                     0.105922
     41 H                     0.092148
     42 H                     0.088973
     43 H                     0.076202
     44 H                     0.070741
     45 H                     0.069828
     46 H                     0.086076
     47 H                     0.075780
     48 H                     0.091011
     49 H                     0.089269
     50 H                     0.086102
     51 H                     0.090799
     52 H                     0.096488
     53 H                     0.098992
     54 H                     0.090839
     55 H                     0.101251
     56 H                     0.085349
  ----------------------------------------
  Sum of atomic charges =    -0.000000

                    Cartesian Multipole Moments
 -----------------------------------------------------------------
    Charge (ESU x 10^10)
                -0.0000
    Dipole Moment (Debye)
         X      -0.0847      Y       0.3163      Z      -0.7139
       Tot       0.7854
    Quadrupole Moments (Debye-Ang)
        XX    -170.3405     XY      -5.2665     YY    -144.4174
        XZ      19.7475     YZ      -1.2937     ZZ    -166.2512

 Total job time:  90.47s(wall), 4310.36s(cpu)
        *  Thank you very much for using Q-Chem.  Have a nice day.  *
