 Q-Chem 5.0, Q-Chem, Inc., Pleasanton, CA (2017)
 Q-Chem 5.0.1 for Intel X86 EM64T Linux

User input:
--------------------------------------------------------------
$molecule
0  1
O -3.94934 -3.66094 2.70899
C -3.26408 -4.56952 2.26188
C -3.36658 -6.02376 2.66595
C -2.0578 -6.82755 2.73572
C -0.77515 -6.04373 2.56682
O -0.09077 -6.50288 1.47768
C 1.2167 -5.93347 1.35303
C 2.25482 -7.03575 1.17027
O 2.46279 -7.72327 2.41403
C 1.64771 -8.78389 2.6374
C 1.9194 -9.46719 3.95646
C 1.0682 -10.71671 4.22562
C 0.34937 -11.29782 3.02467
O 0.55182 -12.40354 2.54408
O -2.53281 -4.32344 1.14211
O -0.80975 -10.67221 2.67215
O 0.80968 -9.10315 1.81071
C -1.66325 -11.11745 1.68202
C 3.34071 -10.05306 4.07225
C 3.72415 -10.16313 5.54618
C 2.8099 -11.2863 5.99104
C 2.19368 -11.68746 4.64436
O 3.20112 -11.40236 3.70484
H 1.77507 -8.69377 4.74483
H 0.31524 -10.57372 5.03196
H 4.10948 -9.47264 3.51725
H 4.77642 -10.52704 5.57742
H 3.64531 -9.22562 6.13759
H 3.43846 -12.10587 6.40468
H 2.02447 -10.99863 6.72321
H 1.8492 -12.74434 4.68478
O -0.44981 -5.09877 3.27764
C -2.37867 -3.07945 0.56718
C -3.86602 -6.19525 4.11618
C -4.45766 -7.59216 4.30701
C -3.19838 -8.43151 4.32517
C -2.13245 -7.34288 4.18366
O -2.68495 -6.25098 4.87914
H -4.08649 -6.4857 1.95386
H -2.06538 -7.67138 2.00711
H -1.8981 -2.38365 1.28782
H -4.61095 -5.42847 4.42095
H -4.92281 -7.63401 5.31781
H -5.21035 -7.8783 3.5411
H -3.10735 -8.90872 5.32654
H -3.13523 -9.20608 3.5347
H -1.15012 -7.71466 4.55243
H -3.36523 -2.67573 0.25443
H -1.72957 -3.17096 -0.32767
H -2.5152 -10.41509 1.58556
H -2.05612 -12.12447 1.93802
H -1.12916 -11.15848 0.7087
H 2.03181 -7.70997 0.31223
H 3.21372 -6.53377 0.91989
H 1.55092 -5.26875 2.18127
H 1.21795 -5.3236 0.42434
$end

$opt
CONSTRAINT
tors           1           2           3           4    -143.685
tors           3           4           5           6    -119.506
tors           4           5           6           7    -172.187
tors           5           6           7           8    +129.075
tors           6           7           8           9     -73.478
tors           7           8           9          10     +89.318
tors           8           9          10          11    +179.743
tors           9          10          11          12    -177.145
tors          11          12          13          14    +116.087
ENDCONSTRAINT
$end

$rem
JOBTYPE                   OPT
METHOD                    B3LYP
DFT_D                     d3_op
BASIS                     STO-3G
GEOM_OPT_MAX_CYCLES       100
GEOM_OPT_TOL_GRADIENT     300
GEOM_OPT_TOL_DISPLACEMENT 1200
GEOM_OPT_TOL_ENERGY       100
SYMMETRY                  False
THRESH                    12
SCF_CONVERGENCE           8
MAX_SUB_FILE_NUM          128
MEM_STATIC                400
MEM_TOTAL                 4000
$end
--------------------------------------------------------------

   15   -1510.1550983103      5.74E-09 Convergence criterion met
 Total energy in the final basis set = -1510.15509831
   14   -1510.2247786120      6.11E-09 Convergence criterion met
 Total energy in the final basis set = -1510.22477861
   14   -1510.2606160134      7.62E-09 Convergence criterion met
 Total energy in the final basis set = -1510.26061601
   14   -1510.2754792296      9.02E-09 Convergence criterion met
 Total energy in the final basis set = -1510.27547923
   14   -1510.2800849401      6.15E-09 Convergence criterion met
 Total energy in the final basis set = -1510.28008494
   14   -1510.2836712152      5.15E-09 Convergence criterion met
 Total energy in the final basis set = -1510.28367122
   13   -1510.2857128905      4.57E-09 Convergence criterion met
 Total energy in the final basis set = -1510.28571289
   13   -1510.2865171316      6.98E-09 Convergence criterion met
   11   -1510.2883486743      5.88E-09 Convergence criterion met
 Total energy in the final basis set = -1510.28834867
   11   -1510.2883947129      4.23E-09 Convergence criterion met
 Total energy in the final basis set = -1510.28839471
   10   -1510.2884083680      9.67E-09 Convergence criterion met
 Total energy in the final basis set = -1510.28840837
   10   -1510.2884068267      5.63E-09 Convergence criterion met
 Total energy in the final basis set = -1510.28840683
   10   -1510.2884017716      9.21E-09 Convergence criterion met
 Total energy in the final basis set = -1510.28840177
    9   -1510.2883995128      7.17E-09 Convergence criterion met
 Total energy in the final basis set = -1510.28839951

             Standard Nuclear Orientation (Angstroms)
    I     Atom           X                Y                Z
 ----------------------------------------------------------------
    1      O      -5.6560044909    -0.1369745984     0.3772140437
    2      C      -4.5473365114    -0.0483549728    -0.1902265022
    3      C      -3.4466941948    -1.1600377021    -0.3078985853
    4      C      -1.9583023354    -0.6222711940    -0.2254600936
    5      C      -1.8537036257     0.8990190209     0.1257805674
    6      O      -1.1868416487     1.5989174638    -0.9452748112
    7      C      -0.9328248095     2.9911306495    -0.5075104082
    8      C       0.5750718477     3.3415073528    -0.7513980523
    9      O       1.4066986072     2.6398185144     0.2616322282
   10      C       1.7658922493     1.3487895549    -0.2472296173
   11      C       2.6471975798     0.5923432407     0.7978379367
   12      C       3.1343082821    -0.8135342951     0.2581788169
   13      C       2.6063866621    -1.2136790391    -1.1734127420
   14      O       3.3172556839    -1.3855159782    -2.1874116265
   15      O      -4.1003749564     1.1094141191    -0.9084445987
   16      O       1.2314825956    -1.6411211505    -1.0947282420
   17      O       1.5244858959     0.9649573598    -1.4158527461
   18      C       0.7753764337    -1.9926732497    -2.4598649410
   19      C       4.0399512022     1.3341644191     1.0011354796
   20      C       4.7537341030     0.7217931326     2.2702737887
   21      C       5.2512106808    -0.6599974553     1.7028633887
   22      C       4.7032044449    -0.5956914127     0.2245042448
   23      O       4.8463906236     0.8359646140    -0.1344549202
   24      H       2.0931237273     0.5069192169     1.7501640400
   25      H       2.8460376065    -1.6169437794     0.9603058796
   26      H       3.9689806305     2.4391146409     0.9818104823
   27      H       5.5962800860     1.3594227880     2.5817256948
   28      H       4.0621672203     0.6096958272     3.1205068376
   29      H       6.3510454565    -0.7233225567     1.7032390791
   30      H       4.8473909888    -1.5201679249     2.2603700718
   31      H       5.2250434335    -1.2306662836    -0.5173486888
   32      O      -2.1746586773     1.4364442075     1.2101551740
   33      C      -5.0677415634     2.2187608175    -0.7518692096
   34      C      -3.4940486371    -2.1540682470     0.9256327772
   35      C      -2.7205467443    -3.4719226819     0.5312520818
   36      C      -1.2292692418    -2.9734188626     0.5954657918
   37      C      -1.4241418258    -1.4658274420     1.0175732178
   38      O      -2.6011031198    -1.5095114010     1.9162725111
   39      H      -3.6104650601    -1.6980542456    -1.2606198865
   40      H      -1.3891650711    -0.8169822219    -1.1492419777
   41      H      -5.1165351915     2.5618486964     0.3019735107
   42      H      -4.5093377153    -2.2932068527     1.3459906098
   43      H      -2.9129688095    -4.2672660678     1.2686289352
   44      H      -3.0063536966    -3.8398607598    -0.4673790948
   45      H      -0.6590473127    -3.5097893268     1.3704397642
   46      H      -0.6932594614    -3.0700920470    -0.3599215093
   47      H      -0.5570442388    -1.0099255612     1.5333688907
   48      H      -6.0853922251     1.9211553672    -1.0766377339
   49      H      -4.6965182608     3.0402389508    -1.3917038558
   50      H      -0.2357962774    -2.4258074480    -2.3551831603
   51      H       1.4479796672    -2.7334042001    -2.9376998378
   52      H       0.7245856367    -1.0924601670    -3.1059358579
   53      H       0.8796794553     3.0401009534    -1.7758114431
   54      H       0.7422678147     4.4268988380    -0.5984548600
   55      H      -1.2061296071     3.0726572536     0.5679059740
   56      H      -1.5737809315     3.6791349421    -1.1009953885
 ----------------------------------------------------------------

    9   -1510.2883993572      7.82E-09 Convergence criterion met
 Total energy in the final basis set = -1510.28839936
 Final energy is   -1510.28839935716
 **  OPTIMIZATION CONVERGED  **

                    Orbital Energies (a.u.)
 --------------------------------------------------------------

 Alpha MOs
 -- Occupied --
-18.942 -18.941 -18.928 -18.919 -18.888 -18.887 -18.884 -18.881
-18.867 -18.860 -10.106 -10.103 -10.095 -10.091 -10.076 -10.068
-10.065 -10.062 -10.057 -10.057 -10.057 -10.055 -10.042 -10.039
-10.035 -10.034 -10.021 -10.020 -10.018 -10.016  -1.022  -1.016
 -1.004  -0.998  -0.971  -0.968  -0.945  -0.941  -0.930  -0.923
 -0.764  -0.761  -0.727  -0.722  -0.714  -0.704  -0.696  -0.664
 -0.656  -0.618  -0.598  -0.577  -0.546  -0.543  -0.537  -0.535
 -0.511  -0.509  -0.489  -0.474  -0.462  -0.457  -0.453  -0.449
 -0.434  -0.429  -0.426  -0.416  -0.415  -0.414  -0.405  -0.404
 -0.399  -0.382  -0.373  -0.363  -0.363  -0.355  -0.352  -0.349
 -0.344  -0.340  -0.335  -0.334  -0.329  -0.325  -0.324  -0.313
 -0.308  -0.305  -0.303  -0.300  -0.295  -0.286  -0.277  -0.274
 -0.270  -0.258  -0.253  -0.246  -0.244  -0.235  -0.232  -0.193
 -0.180  -0.169  -0.162  -0.160  -0.158  -0.150  -0.145  -0.141
 -0.141

          Ground-State Mulliken Net Atomic Charges

     Atom                 Charge (a.u.)
  ----------------------------------------
      1 O                    -0.208292
      2 C                     0.214394
      3 C                    -0.078628
      4 C                    -0.079113
      5 C                     0.213844
      6 O                    -0.170147
      7 C                    -0.059407
      8 C                    -0.052476
      9 O                    -0.170078
     10 C                     0.213319
     11 C                    -0.078785
     12 C                    -0.081417
     13 C                     0.216048
     14 O                    -0.219590
     15 O                    -0.168892
     16 O                    -0.178349
     17 O                    -0.201210
     18 C                    -0.129957
     19 C                     0.025127
     20 C                    -0.143806
     21 C                    -0.144106
     22 C                     0.024605
     23 O                    -0.189610
     24 H                     0.086095
     25 H                     0.082686
     26 H                     0.086344
     27 H                     0.078602
     28 H                     0.074094
     29 H                     0.078388
     30 H                     0.073295
     31 H                     0.091265
     32 O                    -0.221835
     33 C                    -0.127927
     34 C                     0.023975
     35 C                    -0.144266
     36 C                    -0.144505
     37 C                     0.029348
     38 O                    -0.188064
     39 H                     0.084476
     40 H                     0.092008
     41 H                     0.092935
     42 H                     0.089880
     43 H                     0.077708
     44 H                     0.071649
     45 H                     0.076674
     46 H                     0.079203
     47 H                     0.081281
     48 H                     0.091882
     49 H                     0.090443
     50 H                     0.079490
     51 H                     0.089571
     52 H                     0.093020
     53 H                     0.103070
     54 H                     0.090347
     55 H                     0.104878
     56 H                     0.080512
  ----------------------------------------
  Sum of atomic charges =     0.000000

                    Cartesian Multipole Moments
 -----------------------------------------------------------------
    Charge (ESU x 10^10)
                -0.0000
    Dipole Moment (Debye)
         X      -0.2286      Y       0.2481      Z      -0.1164
       Tot       0.3569
    Quadrupole Moments (Debye-Ang)
        XX    -169.0827     XY      -3.3203     YY    -144.6890
        XZ      20.6367     YZ      -1.6826     ZZ    -165.2553

 Total job time:  60.96s(wall), 2904.42s(cpu)
        *  Thank you very much for using Q-Chem.  Have a nice day.  *
