 Q-Chem 5.0, Q-Chem, Inc., Pleasanton, CA (2017)
 Q-Chem 5.0.1 for Intel X86 EM64T Linux

User input:
--------------------------------------------------------------
$molecule
0  1
O -3.94934 -3.66094 2.70899
C -3.26408 -4.56952 2.26188
C -3.36658 -6.02376 2.66595
C -2.10572 -6.88855 2.50401
C -0.83422 -6.16259 2.12406
O -0.43452 -6.5488 0.87646
C 0.77536 -5.913 0.45078
C 1.78243 -6.95876 -0.01647
O 2.34758 -7.63501 1.11763
C 1.67597 -8.73735 1.53346
C 2.32223 -9.40606 2.72335
C 1.61216 -10.67487 3.21752
C 0.60195 -11.28065 2.26399
O 0.72158 -12.3552 1.69338
O -2.51476 -4.2987 1.15929
O -0.63263 -10.70254 2.25709
O 0.66066 -9.09698 0.9601
C -1.70124 -11.17372 1.52002
C 3.73558 -9.94875 2.43891
C 4.51481 -10.04397 3.74865
C 3.79377 -11.19407 4.42138
C 2.8373 -11.61301 3.29724
O 3.53615 -11.30173 2.11646
H 2.37535 -8.63352 3.52394
H 1.1168 -10.55665 4.20649
H 4.30264 -9.34713 1.6956
H 5.54567 -10.37448 3.4865
H 4.57244 -9.10757 4.34425
H 4.53573 -11.99552 4.63382
H 3.23821 -10.93098 5.34753
H 2.54646 -12.67913 3.42488
O -0.32653 -5.2746 2.80137
C -2.35434 -3.04532 0.60639
C -3.56375 -6.16109 4.19635
C -4.20577 -7.50811 4.52479
C -3.04432 -8.44251 4.26727
C -1.94326 -7.43233 3.93142
O -2.26502 -6.31162 4.71628
H -4.26673 -6.43769 2.15937
H -2.28536 -7.70489 1.76678
H -1.88955 -2.35926 1.34643
H -4.17245 -5.34335 4.64043
H -4.42582 -7.513 5.61657
H -5.13639 -7.73713 3.96234
H -2.80281 -8.97504 5.21403
H -3.20522 -9.17561 3.45194
H -0.93821 -7.88003 4.10056
H -3.33621 -2.64007 0.28134
H -1.68791 -3.12135 -0.27716
H -2.57613 -10.51244 1.67106
H -1.96825 -12.2019 1.84495
H -1.447 -11.1757 0.43845
H 1.37812 -7.64216 -0.79751
H 2.6151 -6.40448 -0.49985
H 1.27572 -5.24047 1.18297
H 0.51582 -5.29016 -0.43193
$end

$opt
CONSTRAINT
tors           1           2           3           4    -153.936
tors           3           4           5           6    -114.103
tors           4           5           6           7    -179.356
tors           5           6           7           8    +128.005
tors           6           7           8           9     -74.975
tors           7           8           9          10     +89.318
tors           8           9          10          11    +179.743
tors           9          10          11          12    -178.974
tors          11          12          13          14    +112.279
ENDCONSTRAINT
$end

$rem
JOBTYPE                   OPT
METHOD                    B3LYP
DFT_D                     d3_op
BASIS                     STO-3G
GEOM_OPT_MAX_CYCLES       100
GEOM_OPT_TOL_GRADIENT     300
GEOM_OPT_TOL_DISPLACEMENT 1200
GEOM_OPT_TOL_ENERGY       100
SYMMETRY                  False
THRESH                    12
SCF_CONVERGENCE           8
MAX_SUB_FILE_NUM          128
MEM_STATIC                400
MEM_TOTAL                 4000
$end
--------------------------------------------------------------

   15   -1510.1546705703      5.79E-09 Convergence criterion met
 Total energy in the final basis set = -1510.15467057
   14   -1510.2245641449      5.99E-09 Convergence criterion met
 Total energy in the final basis set = -1510.22456414
   14   -1510.2611471599      6.41E-09 Convergence criterion met
 Total energy in the final basis set = -1510.26114716
   14   -1510.2758928932      6.97E-09 Convergence criterion met
 Total energy in the final basis set = -1510.27589289
   14   -1510.2809093732      7.54E-09 Convergence criterion met
 Total energy in the final basis set = -1510.28090937
   14   -1510.2841214941      4.84E-09 Convergence criterion met
 Total energy in the final basis set = -1510.28412149
   13   -1510.2859517599      5.04E-09 Convergence criterion met
 Total energy in the final basis set = -1510.28595176
   13   -1510.2863869051      8.27E-09 Convergence criterion met
    9   -1510.2881941816      9.12E-09 Convergence criterion met
 Total energy in the final basis set = -1510.28819418
   10   -1510.2881929305      7.60E-09 Convergence criterion met
 Total energy in the final basis set = -1510.28819293
    9   -1510.2881997409      4.57E-09 Convergence criterion met
 Total energy in the final basis set = -1510.28819974
    9   -1510.2882018581      3.92E-09 Convergence criterion met
 Total energy in the final basis set = -1510.28820186
    9   -1510.2882067940      5.62E-09 Convergence criterion met
 Total energy in the final basis set = -1510.28820679
    9   -1510.2882096175      2.74E-09 Convergence criterion met
 Total energy in the final basis set = -1510.28820962

             Standard Nuclear Orientation (Angstroms)
    I     Atom           X                Y                Z
 ----------------------------------------------------------------
    1      O      -5.8047633147     0.1852236096     0.2224576667
    2      C      -4.6291817146     0.1980710247    -0.2003664001
    3      C      -3.6562188143    -1.0284820444    -0.3015621518
    4      C      -2.1040938234    -0.7017796125    -0.2465126415
    5      C      -1.7955085902     0.7819317869     0.1534016518
    6      O      -1.1828754790     1.4680222966    -0.9572527036
    7      C      -0.8890315377     2.8603875285    -0.5455135253
    8      C       0.6068053656     3.2258232967    -0.8347612599
    9      O       1.4921935843     2.5775353773     0.1655184000
   10      C       1.8807677816     1.2799929175    -0.2926899149
   11      C       2.8161190171     0.6260405540     0.7766536157
   12      C       3.3213766114    -0.8095339147     0.3444777126
   13      C       2.7657138058    -1.3205819383    -1.0377562193
   14      O       3.4335853963    -1.4964757429    -2.0794778326
   15      O      -3.9977725500     1.3506074043    -0.7684570244
   16      O       1.4167900318    -1.7934600167    -0.8638133960
   17      O       1.5958739128     0.8158906998    -1.4206113289
   18      C       0.8947913195    -2.2249738125    -2.1796914901
   19      C       4.1940792604     1.4139248284     0.8766905128
   20      C       4.9511185060     0.9347316003     2.1774829461
   21      C       5.4602639630    -0.4846492846     1.7272128905
   22      C       4.8847718751    -0.5629780879     0.2590904152
   23      O       4.9877756601     0.8337261275    -0.2286635403
   24      H       2.2912963641     0.6083921905     1.7489166787
   25      H       3.0635303233    -1.5592688299     1.1143229822
   26      H       4.0954814095     2.5107779760     0.7604206313
   27      H       5.7892760685     1.6122628202     2.4058869761
   28      H       4.2837816556     0.8915313755     3.0530603917
   29      H       6.5607088122    -0.5335524709     1.7140060577
   30      H       5.0777432841    -1.2960509854     2.3666827876
   31      H       5.4098573904    -1.2495344340    -0.4327772779
   32      O      -1.9587207455     1.2968346317     1.2827190619
   33      C      -4.8788492137     2.5342383273    -0.6517290299
   34      C      -3.8161071477    -2.0070216849     0.9411416090
   35      C      -3.2938951645    -3.4311534190     0.5146859072
   36      C      -1.7436938381    -3.1696949617     0.4545751774
   37      C      -1.6586723481    -1.6667305860     0.9352900749
   38      O      -2.7826412979    -1.5387842182     1.8931937698
   39      H      -3.8995716308    -1.5552989186    -1.2438609216
   40      H      -1.6019682101    -0.9278853484    -1.2024673859
   41      H      -5.0523035185     2.8049489924     0.4098161840
   42      H      -4.8215565369    -1.9794106952     1.4051436784
   43      H      -3.5474839066    -4.1780933259     1.2838624423
   44      H      -3.7104879422    -3.7613894623    -0.4502509399
   45      H      -1.1910746859    -3.8259797966     1.1450317312
   46      H      -1.3359886942    -3.3040883019    -0.5584660487
   47      H      -0.7021358155    -1.3820050485     1.4139153852
   48      H      -5.8598310202     2.3602301859    -1.1388367940
   49      H      -4.3492303700     3.3591947697    -1.1625546498
   50      H      -0.0523469686    -2.7589315487    -1.9857442879
   51      H       1.6045260668    -2.9004820081    -2.6984052508
   52      H       0.6988350039    -1.3494046463    -2.8325930093
   53      H       0.8884157463     2.9104042711    -1.8620228524
   54      H       0.7508135775     4.3188625388    -0.7152724078
   55      H      -1.1205293958     2.9502047939     0.5396120114
   56      H      -1.5481585179     3.5449302037    -1.1226421020
 ----------------------------------------------------------------

    8   -1510.2882101968      6.49E-09 Convergence criterion met
 Total energy in the final basis set = -1510.28821020
 Final energy is   -1510.28821019677
 **  OPTIMIZATION CONVERGED  **

                    Orbital Energies (a.u.)
 --------------------------------------------------------------

 Alpha MOs
 -- Occupied --
-18.944 -18.940 -18.927 -18.918 -18.886 -18.886 -18.886 -18.881
-18.867 -18.859 -10.105 -10.105 -10.096 -10.089 -10.076 -10.070
-10.064 -10.061 -10.059 -10.058 -10.056 -10.054 -10.040 -10.040
-10.036 -10.033 -10.020 -10.020 -10.019 -10.019  -1.021  -1.018
 -1.004  -0.997  -0.969  -0.969  -0.944  -0.942  -0.930  -0.922
 -0.763  -0.762  -0.727  -0.722  -0.714  -0.704  -0.696  -0.667
 -0.655  -0.619  -0.598  -0.577  -0.546  -0.543  -0.537  -0.536
 -0.511  -0.509  -0.488  -0.475  -0.460  -0.456  -0.453  -0.449
 -0.434  -0.430  -0.426  -0.417  -0.415  -0.414  -0.403  -0.403
 -0.399  -0.384  -0.374  -0.363  -0.362  -0.354  -0.352  -0.350
 -0.343  -0.339  -0.334  -0.333  -0.329  -0.326  -0.323  -0.312
 -0.311  -0.305  -0.304  -0.300  -0.296  -0.289  -0.276  -0.273
 -0.271  -0.256  -0.252  -0.244  -0.243  -0.233  -0.233  -0.191
 -0.182  -0.167  -0.162  -0.160  -0.157  -0.151  -0.144  -0.142
 -0.140

          Ground-State Mulliken Net Atomic Charges

     Atom                 Charge (a.u.)
  ----------------------------------------
      1 O                    -0.210403
      2 C                     0.213125
      3 C                    -0.078920
      4 C                    -0.077945
      5 C                     0.216251
      6 O                    -0.169927
      7 C                    -0.059509
      8 C                    -0.051716
      9 O                    -0.171614
     10 C                     0.214364
     11 C                    -0.078601
     12 C                    -0.081694
     13 C                     0.215947
     14 O                    -0.218965
     15 O                    -0.167873
     16 O                    -0.177829
     17 O                    -0.202829
     18 C                    -0.129703
     19 C                     0.025077
     20 C                    -0.143710
     21 C                    -0.144171
     22 C                     0.024772
     23 O                    -0.189407
     24 H                     0.087140
     25 H                     0.082837
     26 H                     0.085844
     27 H                     0.078253
     28 H                     0.074115
     29 H                     0.078080
     30 H                     0.073209
     31 H                     0.090210
     32 O                    -0.220604
     33 C                    -0.127061
     34 C                     0.024287
     35 C                    -0.143470
     36 C                    -0.143122
     37 C                     0.027903
     38 O                    -0.187018
     39 H                     0.085142
     40 H                     0.089553
     41 H                     0.092913
     42 H                     0.089614
     43 H                     0.078333
     44 H                     0.072698
     45 H                     0.078881
     46 H                     0.071999
     47 H                     0.085930
     48 H                     0.092296
     49 H                     0.090388
     50 H                     0.078784
     51 H                     0.090528
     52 H                     0.091575
     53 H                     0.101142
     54 H                     0.090373
     55 H                     0.105006
     56 H                     0.079522
  ----------------------------------------
  Sum of atomic charges =    -0.000000

                    Cartesian Multipole Moments
 -----------------------------------------------------------------
    Charge (ESU x 10^10)
                -0.0000
    Dipole Moment (Debye)
         X      -0.5735      Y       0.3780      Z      -0.0033
       Tot       0.6868
    Quadrupole Moments (Debye-Ang)
        XX    -168.5813     XY      -2.1471     YY    -143.8519
        XZ      20.1096     YZ      -2.0537     ZZ    -165.5066

 Total job time:  73.35s(wall), 3490.54s(cpu)
        *  Thank you very much for using Q-Chem.  Have a nice day.  *
