 Q-Chem 5.0, Q-Chem, Inc., Pleasanton, CA (2017)
 Q-Chem 5.0.1 for Intel X86 EM64T Linux

User input:
--------------------------------------------------------------
$molecule
0  1
O -5.8047633147 0.1852236096 0.2224576667
C -4.6291817146 0.1980710247 -0.2003664001
C -3.6562188143 -1.0284820444 -0.3015621518
C -2.1040938234 -0.7017796125 -0.2465126415
C -1.7955085902 0.7819317869 0.1534016518
O -1.182875479 1.4680222966 -0.9572527036
C -0.8890315377 2.8603875285 -0.5455135253
C 0.6068053656 3.2258232967 -0.8347612599
O 1.4921935843 2.5775353773 0.1655184
C 1.8807677816 1.2799929175 -0.2926899149
C 2.8161190171 0.626040554 0.7766536157
C 3.3213766114 -0.8095339147 0.3444777126
C 2.7657138058 -1.3205819383 -1.0377562193
O 3.4335853963 -1.4964757429 -2.0794778326
O -3.99777255 1.3506074043 -0.7684570244
O 1.4167900318 -1.7934600167 -0.863813396
O 1.5958739128 0.8158906998 -1.4206113289
C 0.8947913195 -2.2249738125 -2.1796914901
C 4.1940792604 1.4139248284 0.8766905128
C 4.951118506 0.9347316003 2.1774829461
C 5.460263963 -0.4846492846 1.7272128905
C 4.8847718751 -0.5629780879 0.2590904152
O 4.9877756601 0.8337261275 -0.2286635403
H 2.2912963641 0.6083921905 1.7489166787
H 3.0635303233 -1.5592688299 1.1143229822
H 4.0954814095 2.510777976 0.7604206313
H 5.7892760685 1.6122628202 2.4058869761
H 4.2837816556 0.8915313755 3.0530603917
H 6.5607088122 -0.5335524709 1.7140060577
H 5.0777432841 -1.2960509854 2.3666827876
H 5.4098573904 -1.249534434 -0.4327772779
O -1.9587207455 1.2968346317 1.2827190619
C -4.8788492137 2.5342383273 -0.6517290299
C -3.8161071477 -2.0070216849 0.941141609
C -3.2938951645 -3.431153419 0.5146859072
C -1.7436938381 -3.1696949617 0.4545751774
C -1.6586723481 -1.666730586 0.9352900749
O -2.7826412979 -1.5387842182 1.8931937698
H -3.8995716308 -1.5552989186 -1.2438609216
H -1.6019682101 -0.9278853484 -1.2024673859
H -5.0523035185 2.8049489924 0.409816184
H -4.8215565369 -1.9794106952 1.4051436784
H -3.5474839066 -4.1780933259 1.2838624423
H -3.7104879422 -3.7613894623 -0.4502509399
H -1.1910746859 -3.8259797966 1.1450317312
H -1.3359886942 -3.3040883019 -0.5584660487
H -0.7021358155 -1.3820050485 1.4139153852
H -5.8598310202 2.3602301859 -1.138836794
H -4.34923037 3.3591947697 -1.1625546498
H -0.0523469686 -2.7589315487 -1.9857442879
H 1.6045260668 -2.9004820081 -2.6984052508
H 0.6988350039 -1.3494046463 -2.8325930093
H 0.8884157463 2.9104042711 -1.8620228524
H 0.7508135775 4.3188625388 -0.7152724078
H -1.1205293958 2.9502047939 0.5396120114
H -1.5481585179 3.5449302037 -1.122642102
$end

$rem
JOBTYPE                   OPT
METHOD                    B3LYP
DFT_D                     d3_op
BASIS                     STO-3G
GEOM_OPT_MAX_CYCLES       100
GEOM_OPT_TOL_GRADIENT     300
GEOM_OPT_TOL_DISPLACEMENT 1200
GEOM_OPT_TOL_ENERGY       100
SYMMETRY                  False
THRESH                    12
SCF_CONVERGENCE           8
MAX_SUB_FILE_NUM          128
MEM_STATIC                400
MEM_TOTAL                 4000
$end
--------------------------------------------------------------

   16   -1510.2881039506      5.26E-09 Convergence criterion met
 Total energy in the final basis set = -1510.28810395
   14   -1510.2879611674      2.20E-09 Convergence criterion met
 Total energy in the final basis set = -1510.28796117
   14   -1510.2903927693      6.71E-09 Convergence criterion met
 Total energy in the final basis set = -1510.29039277
   15   -1510.2814975908      3.20E-09 Convergence criterion met
 Total energy in the final basis set = -1510.28149759
   14   -1510.2915667772      4.27E-09 Convergence criterion met
 Total energy in the final basis set = -1510.29156678
   13   -1510.2921519749      8.96E-09 Convergence criterion met
 Total energy in the final basis set = -1510.29215197
   13   -1510.2932377507      7.36E-09 Convergence criterion met
 Total energy in the final basis set = -1510.29323775
   14   -1510.2944526520      4.58E-09 Convergence criterion met
   12   -1510.2990554767      5.09E-09 Convergence criterion met
 Total energy in the final basis set = -1510.29905548
   12   -1510.2990954447      3.79E-09 Convergence criterion met
 Total energy in the final basis set = -1510.29909544
   11   -1510.2990676861      9.47E-09 Convergence criterion met
 Total energy in the final basis set = -1510.29906769
   11   -1510.2991085567      6.01E-09 Convergence criterion met
 Total energy in the final basis set = -1510.29910856
   11   -1510.2991062382      4.69E-09 Convergence criterion met
 Total energy in the final basis set = -1510.29910624
   11   -1510.2991107283      3.13E-09 Convergence criterion met
 Total energy in the final basis set = -1510.29911073

             Standard Nuclear Orientation (Angstroms)
    I     Atom           X                Y                Z
 ----------------------------------------------------------------
    1      O      -5.1537443941     0.0577898360     0.7377056823
    2      C      -4.1102652776     0.1651010818     0.0596797550
    3      C      -2.9780700728    -0.9094645047    -0.1161733064
    4      C      -1.5086137582    -0.3543230947     0.1130389221
    5      C      -1.4260006515     1.1951901803     0.3040559877
    6      O      -1.0060109632     1.7608881519    -0.9528154583
    7      C      -0.7675016298     3.2136997059    -0.8103972869
    8      C       0.7803688017     3.4662614259    -0.9322237978
    9      O       1.4806119670     2.5991511191     0.0464559016
   10      C       1.7693994635     1.3269251850    -0.5376689186
   11      C       2.2988290042     0.3760634088     0.5841611217
   12      C       2.5208733149    -1.1023781889     0.0682643118
   13      C       2.1389745875    -1.3417661405    -1.4401199822
   14      O       2.9175919263    -1.4929645098    -2.4029622568
   15      O      -3.7683812409     1.3263732299    -0.7061198478
   16      O       0.7108780014    -1.5611322167    -1.5294247827
   17      O       1.6527401706     1.0498231210    -1.7537444185
   18      C       0.3213199130    -1.7691285194    -2.9415506545
   19      C       3.7765125056     0.7671189823     1.0247577967
   20      C       4.1174949537     0.0010507247     2.3636281277
   21      C       4.3510254207    -1.4601616375     1.8268097329
   22      C       4.0838111345    -1.2635587656     0.2842474218
   23      O       4.6142953422     0.0929922793     0.0089320239
   24      H       1.6017098122     0.4183699468     1.4398778417
   25      H       1.9497593977    -1.8164788717     0.6862235741
   26      H       3.9716127826     1.8570131704     1.0387738537
   27      H       5.0300897384     0.4155556477     2.8206769256
   28      H       3.2967631539     0.0612276769     3.0963713379
   29      H       5.3870543487    -1.7922290190     1.9993620173
   30      H       3.6647368647    -2.1949899470     2.2771881752
   31      H       4.5586258091    -2.0043785601    -0.3876092051
   32      O      -1.6221223796     1.8645620807     1.3417776453
   33      C      -4.7711144595     2.3943541909    -0.4924072161
   34      C      -3.0872947823    -1.9814178336     1.0454525002
   35      C      -2.1794982783    -3.2210026858     0.6859761983
   36      C      -0.7434299836    -2.6322208872     0.9449510378
   37      C      -1.0995973625    -1.1658551672     1.4167520433
   38      O      -2.3667282035    -1.3281739659     2.1624504749
   39      H      -3.0760953279    -1.3658668355    -1.1186233520
   40      H      -0.8288692390    -0.6288374940    -0.7187201222
   41      H      -4.7742707419     2.7380756426     0.5623593255
   42      H      -4.1302314431    -2.2109246304     1.3392469444
   43      H      -2.4003423476    -4.0661200949     1.3572688354
   44      H      -2.3228472279    -3.5515588384    -0.3554105676
   45      H      -0.2158191086    -3.1841146399     1.7387662543
   46      H      -0.1247033127    -2.6073110946     0.0301653036
   47      H      -0.3408501416    -0.6691527084     2.0513447779
   48      H      -5.7929332796     2.0547200294    -0.7575444541
   49      H      -4.4725352296     3.2290701363    -1.1527461712
   50      H      -0.7506427962    -2.0393047121    -2.9293505196
   51      H       0.9090680091    -2.5839987287    -3.4101913738
   52      H       0.4637662918    -0.8408524288    -3.5317951855
   53      H       1.1271403859     3.2332138833    -1.9612909345
   54      H       1.0281456895     4.5148183466    -0.6710499730
   55      H      -1.1380651995     3.5368221703     0.1870941809
   56      H      -1.3105884005     3.7456257987    -1.6188422009
 ----------------------------------------------------------------

    9   -1510.2991112243      4.12E-09 Convergence criterion met
 Total energy in the final basis set = -1510.29911122
 Final energy is   -1510.29911122430
 **  OPTIMIZATION CONVERGED  **

                    Orbital Energies (a.u.)
 --------------------------------------------------------------

 Alpha MOs
 -- Occupied --
-18.943 -18.937 -18.935 -18.927 -18.890 -18.889 -18.881 -18.878
-18.874 -18.871 -10.110 -10.101 -10.099 -10.096 -10.077 -10.068
-10.066 -10.064 -10.064 -10.060 -10.053 -10.052 -10.044 -10.039
-10.035 -10.023 -10.023 -10.022 -10.015 -10.007  -1.025  -1.014
 -1.008  -1.003  -0.973  -0.965  -0.948  -0.938  -0.935  -0.932
 -0.767  -0.758  -0.729  -0.721  -0.713  -0.704  -0.695  -0.663
 -0.662  -0.620  -0.599  -0.577  -0.549  -0.542  -0.540  -0.533
 -0.515  -0.506  -0.490  -0.475  -0.469  -0.461  -0.452  -0.446
 -0.435  -0.427  -0.425  -0.419  -0.415  -0.413  -0.410  -0.405
 -0.399  -0.381  -0.375  -0.369  -0.363  -0.359  -0.350  -0.349
 -0.345  -0.341  -0.340  -0.336  -0.329  -0.327  -0.324  -0.315
 -0.309  -0.307  -0.302  -0.301  -0.295  -0.285  -0.283  -0.277
 -0.269  -0.256  -0.253  -0.248  -0.243  -0.237  -0.227  -0.193
 -0.179  -0.178  -0.167  -0.161  -0.158  -0.153  -0.148  -0.147
 -0.139

          Ground-State Mulliken Net Atomic Charges

     Atom                 Charge (a.u.)
  ----------------------------------------
      1 O                    -0.208903
      2 C                     0.211817
      3 C                    -0.077946
      4 C                    -0.091702
      5 C                     0.210759
      6 O                    -0.172820
      7 C                    -0.056573
      8 C                    -0.051545
      9 O                    -0.171653
     10 C                     0.216304
     11 C                    -0.078866
     12 C                    -0.082781
     13 C                     0.220514
     14 O                    -0.209064
     15 O                    -0.169900
     16 O                    -0.177967
     17 O                    -0.203626
     18 C                    -0.127894
     19 C                     0.025690
     20 C                    -0.143614
     21 C                    -0.144141
     22 C                     0.025307
     23 O                    -0.188011
     24 H                     0.087145
     25 H                     0.085810
     26 H                     0.086593
     27 H                     0.079255
     28 H                     0.074999
     29 H                     0.078912
     30 H                     0.073642
     31 H                     0.089381
     32 O                    -0.218687
     33 C                    -0.128217
     34 C                     0.024036
     35 C                    -0.144469
     36 C                    -0.153944
     37 C                     0.024134
     38 O                    -0.190317
     39 H                     0.082995
     40 H                     0.104911
     41 H                     0.092430
     42 H                     0.088917
     43 H                     0.076123
     44 H                     0.070574
     45 H                     0.069421
     46 H                     0.087323
     47 H                     0.075692
     48 H                     0.090809
     49 H                     0.089318
     50 H                     0.086067
     51 H                     0.090911
     52 H                     0.096430
     53 H                     0.098962
     54 H                     0.090809
     55 H                     0.101163
     56 H                     0.085485
  ----------------------------------------
  Sum of atomic charges =    -0.000000

                    Cartesian Multipole Moments
 -----------------------------------------------------------------
    Charge (ESU x 10^10)
                -0.0000
    Dipole Moment (Debye)
         X      -0.1234      Y       0.3318      Z      -0.7520
       Tot       0.8311
    Quadrupole Moments (Debye-Ang)
        XX    -170.5649     XY      -3.2007     YY    -144.3605
        XZ      19.7123     YZ      -3.2065     ZZ    -165.9282

 Total job time:  95.66s(wall), 4558.53s(cpu)
        *  Thank you very much for using Q-Chem.  Have a nice day.  *
