 Q-Chem 5.0, Q-Chem, Inc., Pleasanton, CA (2017)
 Q-Chem 5.0.1 for Intel X86 EM64T Linux

User input:
--------------------------------------------------------------
$molecule
0  1
O -3.94934 -3.66094 2.70899
C -3.26408 -4.56952 2.26188
C -3.36658 -6.02376 2.66595
C -2.10108 -6.88454 2.5196
C -0.82758 -6.15473 2.15404
O -0.47536 -6.45166 0.86827
C 0.73979 -5.81684 0.45636
C 1.69529 -6.84628 -0.13812
O 2.37274 -7.55045 0.91454
C 1.7475 -8.6658 1.36643
C 2.51129 -9.36363 2.46657
C 1.92791 -10.71559 2.90262
C 0.91035 -11.33024 1.96267
O 1.09589 -12.31574 1.26344
O -2.52516 -4.30347 1.15132
O -0.36893 -10.88449 2.10801
O 0.67298 -9.01209 0.90177
C -1.45282 -11.38548 1.41692
C 3.93691 -9.7869 2.05166
C 4.81052 -9.91426 3.29771
C 4.21487 -11.15388 3.93147
C 3.21719 -11.56441 2.84075
O 3.81071 -11.1249 1.64451
H 2.58295 -8.63961 3.30958
H 1.49101 -10.71183 3.92554
H 4.41423 -9.09875 1.32065
H 5.83946 -10.15423 2.94489
H 4.85055 -9.01868 3.95437
H 5.02165 -11.91184 4.04341
H 3.70312 -10.99172 4.90485
H 3.00828 -12.65508 2.90849
O -0.31682 -5.28619 2.85365
C -2.36753 -3.05184 0.59372
C -3.59419 -6.17762 4.18923
C -4.23411 -7.53335 4.4892
C -3.06234 -8.45994 4.24314
C -1.96073 -7.43887 3.94396
O -2.30502 -6.32733 4.73316
H -4.25138 -6.43991 2.13455
H -2.26756 -7.69512 1.77276
H -1.89401 -2.365 1.32749
H -4.21589 -5.36708 4.62827
H -4.47417 -7.55144 5.57661
H -5.15307 -7.76192 3.90779
H -2.83846 -9.00418 5.18753
H -3.197 -9.18355 3.41122
H -0.95634 -7.88188 4.12755
H -3.35165 -2.64522 0.27728
H -1.70996 -3.13142 -0.29611
H -2.36601 -10.83671 1.72368
H -1.58903 -12.46382 1.64637
H -1.30503 -11.24887 0.32431
H 1.22984 -7.50348 -0.90745
H 2.48184 -6.26825 -0.66883
H 1.28196 -5.21023 1.21628
H 0.46031 -5.1241 -0.36637
$end

$opt
CONSTRAINT
tors           1           2           3           4    -153.234
tors           3           4           5           6    -108.858
tors           4           5           6           7    -178.817
tors           5           6           7           8    +128.704
tors           6           7           8           9     -80.520
tors           7           8           9          10     +89.318
tors           8           9          10          11    +179.743
tors           9          10          11          12    -173.376
tors          11          12          13          14    +108.845
ENDCONSTRAINT
$end

$rem
JOBTYPE                   OPT
METHOD                    B3LYP
DFT_D                     d3_op
BASIS                     STO-3G
GEOM_OPT_MAX_CYCLES       100
GEOM_OPT_TOL_GRADIENT     300
GEOM_OPT_TOL_DISPLACEMENT 1200
GEOM_OPT_TOL_ENERGY       100
SYMMETRY                  False
THRESH                    12
SCF_CONVERGENCE           8
MAX_SUB_FILE_NUM          128
MEM_STATIC                400
MEM_TOTAL                 4000
$end
--------------------------------------------------------------

   15   -1510.1523515429      5.97E-09 Convergence criterion met
 Total energy in the final basis set = -1510.15235154
   14   -1510.2222283137      5.90E-09 Convergence criterion met
 Total energy in the final basis set = -1510.22222831
   14   -1510.2590321775      5.78E-09 Convergence criterion met
 Total energy in the final basis set = -1510.25903218
   14   -1510.2748295715      6.14E-09 Convergence criterion met
 Total energy in the final basis set = -1510.27482957
   14   -1510.2815775161      3.13E-09 Convergence criterion met
 Total energy in the final basis set = -1510.28157752
   13   -1510.2844811996      4.08E-09 Convergence criterion met
 Total energy in the final basis set = -1510.28448120
   13   -1510.2849709741      5.81E-09 Convergence criterion met
 Total energy in the final basis set = -1510.28497097
   13   -1510.2861861458      8.00E-09 Convergence criterion met
   11   -1510.2877486668      6.59E-09 Convergence criterion met
 Total energy in the final basis set = -1510.28774867
   11   -1510.2878104634      3.96E-09 Convergence criterion met
 Total energy in the final basis set = -1510.28781046
   11   -1510.2878419748      5.49E-09 Convergence criterion met
 Total energy in the final basis set = -1510.28784197
    9   -1510.2878497032      9.21E-09 Convergence criterion met
 Total energy in the final basis set = -1510.28784970
    9   -1510.2878549214      5.89E-09 Convergence criterion met
 Total energy in the final basis set = -1510.28785492
    9   -1510.2878561432      9.49E-09 Convergence criterion met
 Total energy in the final basis set = -1510.28785614

             Standard Nuclear Orientation (Angstroms)
    I     Atom           X                Y                Z
 ----------------------------------------------------------------
    1      O      -5.8653519163     0.3168957445     0.1446793766
    2      C      -4.6787330216     0.3065085322    -0.2468707420
    3      C      -3.7495104100    -0.9526457675    -0.3692903499
    4      C      -2.1861974715    -0.7001488301    -0.2444031943
    5      C      -1.8117956756     0.7679149554     0.1588500793
    6      O      -1.2255092495     1.4379639726    -0.9739712691
    7      C      -0.8488477111     2.8137659259    -0.5767234917
    8      C       0.6414009588     3.1139429475    -0.9600530480
    9      O       1.5615439550     2.5361483812     0.0515240862
   10      C       1.9062307893     1.1951497350    -0.3017689082
   11      C       2.8800487393     0.6223802855     0.7812527733
   12      C       3.4516609892    -0.8009211600     0.3914674682
   13      C       2.8826239120    -1.3984325912    -0.9488912081
   14      O       3.5020665900    -1.5295325689    -2.0262838096
   15      O      -3.9915914015     1.4614966464    -0.7377368569
   16      O       1.5975248939    -1.9895540427    -0.6840949033
   17      O       1.5443210232     0.6299767156    -1.3591386085
   18      C       1.0453092798    -2.5170464640    -1.9511320119
   19      C       4.2192450567     1.4757684856     0.8496454137
   20      C       5.0139334004     1.0573519889     2.1489815780
   21      C       5.6004960923    -0.3363678018     1.7132768557
   22      C       4.9987401678    -0.4767317814     0.2603997086
   23      O       5.0236382589     0.9123346809    -0.2570397654
   24      H       2.3598807006     0.6084767810     1.7564061545
   25      H       3.2532384755    -1.5293520046     1.1981479646
   26      H       4.0660214583     2.5640295301     0.7135298358
   27      H       5.8129624374     1.7849608401     2.3625296319
   28      H       4.3562822199     0.9867900147     3.0300112310
   29      H       6.7012536767    -0.3161870708     1.6743158627
   30      H       5.2844557230    -1.1580786536     2.3754889887
   31      H       5.5434514081    -1.1518861803    -0.4275744394
   32      O      -1.9080343872     1.2788706633     1.2972232614
   33      C      -4.8416411371     2.6657570269    -0.6010832872
   34      C      -4.0011418864    -1.9598411855     0.8341661712
   35      C      -3.5073252428    -3.3906283545     0.3964021785
   36      C      -1.9479434547    -3.1850558835     0.4265893693
   37      C      -1.8362781856    -1.6955255830     0.9429404731
   38      O      -3.0015210297    -1.5493223552     1.8470778396
   39      H      -3.9809636302    -1.4346892501    -1.3380383969
   40      H      -1.6604013311    -0.9524855838    -1.1817260857
   41      H      -5.0725176114     2.8797969730     0.4623569303
   42      H      -5.0268653071    -1.9085713165     1.2494066098
   43      H      -3.8298573971    -4.1484631456     1.1282906015
   44      H      -3.8816134994    -3.6777448000    -0.5991797138
   45      H      -1.4579414693    -3.8744714714     1.1318409773
   46      H      -1.4912268079    -3.3143269080    -0.5663285175
   47      H      -0.8962366905    -1.4530462285     1.4749736814
   48      H      -5.7952225223     2.5547575742    -1.1564124995
   49      H      -4.2563874553     3.5003178647    -1.0286704944
   50      H       0.1447123912    -3.0972717649    -1.6827611823
   51      H       1.7705756301    -3.1746362902    -2.4718122950
   52      H       0.7643380692    -1.6900125629    -2.6353529805
   53      H       0.8651041657     2.7025030342    -1.9673809951
   54      H       0.8159542649     4.2088434380    -0.9449873444
   55      H      -1.0073306740     2.9141845965     0.5204900022
   56      H      -1.5123249899     3.5280534391    -1.1111476824
 ----------------------------------------------------------------

    9   -1510.2878557884      4.55E-09 Convergence criterion met
 Total energy in the final basis set = -1510.28785579
 Final energy is   -1510.28785578838
 **  OPTIMIZATION CONVERGED  **

                    Orbital Energies (a.u.)
 --------------------------------------------------------------

 Alpha MOs
 -- Occupied --
-18.944 -18.941 -18.927 -18.917 -18.887 -18.886 -18.886 -18.880
-18.867 -18.858 -10.106 -10.105 -10.097 -10.089 -10.076 -10.070
-10.065 -10.060 -10.059 -10.058 -10.056 -10.054 -10.040 -10.040
-10.037 -10.032 -10.020 -10.020 -10.019 -10.018  -1.022  -1.018
 -1.004  -0.996  -0.969  -0.969  -0.944  -0.942  -0.930  -0.922
 -0.763  -0.762  -0.728  -0.722  -0.713  -0.704  -0.696  -0.667
 -0.654  -0.619  -0.598  -0.577  -0.546  -0.543  -0.537  -0.536
 -0.511  -0.510  -0.488  -0.476  -0.460  -0.455  -0.452  -0.449
 -0.434  -0.430  -0.428  -0.417  -0.415  -0.413  -0.404  -0.403
 -0.399  -0.384  -0.374  -0.364  -0.362  -0.354  -0.353  -0.349
 -0.343  -0.339  -0.333  -0.333  -0.329  -0.327  -0.323  -0.312
 -0.312  -0.305  -0.305  -0.300  -0.296  -0.290  -0.275  -0.273
 -0.272  -0.256  -0.252  -0.244  -0.243  -0.233  -0.233  -0.192
 -0.182  -0.167  -0.162  -0.160  -0.157  -0.150  -0.144  -0.143
 -0.140

          Ground-State Mulliken Net Atomic Charges

     Atom                 Charge (a.u.)
  ----------------------------------------
      1 O                    -0.210888
      2 C                     0.212796
      3 C                    -0.078772
      4 C                    -0.078256
      5 C                     0.216545
      6 O                    -0.169855
      7 C                    -0.058595
      8 C                    -0.051596
      9 O                    -0.171707
     10 C                     0.214665
     11 C                    -0.078174
     12 C                    -0.082015
     13 C                     0.215611
     14 O                    -0.219245
     15 O                    -0.167492
     16 O                    -0.177222
     17 O                    -0.203339
     18 C                    -0.129368
     19 C                     0.024742
     20 C                    -0.143951
     21 C                    -0.143978
     22 C                     0.024787
     23 O                    -0.189840
     24 H                     0.087298
     25 H                     0.083150
     26 H                     0.086783
     27 H                     0.078112
     28 H                     0.073920
     29 H                     0.077978
     30 H                     0.073245
     31 H                     0.089548
     32 O                    -0.220489
     33 C                    -0.126761
     34 C                     0.024149
     35 C                    -0.143557
     36 C                    -0.143166
     37 C                     0.027305
     38 O                    -0.187270
     39 H                     0.085494
     40 H                     0.089213
     41 H                     0.093301
     42 H                     0.089746
     43 H                     0.078462
     44 H                     0.072876
     45 H                     0.078993
     46 H                     0.071234
     47 H                     0.086484
     48 H                     0.091932
     49 H                     0.090268
     50 H                     0.079960
     51 H                     0.089338
     52 H                     0.090693
     53 H                     0.101986
     54 H                     0.090466
     55 H                     0.104620
     56 H                     0.079831
  ----------------------------------------
  Sum of atomic charges =    -0.000000

                    Cartesian Multipole Moments
 -----------------------------------------------------------------
    Charge (ESU x 10^10)
                -0.0000
    Dipole Moment (Debye)
         X      -0.5006      Y       0.4308      Z      -0.0094
       Tot       0.6605
    Quadrupole Moments (Debye-Ang)
        XX    -168.4947     XY      -1.9518     YY    -143.8572
        XZ      19.9711     YZ      -1.9434     ZZ    -165.3863

 Total job time:  56.98s(wall), 2712.45s(cpu)
        *  Thank you very much for using Q-Chem.  Have a nice day.  *
