 Q-Chem 5.0, Q-Chem, Inc., Pleasanton, CA (2017)
 Q-Chem 5.0.1 for Intel X86 EM64T Linux

User input:
--------------------------------------------------------------
$molecule
0  1
O -5.8653519163 0.3168957445 0.1446793766
C -4.6787330216 0.3065085322 -0.246870742
C -3.74951041 -0.9526457675 -0.3692903499
C -2.1861974715 -0.7001488301 -0.2444031943
C -1.8117956756 0.7679149554 0.1588500793
O -1.2255092495 1.4379639726 -0.9739712691
C -0.8488477111 2.8137659259 -0.5767234917
C 0.6414009588 3.1139429475 -0.960053048
O 1.561543955 2.5361483812 0.0515240862
C 1.9062307893 1.195149735 -0.3017689082
C 2.8800487393 0.6223802855 0.7812527733
C 3.4516609892 -0.80092116 0.3914674682
C 2.882623912 -1.3984325912 -0.9488912081
O 3.50206659 -1.5295325689 -2.0262838096
O -3.9915914015 1.4614966464 -0.7377368569
O 1.5975248939 -1.9895540427 -0.6840949033
O 1.5443210232 0.6299767156 -1.3591386085
C 1.0453092798 -2.517046464 -1.9511320119
C 4.2192450567 1.4757684856 0.8496454137
C 5.0139334004 1.0573519889 2.148981578
C 5.6004960923 -0.3363678018 1.7132768557
C 4.9987401678 -0.4767317814 0.2603997086
O 5.0236382589 0.9123346809 -0.2570397654
H 2.3598807006 0.608476781 1.7564061545
H 3.2532384755 -1.5293520046 1.1981479646
H 4.0660214583 2.5640295301 0.7135298358
H 5.8129624374 1.7849608401 2.3625296319
H 4.3562822199 0.9867900147 3.030011231
H 6.7012536767 -0.3161870708 1.6743158627
H 5.284455723 -1.1580786536 2.3754889887
H 5.5434514081 -1.1518861803 -0.4275744394
O -1.9080343872 1.2788706633 1.2972232614
C -4.8416411371 2.6657570269 -0.6010832872
C -4.0011418864 -1.9598411855 0.8341661712
C -3.5073252428 -3.3906283545 0.3964021785
C -1.9479434547 -3.1850558835 0.4265893693
C -1.8362781856 -1.695525583 0.9429404731
O -3.0015210297 -1.5493223552 1.8470778396
H -3.9809636302 -1.4346892501 -1.3380383969
H -1.6604013311 -0.9524855838 -1.1817260857
H -5.0725176114 2.879796973 0.4623569303
H -5.0268653071 -1.9085713165 1.2494066098
H -3.8298573971 -4.1484631456 1.1282906015
H -3.8816134994 -3.6777448 -0.5991797138
H -1.4579414693 -3.8744714714 1.1318409773
H -1.4912268079 -3.314326908 -0.5663285175
H -0.8962366905 -1.4530462285 1.4749736814
H -5.7952225223 2.5547575742 -1.1564124995
H -4.2563874553 3.5003178647 -1.0286704944
H 0.1447123912 -3.0972717649 -1.6827611823
H 1.7705756301 -3.1746362902 -2.471812295
H 0.7643380692 -1.6900125629 -2.6353529805
H 0.8651041657 2.7025030342 -1.9673809951
H 0.8159542649 4.208843438 -0.9449873444
H -1.007330674 2.9141845965 0.5204900022
H -1.5123249899 3.5280534391 -1.1111476824
$end

$rem
JOBTYPE                   OPT
METHOD                    B3LYP
DFT_D                     d3_op
BASIS                     STO-3G
GEOM_OPT_MAX_CYCLES       100
GEOM_OPT_TOL_GRADIENT     300
GEOM_OPT_TOL_DISPLACEMENT 1200
GEOM_OPT_TOL_ENERGY       100
SYMMETRY                  False
THRESH                    12
SCF_CONVERGENCE           8
MAX_SUB_FILE_NUM          128
MEM_STATIC                400
MEM_TOTAL                 4000
$end
--------------------------------------------------------------

   16   -1510.2879464986      5.18E-09 Convergence criterion met
 Total energy in the final basis set = -1510.28794650
   14   -1510.2878188274      4.21E-09 Convergence criterion met
 Total energy in the final basis set = -1510.28781883
   15   -1510.2898133926      2.71E-09 Convergence criterion met
 Total energy in the final basis set = -1510.28981339
   15   -1510.2831441901      3.59E-09 Convergence criterion met
 Total energy in the final basis set = -1510.28314419
   14   -1510.2915410546      1.90E-09 Convergence criterion met
 Total energy in the final basis set = -1510.29154105
   15   -1510.2919810549      1.52E-09 Convergence criterion met
 Total energy in the final basis set = -1510.29198105
   14   -1510.2934828349      4.25E-09 Convergence criterion met
 Total energy in the final basis set = -1510.29348283
   14   -1510.2947549561      8.76E-09 Convergence criterion met
   12   -1510.2991311803      6.21E-09 Convergence criterion met
 Total energy in the final basis set = -1510.29913118
   12   -1510.2991661908      2.16E-09 Convergence criterion met
 Total energy in the final basis set = -1510.29916619
   11   -1510.2991649860      4.40E-09 Convergence criterion met
 Total energy in the final basis set = -1510.29916499
    9   -1510.2991695468      9.59E-09 Convergence criterion met
 Total energy in the final basis set = -1510.29916955
   10   -1510.2991707410      8.46E-09 Convergence criterion met
 Total energy in the final basis set = -1510.29917074
    9   -1510.2991720672      7.20E-09 Convergence criterion met
 Total energy in the final basis set = -1510.29917207

             Standard Nuclear Orientation (Angstroms)
    I     Atom           X                Y                Z
 ----------------------------------------------------------------
    1      O      -5.0822274421     0.2329609231     0.8885126191
    2      C      -4.0829071617     0.2597916807     0.1399231779
    3      C      -2.9923609276    -0.8579109358    -0.0317815645
    4      C      -1.5017949375    -0.3369003017     0.1375671556
    5      C      -1.3727309326     1.2186015108     0.2246943776
    6      O      -0.9960203103     1.6882882013    -1.0843601372
    7      C      -0.7424279066     3.1452615880    -1.0581114264
    8      C       0.8073639140     3.3757727385    -1.2034050942
    9      O       1.5038483150     2.5742899069    -0.1682207254
   10      C       1.7779608922     1.2604838994    -0.6605873544
   11      C       2.2943576828     0.3858827391     0.5269797724
   12      C       2.5047895232    -1.1267593590     0.1171729475
   13      C       2.1238315990    -1.4681823686    -1.3717418696
   14      O       2.9016450814    -1.6960294030    -2.3199847342
   15      O      -3.7562358987     1.3570489074    -0.7214995230
   16      O       0.6936166498    -1.6790157291    -1.4474445931
   17      O       1.6591861701     0.8990685949    -1.8541418752
   18      C       0.3032816308    -1.9894948898    -2.8403043208
   19      C       3.7734134901     0.7941517821     0.9458997305
   20      C       4.1002257049     0.1218228046     2.3379120183
   21      C       4.3226937801    -1.3756809740     1.9067593532
   22      C       4.0653377315    -1.2861110362     0.3521744981
   23      O       4.6101704935     0.0425459105    -0.0147336565
   24      H       1.5940550977     0.4942411730     1.3741791862
   25      H       1.9244135283    -1.7904554452     0.7809951244
   26      H       3.9783214478     1.8805678030     0.8835338611
   27      H       5.0140733258     0.5589748949     2.7707336555
   28      H       3.2755681643     0.2412607169     3.0586959247
   29      H       5.3546327539    -1.7044923985     2.1078393601
   30      H       3.6272221294    -2.0704789687     2.4040522603
   31      H       4.5369084896    -2.0769837611    -0.2624750575
   32      O      -1.5151167118     1.9597554229     1.2212714042
   33      C      -4.7116979173     2.4694012303    -0.5184756615
   34      C      -3.0975262357    -1.8795570880     1.1742257795
   35      C      -2.2162600681    -3.1485211560     0.8526591682
   36      C      -0.7663337309    -2.5796409994     1.0764351688
   37      C      -1.0893624919    -1.0855223181     1.4777779854
   38      O      -2.3475093953    -1.1889217994     2.2487576124
   39      H      -3.1332931007    -1.3455398749    -1.0141912846
   40      H      -0.8493681292    -0.6808356904    -0.6900403551
   41      H      -4.6511542359     2.8690291251     0.5146054151
   42      H      -4.1380531217    -2.0792722868     1.4965825320
   43      H      -2.4466042768    -3.9643590042     1.5560844538
   44      H      -2.3767167400    -3.5134952335    -0.1746126393
   45      H      -0.2473188471    -3.1036295660     1.8945576104
   46      H      -0.1510277002    -2.6109794872     0.1594689497
   47      H      -0.3133478687    -0.5706993471     2.0761198393
   48      H      -5.7561252210     2.1527287064    -0.7150838797
   49      H      -4.4195804188     3.2564884659    -1.2376542807
   50      H      -0.7712596397    -2.2475580266    -2.8091057633
   51      H       0.8836330052    -2.8430971068    -3.2448160024
   52      H       0.4555259131    -1.1101266498    -3.4988519478
   53      H       1.1487125979     3.0677841379    -2.2145063730
   54      H       1.0643695149     4.4381801872    -1.0179412849
   55      H      -1.1060131079     3.5529183282    -0.0897109164
   56      H      -1.2835244231     3.6136806297    -1.9061091128
 ----------------------------------------------------------------

    9   -1510.2991723885      4.41E-09 Convergence criterion met
 Total energy in the final basis set = -1510.29917239
 Final energy is   -1510.29917238850
 **  OPTIMIZATION CONVERGED  **

                    Orbital Energies (a.u.)
 --------------------------------------------------------------

 Alpha MOs
 -- Occupied --
-18.943 -18.937 -18.935 -18.927 -18.890 -18.889 -18.881 -18.878
-18.874 -18.871 -10.110 -10.101 -10.099 -10.096 -10.077 -10.069
-10.066 -10.064 -10.064 -10.060 -10.053 -10.053 -10.044 -10.039
-10.035 -10.024 -10.023 -10.021 -10.015 -10.007  -1.025  -1.014
 -1.008  -1.003  -0.973  -0.965  -0.948  -0.937  -0.935  -0.933
 -0.768  -0.758  -0.729  -0.721  -0.713  -0.704  -0.695  -0.663
 -0.662  -0.620  -0.599  -0.577  -0.549  -0.542  -0.540  -0.533
 -0.514  -0.506  -0.490  -0.475  -0.468  -0.461  -0.452  -0.446
 -0.435  -0.427  -0.426  -0.419  -0.415  -0.413  -0.410  -0.405
 -0.399  -0.381  -0.375  -0.369  -0.363  -0.359  -0.351  -0.349
 -0.346  -0.341  -0.340  -0.336  -0.329  -0.327  -0.324  -0.315
 -0.309  -0.307  -0.302  -0.301  -0.295  -0.285  -0.283  -0.276
 -0.269  -0.257  -0.253  -0.248  -0.244  -0.237  -0.227  -0.194
 -0.179  -0.178  -0.167  -0.161  -0.158  -0.152  -0.148  -0.147
 -0.139

          Ground-State Mulliken Net Atomic Charges

     Atom                 Charge (a.u.)
  ----------------------------------------
      1 O                    -0.208393
      2 C                     0.211588
      3 C                    -0.077760
      4 C                    -0.091367
      5 C                     0.210241
      6 O                    -0.172411
      7 C                    -0.056112
      8 C                    -0.051533
      9 O                    -0.171529
     10 C                     0.216156
     11 C                    -0.078967
     12 C                    -0.082856
     13 C                     0.220537
     14 O                    -0.209126
     15 O                    -0.170395
     16 O                    -0.178038
     17 O                    -0.203644
     18 C                    -0.127909
     19 C                     0.025736
     20 C                    -0.143623
     21 C                    -0.144129
     22 C                     0.025328
     23 O                    -0.188047
     24 H                     0.087432
     25 H                     0.085882
     26 H                     0.086648
     27 H                     0.079240
     28 H                     0.075085
     29 H                     0.078877
     30 H                     0.073664
     31 H                     0.089325
     32 O                    -0.218292
     33 C                    -0.128349
     34 C                     0.024128
     35 C                    -0.144647
     36 C                    -0.154201
     37 C                     0.023980
     38 O                    -0.190307
     39 H                     0.083195
     40 H                     0.104476
     41 H                     0.092506
     42 H                     0.088709
     43 H                     0.076115
     44 H                     0.070515
     45 H                     0.069350
     46 H                     0.087834
     47 H                     0.075744
     48 H                     0.090469
     49 H                     0.089077
     50 H                     0.086120
     51 H                     0.090868
     52 H                     0.096284
     53 H                     0.098881
     54 H                     0.090898
     55 H                     0.100744
     56 H                     0.086003
  ----------------------------------------
  Sum of atomic charges =    -0.000000

                    Cartesian Multipole Moments
 -----------------------------------------------------------------
    Charge (ESU x 10^10)
                -0.0000
    Dipole Moment (Debye)
         X      -0.2200      Y       0.3092      Z      -0.8361
       Tot       0.9182
    Quadrupole Moments (Debye-Ang)
        XX    -170.0725     XY      -1.6034     YY    -144.7523
        XZ      19.7832     YZ      -4.7559     ZZ    -165.8893

 Total job time:  97.50s(wall), 4642.52s(cpu)
        *  Thank you very much for using Q-Chem.  Have a nice day.  *
