 Q-Chem 5.0, Q-Chem, Inc., Pleasanton, CA (2017)
 Q-Chem 5.0.1 for Intel X86 EM64T Linux

User input:
--------------------------------------------------------------
$molecule
0  1
O -5.6909557329 -0.218206566 -0.1315069328
C -4.4820005388 0.0167691036 -0.3416313073
C -3.3111476597 -1.0277388583 -0.3699039799
C -1.8761064657 -0.4598413911 -0.0257561044
C -1.7689601665 1.0631533225 0.3126331794
O -1.1030625216 1.7273000302 -0.7824201161
C -0.7656548513 3.1057173705 -0.3688304106
C 0.7238356449 3.3744017822 -0.7882540305
O 1.617923402 2.6949129266 0.1914469988
C 1.7856237174 1.3317464787 -0.2250150648
C 2.7193368384 0.5559842088 0.7539701583
C 2.9918849321 -0.923834343 0.2535014774
C 2.3790405023 -1.2840776089 -1.15829452
O 3.0282015871 -1.404866685 -2.2194635154
O -3.9711912573 1.3054802303 -0.7000335731
O 1.018213253 -1.7590251165 -1.02082072
O 1.3602173308 0.875152479 -1.3136962728
C 0.5053900387 -2.1183281893 -2.3637103196
C 4.1962083821 1.1457111617 0.7898021386
C 4.922865532 0.5586779013 2.0634303406
C 5.183932339 -0.9244796957 1.60398614
C 4.5736142657 -0.9074830028 0.1486861994
O 4.863793904 0.4627681604 -0.3390054978
H 2.2673599579 0.5663340727 1.7627875599
H 2.6249974753 -1.6608707933 0.9904230983
H 4.2496547891 2.2458071972 0.6742112082
H 5.866178997 1.0967589504 2.2487020583
H 4.2950911735 0.6223106977 2.9665744231
H 6.2611207659 -1.1516377418 1.5675135056
H 4.6888410691 -1.6643424451 2.2531939087
H 4.9835156432 -1.6570190648 -0.5553468101
O -2.034657287 1.6186707799 1.4019403807
C -5.04475443 2.3227262884 -0.6468881962
C -3.4862578807 -2.1255166209 0.7577419389
C -2.5153523356 -3.3340338595 0.4317092384
C -1.1301133122 -2.7512759788 0.8992872154
C -1.5487966459 -1.2905246636 1.3026516918
O -2.8739343653 -1.4757437968 1.9377652652
H -3.3088708327 -1.4879695836 -1.3763864839
H -1.1471489829 -0.6782514669 -0.8242779284
H -5.4541941952 2.4259648961 0.3786344516
H -4.5416067776 -2.3949505664 0.9595267333
H -2.797507381 -4.2263452484 1.0126615931
H -2.5307026218 -3.5929470986 -0.6393340114
H -0.751400147 -3.2902229515 1.782279291
H -0.3440038404 -2.7361256388 0.1243708744
H -0.8591549485 -0.7730617465 1.9967723062
H -5.8754817744 2.0718448662 -1.3375987567
H -4.5767481498 3.2750551966 -0.9566543804
H -0.4757935881 -2.6018456507 -2.2048938069
H 1.1866911156 -2.8198031208 -2.8859828598
H 0.3755494985 -1.2158753419 -2.9955482535
H 0.9065898872 2.9956375038 -1.8153471069
H 0.9584206022 4.4557677307 -0.7217097303
H -0.9080623777 3.2021434147 0.7298723867
H -1.4386994721 3.825013496 -0.885413096
$end

$rem
JOBTYPE                   OPT
METHOD                    B3LYP
DFT_D                     d3_op
BASIS                     STO-3G
GEOM_OPT_MAX_CYCLES       100
GEOM_OPT_TOL_GRADIENT     300
GEOM_OPT_TOL_DISPLACEMENT 1200
GEOM_OPT_TOL_ENERGY       100
SYMMETRY                  False
THRESH                    12
SCF_CONVERGENCE           8
MAX_SUB_FILE_NUM          128
MEM_STATIC                400
MEM_TOTAL                 4000
$end
--------------------------------------------------------------

   16   -1510.2878395785      5.63E-09 Convergence criterion met
 Total energy in the final basis set = -1510.28783958
   14   -1510.2877607149      4.28E-09 Convergence criterion met
 Total energy in the final basis set = -1510.28776071
   15   -1510.2821035348      2.66E-09 Convergence criterion met
 Total energy in the final basis set = -1510.28210353
   15   -1510.2825255225      3.75E-09 Convergence criterion met
 Total energy in the final basis set = -1510.28252552
   15   -1510.2826084855      5.48E-09 Convergence criterion met
 Total energy in the final basis set = -1510.28260849
   13   -1510.2861950839      5.38E-09 Convergence criterion met
 Total energy in the final basis set = -1510.28619508
   13   -1510.2879435779      3.48E-09 Convergence criterion met
 Total energy in the final basis set = -1510.28794358
   12   -1510.2892415651      8.77E-09 Convergence criterion met
   13   -1510.2987907047      1.53E-09 Convergence criterion met
 Total energy in the final basis set = -1510.29879070
   12   -1510.2989040409      6.04E-09 Convergence criterion met
 Total energy in the final basis set = -1510.29890404
   12   -1510.2988965654      2.66E-09 Convergence criterion met
 Total energy in the final basis set = -1510.29889657
   11   -1510.2989276732      9.77E-09 Convergence criterion met
 Total energy in the final basis set = -1510.29892767
   11   -1510.2989304435      4.72E-09 Convergence criterion met
 Total energy in the final basis set = -1510.29893044
   11   -1510.2989310322      1.96E-09 Convergence criterion met
 Total energy in the final basis set = -1510.29893103

             Standard Nuclear Orientation (Angstroms)
    I     Atom           X                Y                Z
 ----------------------------------------------------------------
    1      O      -5.1143143118    -0.2131641906     0.7111278108
    2      C      -4.0724448682    -0.0325950880     0.0462584948
    3      C      -2.8898590400    -1.0453416622    -0.1627426758
    4      C      -1.4514751522    -0.4326479939     0.1138806125
    5      C      -1.4495504460     1.1047657410     0.3973979458
    6      O      -1.0388290136     1.7677390825    -0.8139655589
    7      C      -0.8702700981     3.2181629279    -0.5756939957
    8      C       0.6647781939     3.5500087751    -0.6701581469
    9      O       1.4033350975     2.6483825604     0.2475650555
   10      C       1.7498231906     1.4355053790    -0.4248903485
   11      C       2.3234207310     0.4304745583     0.6258856507
   12      C       2.6030006983    -0.9963803812     0.0029621198
   13      C       2.2154879327    -1.1449592242    -1.5154254353
   14      O       2.9907071207    -1.1995205129    -2.4912684218
   15      O      -3.7783714587     1.1726891474    -0.6696876816
   16      O       0.7969028726    -1.4176471370    -1.6081822095
   17      O       1.6446691894     1.2416123530    -1.6579837908
   18      C       0.4002409948    -1.5419309394    -3.0280352444
   19      C       3.7866109825     0.8490172710     1.0884210670
   20      C       4.1697651955    -0.0013441375     2.3632398374
   21      C       4.4657198397    -1.4051755477     1.7153679954
   22      C       4.1737810615    -1.1049078238     0.1942782148
   23      O       4.6429734182     0.2902809199     0.0194071893
   24      H       1.6297038588     0.3833059885     1.4840355118
   25      H       2.0694422761    -1.7763686751     0.5729580075
   26      H       3.9362508469     1.9420417204     1.1847118292
   27      H       5.0653762548     0.4180464354     2.8485296023
   28      H       3.3517493095    -0.0361106276     3.1007548043
   29      H       5.5177131197    -1.7002705592     1.8555384595
   30      H       3.8184680400    -2.2030477151     2.1132584101
   31      H       4.6724963967    -1.7712607621    -0.5357482049
   32      O      -1.6970907524     1.6992652233     1.4691996405
   33      C      -4.8283729598     2.1859586717    -0.4194641478
   34      C      -2.9625261377    -2.1766659778     0.9435899491
   35      C      -1.9970627457    -3.3556185220     0.5325849543
   36      C      -0.5911110252    -2.7160741546     0.8327852785
   37      C      -1.0164082787    -1.2934162296     1.3766218741
   38      O      -2.2810483394    -1.5501067295     2.0995780540
   39      H      -2.9536533071    -1.4566894259    -1.1873249991
   40      H      -0.7494033176    -0.6245870565    -0.7232351501
   41      H      -4.8409436113     2.4969311896     0.6453820502
   42      H      -3.9968430220    -2.4658763025     1.2142868164
   43      H      -2.1839932839    -4.2422314689     1.1593353442
   44      H      -2.1172723360    -3.6397903172    -0.5252036411
   45      H      -0.0420643410    -3.2837014052     1.6005233951
   46      H       0.0293514316    -2.6180561404    -0.0753566897
   47      H      -0.2856794817    -0.7980363727     2.0442540373
   48      H      -5.8350051124     1.8074317976    -0.6898113200
   49      H      -4.5727529936     3.0534854371    -1.0550953184
   50      H      -0.6616470813    -1.8497202166    -3.0255868936
   51      H       1.0105588765    -2.3019168487    -3.5563287913
   52      H       0.5042962208    -0.5713508190    -3.5548431220
   53      H       1.0229792485     3.4072067605    -1.7115292742
   54      H       0.8627275282     4.5875723254    -0.3337098446
   55      H      -1.2609967435     3.4565100866     0.4377238259
   56      H      -1.4345987253     3.7758870824    -1.3515343420
 ----------------------------------------------------------------

    9   -1510.2989314068      5.67E-09 Convergence criterion met
 Total energy in the final basis set = -1510.29893141
 Final energy is   -1510.29893140684
 **  OPTIMIZATION CONVERGED  **

                    Orbital Energies (a.u.)
 --------------------------------------------------------------

 Alpha MOs
 -- Occupied --
-18.943 -18.937 -18.935 -18.927 -18.890 -18.889 -18.881 -18.878
-18.874 -18.871 -10.110 -10.101 -10.099 -10.095 -10.077 -10.068
-10.066 -10.064 -10.064 -10.060 -10.053 -10.053 -10.044 -10.039
-10.035 -10.023 -10.023 -10.022 -10.015 -10.008  -1.025  -1.014
 -1.008  -1.003  -0.973  -0.965  -0.948  -0.937  -0.935  -0.932
 -0.767  -0.758  -0.729  -0.721  -0.714  -0.704  -0.696  -0.663
 -0.662  -0.620  -0.599  -0.577  -0.549  -0.542  -0.540  -0.534
 -0.515  -0.506  -0.490  -0.475  -0.469  -0.461  -0.453  -0.446
 -0.435  -0.427  -0.425  -0.419  -0.415  -0.413  -0.410  -0.405
 -0.399  -0.381  -0.375  -0.369  -0.363  -0.359  -0.350  -0.349
 -0.345  -0.341  -0.340  -0.336  -0.329  -0.327  -0.324  -0.315
 -0.309  -0.306  -0.303  -0.301  -0.295  -0.285  -0.282  -0.277
 -0.269  -0.257  -0.253  -0.248  -0.243  -0.237  -0.227  -0.193
 -0.179  -0.178  -0.167  -0.161  -0.158  -0.153  -0.148  -0.147
 -0.139

          Ground-State Mulliken Net Atomic Charges

     Atom                 Charge (a.u.)
  ----------------------------------------
      1 O                    -0.208909
      2 C                     0.211658
      3 C                    -0.077923
      4 C                    -0.092445
      5 C                     0.210435
      6 O                    -0.172781
      7 C                    -0.056789
      8 C                    -0.051582
      9 O                    -0.171610
     10 C                     0.216500
     11 C                    -0.078794
     12 C                    -0.082828
     13 C                     0.220575
     14 O                    -0.209105
     15 O                    -0.169966
     16 O                    -0.178116
     17 O                    -0.203525
     18 C                    -0.127800
     19 C                     0.025699
     20 C                    -0.143657
     21 C                    -0.144084
     22 C                     0.025306
     23 O                    -0.188047
     24 H                     0.087014
     25 H                     0.085651
     26 H                     0.086544
     27 H                     0.079257
     28 H                     0.074931
     29 H                     0.078931
     30 H                     0.073584
     31 H                     0.089519
     32 O                    -0.218671
     33 C                    -0.128374
     34 C                     0.024074
     35 C                    -0.144313
     36 C                    -0.153023
     37 C                     0.024213
     38 O                    -0.190133
     39 H                     0.082767
     40 H                     0.105836
     41 H                     0.092147
     42 H                     0.088983
     43 H                     0.076204
     44 H                     0.070746
     45 H                     0.069852
     46 H                     0.086094
     47 H                     0.075808
     48 H                     0.090996
     49 H                     0.089259
     50 H                     0.086105
     51 H                     0.090782
     52 H                     0.096512
     53 H                     0.099001
     54 H                     0.090842
     55 H                     0.101264
     56 H                     0.085387
  ----------------------------------------
  Sum of atomic charges =    -0.000000

                    Cartesian Multipole Moments
 -----------------------------------------------------------------
    Charge (ESU x 10^10)
                -0.0000
    Dipole Moment (Debye)
         X      -0.0849      Y       0.3163      Z      -0.7122
       Tot       0.7839
    Quadrupole Moments (Debye-Ang)
        XX    -170.2967     XY      -5.4533     YY    -144.4310
        XZ      19.7076     YZ      -1.0942     ZZ    -166.2953

 Total job time:  100.79s(wall), 4803.65s(cpu)
        *  Thank you very much for using Q-Chem.  Have a nice day.  *
