 Q-Chem 5.0, Q-Chem, Inc., Pleasanton, CA (2017)
 Q-Chem 5.0.1 for Intel X86 EM64T Linux

User input:
--------------------------------------------------------------
$molecule
0  1
O -3.94934 -3.66094 2.70899
C -3.26408 -4.56952 2.26188
C -3.36658 -6.02376 2.66595
C -2.10723 -6.88981 2.4991
C -0.8364 -6.16506 2.11461
O -0.50416 -6.46389 0.82398
C 0.80641 -6.01616 0.46176
C 1.55844 -7.12564 -0.26599
O 2.03118 -8.09809 0.67939
C 1.14216 -9.06588 1.01433
C 1.69982 -10.05964 2.00535
C 0.76365 -11.22804 2.34694
C -0.40985 -11.43032 1.40956
O -0.50724 -12.32089 0.57772
O -2.51232 -4.29641 1.16167
O -1.5117 -10.66583 1.65115
O 0.02548 -9.08698 0.5215
C -2.68913 -10.76469 0.93545
C 2.93996 -10.81543 1.4884
C 3.76197 -11.31322 2.67521
C 2.85271 -12.40016 3.2095
C 1.75782 -12.39269 2.135
O 2.4303 -12.01232 0.95979
H 1.97783 -9.47492 2.91143
H 0.37379 -11.21559 3.38862
H 3.57798 -10.21303 0.80579
H 4.67774 -11.78914 2.25628
H 4.05907 -10.5381 3.41401
H 3.41351 -13.3611 3.20043
H 2.42964 -12.21296 4.22022
H 1.24853 -13.38146 2.1057
O -0.30257 -5.29967 2.80074
C -2.35123 -3.04211 0.61098
C -3.56089 -6.16436 4.19593
C -4.19723 -7.51599 4.52173
C -3.02732 -8.44348 4.27589
C -1.93607 -7.4292 3.92779
O -2.26025 -6.30869 4.71232
H -4.26794 -6.43608 2.16025
H -2.28932 -7.70443 1.76168
H -1.88875 -2.35682 1.35319
H -4.17299 -5.34954 4.64065
H -4.42964 -7.52454 5.61084
H -5.11976 -7.7488 3.9476
H -2.77633 -8.95475 5.23198
H -3.17791 -9.19677 3.47787
H -0.92828 -7.87121 4.09505
H -3.33251 -2.63697 0.28401
H -1.68251 -3.11646 -0.27098
H -3.4202 -10.02435 1.31567
H -3.12092 -11.78219 1.04638
H -2.50153 -10.55166 -0.13871
H 0.99616 -7.5649 -1.12113
H 2.46432 -6.6517 -0.70083
H 1.44091 -5.62552 1.29037
H 0.66749 -5.19094 -0.26949
$end

$opt
CONSTRAINT
tors           1           2           3           4    -154.158
tors           3           4           5           6    -108.963
tors           4           5           6           7    -169.306
tors           5           6           7           8    +133.532
tors           6           7           8           9     -77.274
tors           7           8           9          10     +85.373
tors           8           9          10          11    +179.743
tors           9          10          11          12    -176.175
tors          11          12          13          14    +105.720
ENDCONSTRAINT
$end

$rem
JOBTYPE                   OPT
METHOD                    B3LYP
DFT_D                     d3_op
BASIS                     STO-3G
GEOM_OPT_MAX_CYCLES       100
GEOM_OPT_TOL_GRADIENT     300
GEOM_OPT_TOL_DISPLACEMENT 1200
GEOM_OPT_TOL_ENERGY       100
SYMMETRY                  False
THRESH                    12
SCF_CONVERGENCE           8
MAX_SUB_FILE_NUM          128
MEM_STATIC                400
MEM_TOTAL                 4000
$end
--------------------------------------------------------------

   15   -1510.1541766057      5.91E-09 Convergence criterion met
 Total energy in the final basis set = -1510.15417661
   14   -1510.2240406193      6.10E-09 Convergence criterion met
 Total energy in the final basis set = -1510.22404062
   14   -1510.2604021134      7.44E-09 Convergence criterion met
 Total energy in the final basis set = -1510.26040211
   14   -1510.2744129837      9.26E-09 Convergence criterion met
 Total energy in the final basis set = -1510.27441298
   14   -1510.2787271206      4.16E-09 Convergence criterion met
 Total energy in the final basis set = -1510.27872712
   14   -1510.2828209779      5.09E-09 Convergence criterion met
 Total energy in the final basis set = -1510.28282098
   14   -1510.2855515824      3.61E-09 Convergence criterion met
 Total energy in the final basis set = -1510.28555158
   12   -1510.2863335928      8.69E-09 Convergence criterion met
   10   -1510.2878228957      9.20E-09 Convergence criterion met
 Total energy in the final basis set = -1510.28782290
   10   -1510.2878276291      6.00E-09 Convergence criterion met
 Total energy in the final basis set = -1510.28782763
   10   -1510.2878217526      7.10E-09 Convergence criterion met
 Total energy in the final basis set = -1510.28782175
    9   -1510.2878321734      8.98E-09 Convergence criterion met
 Total energy in the final basis set = -1510.28783217
    9   -1510.2878246550      4.02E-09 Convergence criterion met
 Total energy in the final basis set = -1510.28782466
    9   -1510.2878339440      5.79E-09 Convergence criterion met
 Total energy in the final basis set = -1510.28783394

             Standard Nuclear Orientation (Angstroms)
    I     Atom           X                Y                Z
 ----------------------------------------------------------------
    1      O      -5.6909557329    -0.2182065660    -0.1315069328
    2      C      -4.4820005388     0.0167691036    -0.3416313073
    3      C      -3.3111476597    -1.0277388583    -0.3699039799
    4      C      -1.8761064657    -0.4598413911    -0.0257561044
    5      C      -1.7689601665     1.0631533225     0.3126331794
    6      O      -1.1030625216     1.7273000302    -0.7824201161
    7      C      -0.7656548513     3.1057173705    -0.3688304106
    8      C       0.7238356449     3.3744017822    -0.7882540305
    9      O       1.6179234020     2.6949129266     0.1914469988
   10      C       1.7856237174     1.3317464787    -0.2250150648
   11      C       2.7193368384     0.5559842088     0.7539701583
   12      C       2.9918849321    -0.9238343430     0.2535014774
   13      C       2.3790405023    -1.2840776089    -1.1582945200
   14      O       3.0282015871    -1.4048666850    -2.2194635154
   15      O      -3.9711912573     1.3054802303    -0.7000335731
   16      O       1.0182132530    -1.7590251165    -1.0208207200
   17      O       1.3602173308     0.8751524790    -1.3136962728
   18      C       0.5053900387    -2.1183281893    -2.3637103196
   19      C       4.1962083821     1.1457111617     0.7898021386
   20      C       4.9228655320     0.5586779013     2.0634303406
   21      C       5.1839323390    -0.9244796957     1.6039861400
   22      C       4.5736142657    -0.9074830028     0.1486861994
   23      O       4.8637939040     0.4627681604    -0.3390054978
   24      H       2.2673599579     0.5663340727     1.7627875599
   25      H       2.6249974753    -1.6608707933     0.9904230983
   26      H       4.2496547891     2.2458071972     0.6742112082
   27      H       5.8661789970     1.0967589504     2.2487020583
   28      H       4.2950911735     0.6223106977     2.9665744231
   29      H       6.2611207659    -1.1516377418     1.5675135056
   30      H       4.6888410691    -1.6643424451     2.2531939087
   31      H       4.9835156432    -1.6570190648    -0.5553468101
   32      O      -2.0346572870     1.6186707799     1.4019403807
   33      C      -5.0447544300     2.3227262884    -0.6468881962
   34      C      -3.4862578807    -2.1255166209     0.7577419389
   35      C      -2.5153523356    -3.3340338595     0.4317092384
   36      C      -1.1301133122    -2.7512759788     0.8992872154
   37      C      -1.5487966459    -1.2905246636     1.3026516918
   38      O      -2.8739343653    -1.4757437968     1.9377652652
   39      H      -3.3088708327    -1.4879695836    -1.3763864839
   40      H      -1.1471489829    -0.6782514669    -0.8242779284
   41      H      -5.4541941952     2.4259648961     0.3786344516
   42      H      -4.5416067776    -2.3949505664     0.9595267333
   43      H      -2.7975073810    -4.2263452484     1.0126615931
   44      H      -2.5307026218    -3.5929470986    -0.6393340114
   45      H      -0.7514001470    -3.2902229515     1.7822792910
   46      H      -0.3440038404    -2.7361256388     0.1243708744
   47      H      -0.8591549485    -0.7730617465     1.9967723062
   48      H      -5.8754817744     2.0718448662    -1.3375987567
   49      H      -4.5767481498     3.2750551966    -0.9566543804
   50      H      -0.4757935881    -2.6018456507    -2.2048938069
   51      H       1.1866911156    -2.8198031208    -2.8859828598
   52      H       0.3755494985    -1.2158753419    -2.9955482535
   53      H       0.9065898872     2.9956375038    -1.8153471069
   54      H       0.9584206022     4.4557677307    -0.7217097303
   55      H      -0.9080623777     3.2021434147     0.7298723867
   56      H      -1.4386994721     3.8250134960    -0.8854130960
 ----------------------------------------------------------------

    8   -1510.2878341460      9.93E-09 Convergence criterion met
 Total energy in the final basis set = -1510.28783415
 Final energy is   -1510.28783414596
 **  OPTIMIZATION CONVERGED  **

                    Orbital Energies (a.u.)
 --------------------------------------------------------------

 Alpha MOs
 -- Occupied --
-18.946 -18.942 -18.925 -18.923 -18.892 -18.890 -18.881 -18.878
-18.864 -18.862 -10.109 -10.102 -10.094 -10.094 -10.077 -10.068
-10.066 -10.064 -10.059 -10.058 -10.055 -10.051 -10.044 -10.038
-10.037 -10.029 -10.023 -10.021 -10.015 -10.006  -1.025  -1.016
 -1.003  -1.000  -0.972  -0.965  -0.947  -0.940  -0.929  -0.926
 -0.765  -0.759  -0.727  -0.719  -0.714  -0.704  -0.694  -0.664
 -0.658  -0.619  -0.598  -0.578  -0.547  -0.541  -0.539  -0.532
 -0.513  -0.508  -0.490  -0.475  -0.464  -0.457  -0.452  -0.446
 -0.435  -0.430  -0.425  -0.416  -0.414  -0.413  -0.406  -0.404
 -0.397  -0.383  -0.375  -0.364  -0.363  -0.357  -0.351  -0.348
 -0.344  -0.337  -0.335  -0.334  -0.327  -0.325  -0.323  -0.315
 -0.307  -0.305  -0.303  -0.300  -0.294  -0.288  -0.279  -0.277
 -0.266  -0.261  -0.248  -0.247  -0.245  -0.236  -0.228  -0.195
 -0.180  -0.171  -0.165  -0.159  -0.156  -0.147  -0.146  -0.143
 -0.139

          Ground-State Mulliken Net Atomic Charges

     Atom                 Charge (a.u.)
  ----------------------------------------
      1 O                    -0.210875
      2 C                     0.213725
      3 C                    -0.077677
      4 C                    -0.084233
      5 C                     0.215494
      6 O                    -0.171464
      7 C                    -0.057365
      8 C                    -0.051954
      9 O                    -0.167333
     10 C                     0.212132
     11 C                    -0.079328
     12 C                    -0.080739
     13 C                     0.217189
     14 O                    -0.218321
     15 O                    -0.167028
     16 O                    -0.178936
     17 O                    -0.198251
     18 C                    -0.130367
     19 C                     0.025261
     20 C                    -0.143163
     21 C                    -0.144664
     22 C                     0.025627
     23 O                    -0.187679
     24 H                     0.086370
     25 H                     0.083589
     26 H                     0.086914
     27 H                     0.078962
     28 H                     0.074205
     29 H                     0.078851
     30 H                     0.073716
     31 H                     0.089996
     32 O                    -0.223347
     33 C                    -0.126352
     34 C                     0.024274
     35 C                    -0.144812
     36 C                    -0.153429
     37 C                     0.027219
     38 O                    -0.190455
     39 H                     0.084146
     40 H                     0.095645
     41 H                     0.093355
     42 H                     0.087916
     43 H                     0.076363
     44 H                     0.069054
     45 H                     0.072078
     46 H                     0.090562
     47 H                     0.079489
     48 H                     0.091276
     49 H                     0.090921
     50 H                     0.082257
     51 H                     0.090599
     52 H                     0.092327
     53 H                     0.103834
     54 H                     0.090693
     55 H                     0.103301
     56 H                     0.080435
  ----------------------------------------
  Sum of atomic charges =    -0.000000

                    Cartesian Multipole Moments
 -----------------------------------------------------------------
    Charge (ESU x 10^10)
                -0.0000
    Dipole Moment (Debye)
         X       0.5999      Y       0.6831      Z       0.0329
       Tot       0.9097
    Quadrupole Moments (Debye-Ang)
        XX    -169.9659     XY      -4.3953     YY    -145.1098
        XZ      19.1693     YZ      -2.1375     ZZ    -165.1060

 Total job time:  68.28s(wall), 3254.23s(cpu)
        *  Thank you very much for using Q-Chem.  Have a nice day.  *
