 Q-Chem 5.0, Q-Chem, Inc., Pleasanton, CA (2017)
 Q-Chem 5.0.1 for Intel X86 EM64T Linux

User input:
--------------------------------------------------------------
$molecule
0  1
O -5.8415554452 0.3637906224 -0.0043039295
C -4.6422684151 0.3367433482 -0.3530748143
C -3.7155196633 -0.9278705846 -0.4279527308
C -2.1766735638 -0.6795835716 -0.1230483564
C -1.8443384024 0.7870768245 0.3175457992
O -1.1055971771 1.4365491205 -0.734657102
C -0.7784838396 2.8165001521 -0.3118323739
C 0.6959739313 3.1909054405 -0.6936105027
O 1.6797487219 2.5416580048 0.2082720294
C 1.918035797 1.1904856484 -0.1945336462
C 2.9637764896 0.5515891882 0.7795784935
C 3.4686411731 -0.8648840638 0.2864539301
C 2.8148153878 -1.3684917331 -1.0544985758
O 3.3581443497 -1.4031041068 -2.1793419933
O -3.9216518944 1.47992449 -0.8261894689
O 1.5607504988 -2.0055370578 -0.7497129774
O 1.4444382848 0.6666279909 -1.228410879
C 0.9286032283 -2.4427913843 -2.0138586958
C 4.3245468876 1.3742290864 0.7858928705
C 5.1892856083 0.897792902 2.0185768543
C 5.6961225269 -0.5029715323 1.5097868824
C 5.0148622555 -0.5755836833 0.0876110872
O 5.0476386467 0.8295285701 -0.3842517399
H 2.5224215787 0.5003473846 1.7917960482
H 3.2893299822 -1.6309365314 1.0619777821
H 4.1875329601 2.4689883708 0.6918495597
H 6.02583857 1.5929408733 2.1931496236
H 4.5908133044 0.8261889431 2.9409129848
H 6.7932318887 -0.5238216437 1.4127658231
H 5.3829264277 -1.3324941741 2.1634945504
H 5.5066781598 -1.2381083114 -0.6504684826
O -2.0787490841 1.3089355548 1.4305026645
C -4.758684946 2.6963710069 -0.7203017985
C -4.0969528914 -1.9708138606 0.7046252126
C -3.5224879149 -3.3820283262 0.2994296417
C -1.9864739862 -3.1638832519 0.5631409094
C -1.9690249702 -1.6779019161 1.0977279231
O -3.2432445602 -1.5638440939 1.8450268544
H -3.8396554256 -1.3706533771 -1.4343907686
H -1.5463578854 -0.9360541605 -0.9921146597
H -4.9975277588 2.9307144108 0.337178646
H -5.167446111 -1.9454941135 0.9881373618
H -3.9372420955 -4.1685923964 0.949637837
H -3.742637222 -3.6372179636 -0.749489665
H -1.6048008052 -3.8515921076 1.3342708881
H -1.3791871564 -3.2847765765 -0.3465661061
H -1.1130049682 -1.425172178 1.7527726017
H -5.707892399 2.5869786104 -1.2832120944
H -4.1595940346 3.5171155258 -1.1553544671
H 0.0545915078 -3.0570076798 -1.7316537998
H 1.62317607 -3.047010061 -2.6321809581
H 0.5920836226 -1.5704742581 -2.6114829444
H 0.8937774235 2.9166477584 -1.7521727845
H 0.8394733933 4.2817235805 -0.5553583844
H -0.9449948297 2.8978769017 0.785318371
H -1.4664702764 3.5221475231 -0.8280306996
$end

$rem
JOBTYPE                   OPT
METHOD                    B3LYP
DFT_D                     d3_op
BASIS                     STO-3G
GEOM_OPT_MAX_CYCLES       100
GEOM_OPT_TOL_GRADIENT     300
GEOM_OPT_TOL_DISPLACEMENT 1200
GEOM_OPT_TOL_ENERGY       100
SYMMETRY                  False
THRESH                    12
SCF_CONVERGENCE           8
MAX_SUB_FILE_NUM          128
MEM_STATIC                400
MEM_TOTAL                 4000
$end
--------------------------------------------------------------

   16   -1510.2873258882      5.11E-09 Convergence criterion met
 Total energy in the final basis set = -1510.28732589
   14   -1510.2871618895      7.42E-09 Convergence criterion met
 Total energy in the final basis set = -1510.28716189
   14   -1510.2892299057      9.43E-09 Convergence criterion met
 Total energy in the final basis set = -1510.28922991
   15   -1510.2874681127      3.45E-09 Convergence criterion met
 Total energy in the final basis set = -1510.28746811
   15   -1510.2920057084      2.88E-09 Convergence criterion met
 Total energy in the final basis set = -1510.29200571
   14   -1510.2939537591      8.51E-09 Convergence criterion met
 Total energy in the final basis set = -1510.29395376
   14   -1510.2953754499      8.67E-09 Convergence criterion met
 Total energy in the final basis set = -1510.29537545
   15   -1510.2933797720      1.84E-09 Convergence criterion met
   13   -1510.2986699749      3.45E-09 Convergence criterion met
 Total energy in the final basis set = -1510.29866997
   12   -1510.2991431788      7.98E-09 Convergence criterion met
 Total energy in the final basis set = -1510.29914318
   12   -1510.2991310298      5.55E-09 Convergence criterion met
 Total energy in the final basis set = -1510.29913103
   12   -1510.2991499070      3.47E-09 Convergence criterion met
 Total energy in the final basis set = -1510.29914991
   11   -1510.2991540714      3.10E-09 Convergence criterion met
 Total energy in the final basis set = -1510.29915407
   11   -1510.2991520653      2.71E-09 Convergence criterion met
 Total energy in the final basis set = -1510.29915207

             Standard Nuclear Orientation (Angstroms)
    I     Atom           X                Y                Z
 ----------------------------------------------------------------
    1      O      -5.1075174615     0.1972068158     0.7969592422
    2      C      -4.0793264380     0.2572426031     0.0904533440
    3      C      -2.9797236234    -0.8512668153    -0.0823895208
    4      C      -1.4934120213    -0.3307450564     0.1184621361
    5      C      -1.3677853163     1.2215633467     0.2559766432
    6      O      -0.9609016400     1.7328892955    -1.0282274192
    7      C      -0.6985628996     3.1861291248    -0.9449860647
    8      C       0.8528845646     3.4105452851    -1.0784127330
    9      O       1.5408634097     2.5709606220    -0.0677928242
   10      C       1.8070163593     1.2717625580    -0.6013969764
   11      C       2.3151133778     0.3561639035     0.5587861297
   12      C       2.5161103843    -1.1443737434     0.1018292511
   13      C       2.1380830496    -1.4356995155    -1.3983925485
   14      O       2.9182213343    -1.6361042256    -2.3509340588
   15      O      -3.7260248394     1.3874851797    -0.7157244681
   16      O       0.7071110398    -1.6363328828    -1.4862696994
   17      O       1.6880217931     0.9492840331    -1.8060263598
   18      C       0.3206402040    -1.8949183490    -2.8907815835
   19      C       3.7962366488     0.7403353107     0.9937323136
   20      C       4.1156664595     0.0218987715     2.3641440719
   21      C       4.3280232932    -1.4628541547     1.8862827065
   22      C       4.0747605788    -1.3221762860     0.3351267337
   23      O       4.6296685976     0.0135910657     0.0112247522
   24      H       1.6138017250     0.4422711755     1.4077545134
   25      H       1.9296887454    -1.8247292418     0.7430732739
   26      H       4.0090988776     1.8266574535     0.9663349837
   27      H       5.0320930868     0.4386867212     2.8113089178
   28      H       3.2910316748     0.1246535398     3.0875623872
   29      H       5.3571310944    -1.8051576860     2.0790816663
   30      H       3.6264766873    -2.1680565670     2.3598768281
   31      H       4.5419857982    -2.0964615769    -0.3034798721
   32      O      -1.5277297277     1.9304969858     1.2732909577
   33      C      -4.6948723284     2.4874431747    -0.5083963243
   34      C      -3.1006970936    -1.8972496279     1.1014195550
   35      C      -2.2197791830    -3.1617127200     0.7621650800
   36      C      -0.7706388385    -2.5994369909     1.0066086733
   37      C      -1.0941523228    -1.1147180509     1.4421825937
   38      O      -2.3597983831    -1.2332322357     2.1986890202
   39      H      -3.1036135907    -1.3222510353    -1.0751845929
   40      H      -0.8298909978    -0.6492406426    -0.7105553907
   41      H      -4.6681243749     2.8556144561     0.5377521268
   42      H      -4.1454484238    -2.1003165417     1.4077943777
   43      H      -2.4563421106    -3.9898131431     1.4490753117
   44      H      -2.3736565701    -3.5077847181    -0.2726487044
   45      H      -0.2555750837    -3.1433899245     1.8140615306
   46      H      -0.1514505154    -2.6094821446     0.0917433041
   47      H      -0.3221810283    -0.6167513323     2.0596661882
   48      H      -5.7305825326     2.1703412446    -0.7460901118
   49      H      -4.3865795124     3.2979196195    -1.1940185381
   50      H      -0.7549442126    -2.1498827779    -2.8727641861
   51      H       0.8992000499    -2.7355474881    -3.3240282782
   52      H       0.4782856532    -0.9927725813    -3.5165278437
   53      H       1.1951090629     3.1334514566    -2.0981166073
   54      H       1.1166627409     4.4644773218    -0.8575216514
   55      H      -1.0615764899     3.5563695109     0.0387257115
   56      H      -1.2348640565     3.6922694881    -1.7742197791
 ----------------------------------------------------------------

    8   -1510.2991513618      8.22E-09 Convergence criterion met
 Total energy in the final basis set = -1510.29915136
 Final energy is   -1510.29915136180
 **  OPTIMIZATION CONVERGED  **

                    Orbital Energies (a.u.)
 --------------------------------------------------------------

 Alpha MOs
 -- Occupied --
-18.943 -18.937 -18.935 -18.927 -18.890 -18.889 -18.881 -18.878
-18.874 -18.871 -10.110 -10.101 -10.099 -10.096 -10.077 -10.069
-10.066 -10.064 -10.064 -10.060 -10.053 -10.052 -10.044 -10.039
-10.035 -10.024 -10.023 -10.022 -10.015 -10.007  -1.025  -1.014
 -1.008  -1.003  -0.973  -0.965  -0.948  -0.938  -0.935  -0.933
 -0.767  -0.758  -0.729  -0.721  -0.713  -0.704  -0.695  -0.663
 -0.662  -0.620  -0.599  -0.577  -0.549  -0.542  -0.540  -0.533
 -0.514  -0.506  -0.490  -0.475  -0.468  -0.461  -0.452  -0.446
 -0.435  -0.427  -0.425  -0.419  -0.415  -0.413  -0.410  -0.405
 -0.399  -0.381  -0.375  -0.369  -0.363  -0.359  -0.351  -0.349
 -0.346  -0.341  -0.340  -0.336  -0.329  -0.327  -0.324  -0.315
 -0.309  -0.307  -0.302  -0.301  -0.295  -0.285  -0.283  -0.276
 -0.269  -0.256  -0.253  -0.248  -0.243  -0.237  -0.227  -0.193
 -0.179  -0.178  -0.167  -0.161  -0.158  -0.152  -0.148  -0.147
 -0.139

          Ground-State Mulliken Net Atomic Charges

     Atom                 Charge (a.u.)
  ----------------------------------------
      1 O                    -0.208676
      2 C                     0.211791
      3 C                    -0.077864
      4 C                    -0.091435
      5 C                     0.210644
      6 O                    -0.172648
      7 C                    -0.056383
      8 C                    -0.051512
      9 O                    -0.171623
     10 C                     0.216199
     11 C                    -0.078929
     12 C                    -0.082820
     13 C                     0.220521
     14 O                    -0.209083
     15 O                    -0.170086
     16 O                    -0.177980
     17 O                    -0.203638
     18 C                    -0.127915
     19 C                     0.025717
     20 C                    -0.143632
     21 C                    -0.144144
     22 C                     0.025314
     23 O                    -0.188019
     24 H                     0.087286
     25 H                     0.085861
     26 H                     0.086627
     27 H                     0.079247
     28 H                     0.075056
     29 H                     0.078890
     30 H                     0.073661
     31 H                     0.089315
     32 O                    -0.218617
     33 C                    -0.128241
     34 C                     0.024074
     35 C                    -0.144580
     36 C                    -0.154206
     37 C                     0.024035
     38 O                    -0.190369
     39 H                     0.083134
     40 H                     0.104549
     41 H                     0.092494
     42 H                     0.088822
     43 H                     0.076108
     44 H                     0.070525
     45 H                     0.069337
     46 H                     0.087761
     47 H                     0.075721
     48 H                     0.090709
     49 H                     0.089234
     50 H                     0.086067
     51 H                     0.090932
     52 H                     0.096340
     53 H                     0.098877
     54 H                     0.090851
     55 H                     0.101020
     56 H                     0.085681
  ----------------------------------------
  Sum of atomic charges =    -0.000000

                    Cartesian Multipole Moments
 -----------------------------------------------------------------
    Charge (ESU x 10^10)
                -0.0000
    Dipole Moment (Debye)
         X      -0.1795      Y       0.3329      Z      -0.7938
       Tot       0.8793
    Quadrupole Moments (Debye-Ang)
        XX    -170.5140     XY      -2.1001     YY    -144.4995
        XZ      19.6464     YZ      -4.2150     ZZ    -165.7730

 Total job time:  88.75s(wall), 4226.33s(cpu)
        *  Thank you very much for using Q-Chem.  Have a nice day.  *
