 Q-Chem 5.0, Q-Chem, Inc., Pleasanton, CA (2017)
 Q-Chem 5.0.1 for Intel X86 EM64T Linux

User input:
--------------------------------------------------------------
$molecule
0  1
O -3.94934 -3.66094 2.70899
C -3.26408 -4.56952 2.26188
C -3.36658 -6.02376 2.66595
C -2.07301 -6.85419 2.63595
C -0.79033 -6.09543 2.37688
O -0.3078 -6.40905 1.13824
C 0.9175 -5.73847 0.82484
C 1.88625 -6.70274 0.14821
O 2.44416 -7.5994 1.12167
C 1.66363 -8.65712 1.45506
C 2.30723 -9.5645 2.47639
C 1.56695 -10.88673 2.72534
C 0.525 -11.26536 1.69205
O 0.65332 -12.13393 0.84136
O -2.5484 -4.32224 1.13216
O -0.71195 -10.72292 1.87054
O 0.58613 -8.84056 0.91174
C -1.80596 -11.00794 1.07907
C 3.69445 -10.08946 2.04532
C 4.50173 -10.46728 3.28543
C 3.75439 -11.70314 3.73976
C 2.75918 -11.85926 2.58295
O 3.44054 -11.34321 1.46704
H 2.42602 -8.96037 3.40409
H 1.09952 -10.96776 3.73139
H 4.27194 -9.37413 1.42054
H 5.51224 -10.77307 2.93024
H 4.61107 -9.6705 4.05228
H 4.47057 -12.5541 3.76961
H 3.22859 -11.61002 4.71469
H 2.43098 -12.91953 2.50485
O -0.37493 -5.19419 3.09776
C -2.39833 -3.07808 0.55652
C -3.74896 -6.19111 4.15324
C -4.36481 -7.57156 4.38424
C -3.13616 -8.45031 4.28153
C -2.0512 -7.39036 4.07594
O -2.51458 -6.29078 4.82174
H -4.16178 -6.46564 2.02476
H -2.15232 -7.67966 1.89093
H -1.9058 -2.38475 1.27141
H -4.44293 -5.40511 4.5227
H -4.73433 -7.60528 5.43418
H -5.19548 -7.83068 3.69302
H -2.98423 -8.95896 5.25964
H -3.15687 -9.20235 3.46563
H -1.05439 -7.79419 4.36201
H -3.38766 -2.67093 0.25738
H -1.76126 -3.17079 -0.34686
H -2.67882 -10.4258 1.43597
H -2.04977 -12.09017 1.13721
H -1.59838 -10.7253 0.02488
H 1.45225 -7.22505 -0.73442
H 2.72819 -6.08503 -0.23106
H 1.43871 -5.2401 1.6738
H 0.67177 -4.95585 0.07498
$end

$opt
CONSTRAINT
tors           1           2           3           4    -148.059
tors           3           4           5           6    -109.968
tors           4           5           6           7    -179.356
tors           5           6           7           8    +137.504
tors           6           7           8           9     -75.178
tors           7           8           9          10     +81.324
tors           8           9          10          11    +179.743
tors           9          10          11          12    -170.882
tors          11          12          13          14    +105.466
ENDCONSTRAINT
$end

$rem
JOBTYPE                   OPT
METHOD                    B3LYP
DFT_D                     d3_op
BASIS                     STO-3G
GEOM_OPT_MAX_CYCLES       100
GEOM_OPT_TOL_GRADIENT     300
GEOM_OPT_TOL_DISPLACEMENT 1200
GEOM_OPT_TOL_ENERGY       100
SYMMETRY                  False
THRESH                    12
SCF_CONVERGENCE           8
MAX_SUB_FILE_NUM          128
MEM_STATIC                400
MEM_TOTAL                 4000
$end
--------------------------------------------------------------

   15   -1510.1543714387      6.08E-09 Convergence criterion met
 Total energy in the final basis set = -1510.15437144
   14   -1510.2241403668      6.20E-09 Convergence criterion met
 Total energy in the final basis set = -1510.22414037
   14   -1510.2608732274      5.80E-09 Convergence criterion met
 Total energy in the final basis set = -1510.26087323
    2   -1510.2608732274      1.34E-09 Convergence criterion met
 Total energy in the final basis set = -1510.26087323
   14   -1510.2762701098      6.62E-09 Convergence criterion met
 Total energy in the final basis set = -1510.27627011
   14   -1510.2822808241      3.50E-09 Convergence criterion met
 Total energy in the final basis set = -1510.28228082
   14   -1510.2836095586      3.62E-09 Convergence criterion met
 Total energy in the final basis set = -1510.28360956
   13   -1510.2846005830      6.51E-09 Convergence criterion met
   12   -1510.2871455239      4.88E-09 Convergence criterion met
 Total energy in the final basis set = -1510.28714552
   11   -1510.2872218254      6.83E-09 Convergence criterion met
 Total energy in the final basis set = -1510.28722183
   11   -1510.2872813153      6.09E-09 Convergence criterion met
 Total energy in the final basis set = -1510.28728132
   11   -1510.2873035694      4.02E-09 Convergence criterion met
 Total energy in the final basis set = -1510.28730357
   11   -1510.2873177297      2.33E-09 Convergence criterion met
 Total energy in the final basis set = -1510.28731773
   11   -1510.2873265017      2.26E-09 Convergence criterion met
 Total energy in the final basis set = -1510.28732650

             Standard Nuclear Orientation (Angstroms)
    I     Atom           X                Y                Z
 ----------------------------------------------------------------
    1      O      -5.8415554452     0.3637906224    -0.0043039295
    2      C      -4.6422684151     0.3367433482    -0.3530748143
    3      C      -3.7155196633    -0.9278705846    -0.4279527308
    4      C      -2.1766735638    -0.6795835716    -0.1230483564
    5      C      -1.8443384024     0.7870768245     0.3175457992
    6      O      -1.1055971771     1.4365491205    -0.7346571020
    7      C      -0.7784838396     2.8165001521    -0.3118323739
    8      C       0.6959739313     3.1909054405    -0.6936105027
    9      O       1.6797487219     2.5416580048     0.2082720294
   10      C       1.9180357970     1.1904856484    -0.1945336462
   11      C       2.9637764896     0.5515891882     0.7795784935
   12      C       3.4686411731    -0.8648840638     0.2864539301
   13      C       2.8148153878    -1.3684917331    -1.0544985758
   14      O       3.3581443497    -1.4031041068    -2.1793419933
   15      O      -3.9216518944     1.4799244900    -0.8261894689
   16      O       1.5607504988    -2.0055370578    -0.7497129774
   17      O       1.4444382848     0.6666279909    -1.2284108790
   18      C       0.9286032283    -2.4427913843    -2.0138586958
   19      C       4.3245468876     1.3742290864     0.7858928705
   20      C       5.1892856083     0.8977929020     2.0185768543
   21      C       5.6961225269    -0.5029715323     1.5097868824
   22      C       5.0148622555    -0.5755836833     0.0876110872
   23      O       5.0476386467     0.8295285701    -0.3842517399
   24      H       2.5224215787     0.5003473846     1.7917960482
   25      H       3.2893299822    -1.6309365314     1.0619777821
   26      H       4.1875329601     2.4689883708     0.6918495597
   27      H       6.0258385700     1.5929408733     2.1931496236
   28      H       4.5908133044     0.8261889431     2.9409129848
   29      H       6.7932318887    -0.5238216437     1.4127658231
   30      H       5.3829264277    -1.3324941741     2.1634945504
   31      H       5.5066781598    -1.2381083114    -0.6504684826
   32      O      -2.0787490841     1.3089355548     1.4305026645
   33      C      -4.7586849460     2.6963710069    -0.7203017985
   34      C      -4.0969528914    -1.9708138606     0.7046252126
   35      C      -3.5224879149    -3.3820283262     0.2994296417
   36      C      -1.9864739862    -3.1638832519     0.5631409094
   37      C      -1.9690249702    -1.6779019161     1.0977279231
   38      O      -3.2432445602    -1.5638440939     1.8450268544
   39      H      -3.8396554256    -1.3706533771    -1.4343907686
   40      H      -1.5463578854    -0.9360541605    -0.9921146597
   41      H      -4.9975277588     2.9307144108     0.3371786460
   42      H      -5.1674461110    -1.9454941135     0.9881373618
   43      H      -3.9372420955    -4.1685923964     0.9496378370
   44      H      -3.7426372220    -3.6372179636    -0.7494896650
   45      H      -1.6048008052    -3.8515921076     1.3342708881
   46      H      -1.3791871564    -3.2847765765    -0.3465661061
   47      H      -1.1130049682    -1.4251721780     1.7527726017
   48      H      -5.7078923990     2.5869786104    -1.2832120944
   49      H      -4.1595940346     3.5171155258    -1.1553544671
   50      H       0.0545915078    -3.0570076798    -1.7316537998
   51      H       1.6231760700    -3.0470100610    -2.6321809581
   52      H       0.5920836226    -1.5704742581    -2.6114829444
   53      H       0.8937774235     2.9166477584    -1.7521727845
   54      H       0.8394733933     4.2817235805    -0.5553583844
   55      H      -0.9449948297     2.8978769017     0.7853183710
   56      H      -1.4664702764     3.5221475231    -0.8280306996
 ----------------------------------------------------------------

    9   -1510.2873257839      9.37E-09 Convergence criterion met
 Total energy in the final basis set = -1510.28732578
 Final energy is   -1510.28732578393
 **  OPTIMIZATION CONVERGED  **

                    Orbital Energies (a.u.)
 --------------------------------------------------------------

 Alpha MOs
 -- Occupied --
-18.943 -18.941 -18.928 -18.918 -18.888 -18.886 -18.885 -18.881
-18.867 -18.858 -10.106 -10.104 -10.096 -10.089 -10.079 -10.070
-10.067 -10.060 -10.058 -10.057 -10.056 -10.054 -10.040 -10.040
-10.036 -10.032 -10.020 -10.020 -10.019 -10.018  -1.021  -1.018
 -1.004  -0.996  -0.969  -0.968  -0.944  -0.942  -0.931  -0.922
 -0.763  -0.762  -0.728  -0.722  -0.714  -0.704  -0.696  -0.666
 -0.655  -0.619  -0.598  -0.578  -0.546  -0.543  -0.537  -0.536
 -0.511  -0.509  -0.488  -0.475  -0.461  -0.455  -0.452  -0.449
 -0.433  -0.430  -0.426  -0.416  -0.415  -0.414  -0.404  -0.403
 -0.399  -0.384  -0.375  -0.364  -0.362  -0.354  -0.353  -0.349
 -0.344  -0.339  -0.333  -0.332  -0.329  -0.326  -0.323  -0.313
 -0.310  -0.305  -0.304  -0.299  -0.297  -0.288  -0.275  -0.273
 -0.271  -0.257  -0.252  -0.244  -0.243  -0.233  -0.233  -0.192
 -0.182  -0.168  -0.162  -0.161  -0.156  -0.149  -0.144  -0.142
 -0.140

          Ground-State Mulliken Net Atomic Charges

     Atom                 Charge (a.u.)
  ----------------------------------------
      1 O                    -0.209823
      2 C                     0.213362
      3 C                    -0.078468
      4 C                    -0.078935
      5 C                     0.215367
      6 O                    -0.168234
      7 C                    -0.057342
      8 C                    -0.049526
      9 O                    -0.171897
     10 C                     0.214581
     11 C                    -0.078367
     12 C                    -0.081898
     13 C                     0.215387
     14 O                    -0.219412
     15 O                    -0.168039
     16 O                    -0.176723
     17 O                    -0.200007
     18 C                    -0.129107
     19 C                     0.024601
     20 C                    -0.143778
     21 C                    -0.144194
     22 C                     0.025021
     23 O                    -0.189364
     24 H                     0.086200
     25 H                     0.083160
     26 H                     0.087223
     27 H                     0.078169
     28 H                     0.073611
     29 H                     0.077964
     30 H                     0.073206
     31 H                     0.088971
     32 O                    -0.221211
     33 C                    -0.127184
     34 C                     0.023852
     35 C                    -0.143930
     36 C                    -0.143275
     37 C                     0.027367
     38 O                    -0.187614
     39 H                     0.085368
     40 H                     0.090357
     41 H                     0.093223
     42 H                     0.090110
     43 H                     0.078367
     44 H                     0.072566
     45 H                     0.078553
     46 H                     0.072283
     47 H                     0.084887
     48 H                     0.092192
     49 H                     0.089719
     50 H                     0.079226
     51 H                     0.089533
     52 H                     0.091055
     53 H                     0.098877
     54 H                     0.091614
     55 H                     0.102341
     56 H                     0.080013
  ----------------------------------------
  Sum of atomic charges =    -0.000000

                    Cartesian Multipole Moments
 -----------------------------------------------------------------
    Charge (ESU x 10^10)
                 0.0000
    Dipole Moment (Debye)
         X      -0.0665      Y       0.4046      Z       0.0698
       Tot       0.4159
    Quadrupole Moments (Debye-Ang)
        XX    -169.0337     XY      -2.4330     YY    -143.4739
        XZ      20.6406     YZ      -1.5377     ZZ    -165.9846

 Total job time:  53.21s(wall), 2533.84s(cpu)
        *  Thank you very much for using Q-Chem.  Have a nice day.  *
