 Q-Chem 5.0, Q-Chem, Inc., Pleasanton, CA (2017)
 Q-Chem 5.0.1 for Intel X86 EM64T Linux

User input:
--------------------------------------------------------------
$molecule
0  1
O -3.94934 -3.66094 2.70899
C -3.26408 -4.56952 2.26188
C -3.36658 -6.02376 2.66595
C -2.10358 -6.88672 2.51113
C -0.83114 -6.159 2.13775
O -0.51309 -6.41896 0.83518
C 0.69567 -5.77925 0.4122
C 1.58566 -6.77327 -0.3267
O 2.19968 -7.67142 0.61094
C 1.49358 -8.79506 0.89022
C 2.19072 -9.69709 1.88067
C 1.58576 -11.1023 2.01371
C 0.62941 -11.51686 0.91361
O 0.86208 -12.34853 0.04831
O -2.52636 -4.30224 1.15087
O -0.65956 -11.10546 1.07081
O 0.40412 -9.00037 0.37875
C -1.70079 -11.45813 0.2376
C 3.6378 -10.05816 1.46807
C 4.44238 -10.42721 2.71268
C 3.80685 -11.75305 3.07294
C 2.87381 -11.94135 1.86998
O 3.53374 -11.2947 0.81159
H 2.23336 -9.14059 2.84406
H 1.08544 -11.28733 2.98972
H 4.16165 -9.25449 0.90676
H 5.48709 -10.61391 2.37401
H 4.45427 -9.67037 3.52625
H 4.6033 -12.52969 3.09174
H 3.23727 -11.76385 4.02749
H 2.65866 -13.02277 1.72117
O -0.31201 -5.29711 2.83957
C -2.37034 -3.05018 0.59362
C -3.58712 -6.18047 4.18964
C -4.22703 -7.53665 4.4892
C -3.05726 -8.46418 4.23552
C -1.95635 -7.44306 3.93392
O -2.29567 -6.33271 4.72701
H -4.25502 -6.4375 2.13875
H -2.27456 -7.69605 1.76397
H -1.89656 -2.36328 1.32716
H -4.20579 -5.36998 4.63303
H -4.46214 -7.55705 5.57766
H -5.14895 -7.76301 3.91163
H -2.82963 -9.01025 5.17798
H -3.19441 -9.1868 3.4019
H -0.95151 -7.88697 4.11197
H -3.35513 -2.64421 0.27843
H -1.71383 -3.12869 -0.29705
H -2.63308 -10.97721 0.59853
H -1.84047 -12.56018 0.24339
H -1.49602 -11.11 -0.79739
H 1.06811 -7.28451 -1.17013
H 2.40893 -6.18475 -0.78506
H 1.29825 -5.27969 1.20429
H 0.40511 -4.99891 -0.32356
$end

$opt
CONSTRAINT
tors           1           2           3           4    -153.615
tors           3           4           5           6    -106.755
tors           4           5           6           7    -179.082
tors           5           6           7           8    +132.801
tors           6           7           8           9     -74.975
tors           7           8           9          10     +89.318
tors           8           9          10          11    +179.999
tors           9          10          11          12    -167.991
tors          11          12          13          14    +108.561
ENDCONSTRAINT
$end

$rem
JOBTYPE                   OPT
METHOD                    B3LYP
DFT_D                     d3_op
BASIS                     STO-3G
GEOM_OPT_MAX_CYCLES       100
GEOM_OPT_TOL_GRADIENT     300
GEOM_OPT_TOL_DISPLACEMENT 1200
GEOM_OPT_TOL_ENERGY       100
SYMMETRY                  False
THRESH                    12
SCF_CONVERGENCE           8
MAX_SUB_FILE_NUM          128
MEM_STATIC                400
MEM_TOTAL                 4000
$end
--------------------------------------------------------------

   15   -1510.1504257042      5.98E-09 Convergence criterion met
 Total energy in the final basis set = -1510.15042570
   14   -1510.2204106501      6.03E-09 Convergence criterion met
 Total energy in the final basis set = -1510.22041065
   14   -1510.2572722809      5.79E-09 Convergence criterion met
 Total energy in the final basis set = -1510.25727228
   14   -1510.2731271539      6.33E-09 Convergence criterion met
 Total energy in the final basis set = -1510.27312715
   14   -1510.2799388314      3.33E-09 Convergence criterion met
 Total energy in the final basis set = -1510.27993883
   13   -1510.2831439945      8.59E-09 Convergence criterion met
 Total energy in the final basis set = -1510.28314399
   13   -1510.2851520816      3.95E-09 Convergence criterion met
 Total energy in the final basis set = -1510.28515208
   13   -1510.2862420825      8.27E-09 Convergence criterion met
   12   -1510.2879546154      2.99E-09 Convergence criterion met
 Total energy in the final basis set = -1510.28795462
   11   -1510.2880382527      6.66E-09 Convergence criterion met
 Total energy in the final basis set = -1510.28803825
   11   -1510.2881041966      5.95E-09 Convergence criterion met
 Total energy in the final basis set = -1510.28810420
   11   -1510.2881505556      5.15E-09 Convergence criterion met
 Total energy in the final basis set = -1510.28815056
   11   -1510.2881686947      2.48E-09 Convergence criterion met
 Total energy in the final basis set = -1510.28816869
   11   -1510.2881750977      2.65E-09 Convergence criterion met
 Total energy in the final basis set = -1510.28817510

             Standard Nuclear Orientation (Angstroms)
    I     Atom           X                Y                Z
 ----------------------------------------------------------------
    1      O      -5.8662338297     0.2092703508    -0.2606658416
    2      C      -4.6349380391     0.2630741290    -0.4663044646
    3      C      -3.6420484056    -0.9524221943    -0.5105132070
    4      C      -2.1283897933    -0.6446894926    -0.1441543390
    5      C      -1.8350678465     0.8333451066     0.2879169437
    6      O      -1.1334244324     1.4819806994    -0.7875370051
    7      C      -0.8174259965     2.8777734843    -0.4091103005
    8      C       0.6848985093     3.1581694998    -0.7558071895
    9      O       1.5675438035     2.4958453837     0.2375340333
   10      C       1.8753150640     1.1668673096    -0.1914700224
   11      C       2.8062792256     0.4856231192     0.8684379812
   12      C       3.4356147921    -0.8633585284     0.3292583499
   13      C       2.8794628480    -1.3416804460    -1.0636905356
   14      O       3.4860261160    -1.3301463499    -2.1559328007
   15      O      -3.9341094405     1.4675860104    -0.7917113809
   16      O       1.6181492764    -2.0014137510    -0.8473844452
   17      O       1.5212083040     0.6830815616    -1.2911290695
   18      C       1.0561372703    -2.4085342633    -2.1538684126
   19      C       4.1159309377     1.3572223862     1.0856868945
   20      C       4.9102598554     0.7876920993     2.3271363095
   21      C       5.5642602180    -0.5032923142     1.7074698614
   22      C       4.9698820140    -0.4684658345     0.2458510626
   23      O       4.9482763940     0.9776597941    -0.0778843037
   24      H       2.2445137499     0.3397155919     1.8091917292
   25      H       3.2683818617    -1.6785352032     1.0559660248
   26      H       3.9292283483     2.4485038808     1.0977251996
   27      H       5.6719989459     1.5092395938     2.6627395207
   28      H       4.2427170825     0.5597217873     3.1736299467
   29      H       6.6627471345    -0.4245076956     1.6788983571
   30      H       5.2883479258    -1.4224933655     2.2482604009
   31      H       5.5378457790    -1.0256574479    -0.5241329991
   32      O      -2.0529937775     1.3602195634     1.4013141053
   33      C      -4.8430833342     2.6331518666    -0.7132095605
   34      C      -4.0170896838    -2.0303517341     0.5916720551
   35      C      -3.3430457831    -3.4024915503     0.2009109161
   36      C      -1.8377310356    -3.1095409797     0.5553144685
   37      C      -1.9307473607    -1.6276748661     1.0912355003
   38      O      -3.2445493324    -1.5862649497     1.7746114439
   39      H      -3.7061972927    -1.3883220765    -1.5255728292
   40      H      -1.4580288388    -0.8931082748    -0.9854760112
   41      H      -5.2240364144     2.7802520914     0.3179760203
   42      H      -5.0997983657    -2.0723416878     0.8217283475
   43      H      -3.7516234980    -4.2205117267     0.8151126917
   44      H      -3.4909407112    -3.6508668353    -0.8622545524
   45      H      -1.4697154259    -3.7811355819     1.3469867230
   46      H      -1.1693699574    -3.1922862616    -0.3151130722
   47      H      -1.1244081871    -1.3271292886     1.7877109596
   48      H      -5.7077567674     2.5211595635    -1.3985859151
   49      H      -4.2400634613     3.5095035078    -1.0135023284
   50      H       0.1634568629    -3.0223021007    -1.9340925198
   51      H       1.7802265331    -3.0055438018    -2.7447508963
   52      H       0.7582884127    -1.5224553272    -2.7518620503
   53      H       0.9102629179     2.7902196900    -1.7792184164
   54      H       0.8954043586     4.2445299595    -0.6821314094
   55      H      -1.0179742624     3.0088632870     0.6772415056
   56      H      -1.4685748980     3.5678348814    -0.9891815663
 ----------------------------------------------------------------

   10   -1510.2881744404      9.03E-09 Convergence criterion met
 Total energy in the final basis set = -1510.28817444
 Final energy is   -1510.28817444039
 **  OPTIMIZATION CONVERGED  **

                    Orbital Energies (a.u.)
 --------------------------------------------------------------

 Alpha MOs
 -- Occupied --
-18.944 -18.942 -18.926 -18.918 -18.888 -18.886 -18.886 -18.880
-18.867 -18.858 -10.107 -10.105 -10.097 -10.089 -10.077 -10.070
-10.067 -10.060 -10.058 -10.058 -10.056 -10.055 -10.041 -10.040
-10.035 -10.032 -10.020 -10.020 -10.018 -10.018  -1.022  -1.018
 -1.004  -0.996  -0.969  -0.969  -0.945  -0.942  -0.931  -0.923
 -0.763  -0.762  -0.728  -0.722  -0.714  -0.704  -0.696  -0.667
 -0.655  -0.619  -0.598  -0.578  -0.546  -0.543  -0.537  -0.536
 -0.511  -0.510  -0.489  -0.477  -0.461  -0.455  -0.452  -0.449
 -0.433  -0.429  -0.426  -0.417  -0.416  -0.414  -0.404  -0.404
 -0.400  -0.385  -0.374  -0.364  -0.363  -0.354  -0.353  -0.348
 -0.344  -0.338  -0.333  -0.332  -0.329  -0.327  -0.323  -0.312
 -0.311  -0.306  -0.305  -0.300  -0.297  -0.290  -0.275  -0.273
 -0.272  -0.257  -0.251  -0.245  -0.244  -0.233  -0.233  -0.192
 -0.182  -0.167  -0.162  -0.161  -0.157  -0.149  -0.144  -0.143
 -0.140

          Ground-State Mulliken Net Atomic Charges

     Atom                 Charge (a.u.)
  ----------------------------------------
      1 O                    -0.210707
      2 C                     0.213255
      3 C                    -0.078251
      4 C                    -0.079852
      5 C                     0.216845
      6 O                    -0.171588
      7 C                    -0.056367
      8 C                    -0.050948
      9 O                    -0.171170
     10 C                     0.215632
     11 C                    -0.077631
     12 C                    -0.082132
     13 C                     0.215884
     14 O                    -0.219293
     15 O                    -0.167478
     16 O                    -0.177749
     17 O                    -0.202198
     18 C                    -0.129128
     19 C                     0.024309
     20 C                    -0.144273
     21 C                    -0.143634
     22 C                     0.024440
     23 O                    -0.190654
     24 H                     0.086858
     25 H                     0.082975
     26 H                     0.087800
     27 H                     0.078183
     28 H                     0.073584
     29 H                     0.077968
     30 H                     0.073142
     31 H                     0.089512
     32 O                    -0.221355
     33 C                    -0.126581
     34 C                     0.024076
     35 C                    -0.144047
     36 C                    -0.143672
     37 C                     0.027244
     38 O                    -0.188145
     39 H                     0.085591
     40 H                     0.090203
     41 H                     0.093478
     42 H                     0.089587
     43 H                     0.078320
     44 H                     0.072537
     45 H                     0.078217
     46 H                     0.073972
     47 H                     0.084227
     48 H                     0.092113
     49 H                     0.090197
     50 H                     0.079394
     51 H                     0.089106
     52 H                     0.091338
     53 H                     0.102652
     54 H                     0.090319
     55 H                     0.103002
     56 H                     0.080891
  ----------------------------------------
  Sum of atomic charges =    -0.000000

                    Cartesian Multipole Moments
 -----------------------------------------------------------------
    Charge (ESU x 10^10)
                -0.0000
    Dipole Moment (Debye)
         X      -0.1605      Y       0.2943      Z       0.0621
       Tot       0.3409
    Quadrupole Moments (Debye-Ang)
        XX    -170.8709     XY      -4.0912     YY    -144.1726
        XZ      19.3702     YZ      -1.4896     ZZ    -164.5922

 Total job time:  56.07s(wall), 2667.62s(cpu)
        *  Thank you very much for using Q-Chem.  Have a nice day.  *
