 Q-Chem 5.0, Q-Chem, Inc., Pleasanton, CA (2017)
 Q-Chem 5.0.1 for Intel X86 EM64T Linux

User input:
--------------------------------------------------------------
$molecule
0  1
O -5.8662338297 0.2092703508 -0.2606658416
C -4.6349380391 0.263074129 -0.4663044646
C -3.6420484056 -0.9524221943 -0.510513207
C -2.1283897933 -0.6446894926 -0.144154339
C -1.8350678465 0.8333451066 0.2879169437
O -1.1334244324 1.4819806994 -0.7875370051
C -0.8174259965 2.8777734843 -0.4091103005
C 0.6848985093 3.1581694998 -0.7558071895
O 1.5675438035 2.4958453837 0.2375340333
C 1.875315064 1.1668673096 -0.1914700224
C 2.8062792256 0.4856231192 0.8684379812
C 3.4356147921 -0.8633585284 0.3292583499
C 2.879462848 -1.341680446 -1.0636905356
O 3.486026116 -1.3301463499 -2.1559328007
O -3.9341094405 1.4675860104 -0.7917113809
O 1.6181492764 -2.001413751 -0.8473844452
O 1.521208304 0.6830815616 -1.2911290695
C 1.0561372703 -2.4085342633 -2.1538684126
C 4.1159309377 1.3572223862 1.0856868945
C 4.9102598554 0.7876920993 2.3271363095
C 5.564260218 -0.5032923142 1.7074698614
C 4.969882014 -0.4684658345 0.2458510626
O 4.948276394 0.9776597941 -0.0778843037
H 2.2445137499 0.3397155919 1.8091917292
H 3.2683818617 -1.6785352032 1.0559660248
H 3.9292283483 2.4485038808 1.0977251996
H 5.6719989459 1.5092395938 2.6627395207
H 4.2427170825 0.5597217873 3.1736299467
H 6.6627471345 -0.4245076956 1.6788983571
H 5.2883479258 -1.4224933655 2.2482604009
H 5.537845779 -1.0256574479 -0.5241329991
O -2.0529937775 1.3602195634 1.4013141053
C -4.8430833342 2.6331518666 -0.7132095605
C -4.0170896838 -2.0303517341 0.5916720551
C -3.3430457831 -3.4024915503 0.2009109161
C -1.8377310356 -3.1095409797 0.5553144685
C -1.9307473607 -1.6276748661 1.0912355003
O -3.2445493324 -1.5862649497 1.7746114439
H -3.7061972927 -1.3883220765 -1.5255728292
H -1.4580288388 -0.8931082748 -0.9854760112
H -5.2240364144 2.7802520914 0.3179760203
H -5.0997983657 -2.0723416878 0.8217283475
H -3.751623498 -4.2205117267 0.8151126917
H -3.4909407112 -3.6508668353 -0.8622545524
H -1.4697154259 -3.7811355819 1.346986723
H -1.1693699574 -3.1922862616 -0.3151130722
H -1.1244081871 -1.3271292886 1.7877109596
H -5.7077567674 2.5211595635 -1.3985859151
H -4.2400634613 3.5095035078 -1.0135023284
H 0.1634568629 -3.0223021007 -1.9340925198
H 1.7802265331 -3.0055438018 -2.7447508963
H 0.7582884127 -1.5224553272 -2.7518620503
H 0.9102629179 2.79021969 -1.7792184164
H 0.8954043586 4.2445299595 -0.6821314094
H -1.0179742624 3.008863287 0.6772415056
H -1.468574898 3.5678348814 -0.9891815663
$end

$rem
JOBTYPE                   OPT
METHOD                    B3LYP
DFT_D                     d3_op
BASIS                     STO-3G
GEOM_OPT_MAX_CYCLES       100
GEOM_OPT_TOL_GRADIENT     300
GEOM_OPT_TOL_DISPLACEMENT 1200
GEOM_OPT_TOL_ENERGY       100
SYMMETRY                  False
THRESH                    12
SCF_CONVERGENCE           8
MAX_SUB_FILE_NUM          128
MEM_STATIC                400
MEM_TOTAL                 4000
$end
--------------------------------------------------------------

   16   -1510.2881691725      5.30E-09 Convergence criterion met
 Total energy in the final basis set = -1510.28816917
   15   -1510.2898018908      1.85E-09 Convergence criterion met
 Total energy in the final basis set = -1510.28980189
   15   -1510.2922680089      2.63E-09 Convergence criterion met
 Total energy in the final basis set = -1510.29226801
   15   -1510.2861858672      3.22E-09 Convergence criterion met
 Total energy in the final basis set = -1510.28618587
   14   -1510.2924649915      3.07E-09 Convergence criterion met
 Total energy in the final basis set = -1510.29246499
   15   -1510.2919883278      2.26E-09 Convergence criterion met
 Total energy in the final basis set = -1510.29198833
   13   -1510.2937353678      8.86E-09 Convergence criterion met
 Total energy in the final basis set = -1510.29373537
   15   -1510.2935054277      2.04E-09 Convergence criterion met
   12   -1510.2990203812      6.90E-09 Convergence criterion met
 Total energy in the final basis set = -1510.29902038
   12   -1510.2991243318      3.45E-09 Convergence criterion met
 Total energy in the final basis set = -1510.29912433
   11   -1510.2991380474      7.80E-09 Convergence criterion met
 Total energy in the final basis set = -1510.29913805
   11   -1510.2991410596      4.28E-09 Convergence criterion met
 Total energy in the final basis set = -1510.29914106
   11   -1510.2991396470      2.74E-09 Convergence criterion met
 Total energy in the final basis set = -1510.29913965
   11   -1510.2991438395      1.70E-09 Convergence criterion met
 Total energy in the final basis set = -1510.29914384

             Standard Nuclear Orientation (Angstroms)
    I     Atom           X                Y                Z
 ----------------------------------------------------------------
    1      O      -5.1360144274     0.0385440923     0.7411841985
    2      C      -4.0939444117     0.1429008381     0.0605221445
    3      C      -2.9584785593    -0.9295912230    -0.1068035175
    4      C      -1.4903630377    -0.3678218525     0.1155597278
    5      C      -1.4116017903     1.1842197835     0.2863727833
    6      O      -0.9990336959     1.7341435797    -0.9799759070
    7      C      -0.7670068667     3.1899806084    -0.8594559492
    8      C       0.7796515047     3.4481212029    -0.9845307037
    9      O       1.4833313858     2.6006347811     0.0086679760
   10      C       1.7799087074     1.3205384090    -0.5541383236
   11      C       2.3106927714     0.3908263821     0.5844735951
   12      C       2.5403007506    -1.0949735358     0.0941375473
   13      C       2.1677024878    -1.3595548713    -1.4124294310
   14      O       2.9520291043    -1.5207154493    -2.3689845230
   15      O      -3.7573604918     1.2979833919    -0.7168491242
   16      O       0.7414957560    -1.5893281212    -1.5054248856
   17      O       1.6671457944     1.0227558100    -1.7657106908
   18      C       0.3606912666    -1.8209428127    -2.9162106010
   19      C       3.7853113481     0.7955657963     1.0231521677
   20      C       4.1234115765     0.0555041631     2.3774080773
   21      C       4.3623751262    -1.4148177341     1.8685269015
   22      C       4.1025482604    -1.2471539186     0.3211857081
   23      O       4.6299810672     0.1058409154     0.0236996134
   24      H       1.6110564282     0.4442827221     1.4375390242
   25      H       1.9679270249    -1.8009167542     0.7201890135
   26      H       3.9763608467     1.8862513292     1.0176881213
   27      H       5.0333898464     0.4805848924     2.8299686796
   28      H       3.2998080485     0.1273498061     3.1058049897
   29      H       5.3980770020    -1.7419218461     2.0521926821
   30      H       3.6751163283    -2.1425371586     2.3288348694
   31      H       4.5834670984    -1.9985619953    -0.3343560828
   32      O      -1.6053503209     1.8666375006     1.3159838414
   33      C      -4.7632158166     2.3646266841    -0.5113496180
   34      C      -3.0630818868    -1.9905534263     1.0654045974
   35      C      -2.1500847051    -3.2298380394     0.7184499473
   36      C      -0.7165266888    -2.6329196355     0.9724854436
   37      C      -1.0787680100    -1.1631486657     1.4284140209
   38      O      -2.3454029477    -1.3226546966     2.1755942733
   39      H      -3.0562326611    -1.3957010694    -1.1047761738
   40      H      -0.8102936146    -0.6506180037    -0.7131630288
   41      H      -4.7697531824     2.7143341520     0.5414147915
   42      H      -4.1050330927    -2.2214426954     1.3615844708
   43      H      -2.3679152174    -4.0693807963     1.3976434378
   44      H      -2.2915751511    -3.5708888513    -0.3198050178
   45      H      -0.1876811957    -3.1743542792     1.7726844790
   46      H      -0.0969450613    -2.6150782163     0.0580921004
   47      H      -0.3222547870    -0.6565805986     2.0578989872
   48      H      -5.7835758778     2.0209889752    -0.7770295616
   49      H      -4.4652183844     3.1962797686    -1.1758089795
   50      H      -0.7090221562    -2.0999116460    -2.9052061889
   51      H       0.9576899476    -2.6374445198    -3.3700499249
   52      H       0.4984157292    -0.9000465928    -3.5189697322
   53      H       1.1284712875     3.2000938164    -2.0094082014
   54      H       1.0218733381     4.5020596589    -0.7403508065
   55      H      -1.1390370390     3.5266097856     0.1329923586
   56      H      -1.3123801661     3.7070023313    -1.6759992293
 ----------------------------------------------------------------

    9   -1510.2991454804      6.63E-09 Convergence criterion met
 Total energy in the final basis set = -1510.29914548
 Final energy is   -1510.29914548039
 **  OPTIMIZATION CONVERGED  **

                    Orbital Energies (a.u.)
 --------------------------------------------------------------

 Alpha MOs
 -- Occupied --
-18.943 -18.937 -18.935 -18.927 -18.890 -18.889 -18.881 -18.878
-18.874 -18.871 -10.110 -10.101 -10.099 -10.096 -10.077 -10.068
-10.066 -10.064 -10.064 -10.060 -10.053 -10.052 -10.044 -10.039
-10.035 -10.023 -10.023 -10.022 -10.015 -10.007  -1.025  -1.014
 -1.008  -1.003  -0.973  -0.965  -0.948  -0.938  -0.935  -0.932
 -0.767  -0.758  -0.729  -0.721  -0.713  -0.704  -0.695  -0.663
 -0.662  -0.620  -0.599  -0.577  -0.549  -0.542  -0.540  -0.533
 -0.515  -0.506  -0.490  -0.475  -0.469  -0.461  -0.452  -0.446
 -0.435  -0.427  -0.425  -0.419  -0.415  -0.413  -0.410  -0.405
 -0.399  -0.381  -0.375  -0.369  -0.363  -0.359  -0.350  -0.349
 -0.345  -0.341  -0.340  -0.336  -0.329  -0.327  -0.324  -0.315
 -0.309  -0.307  -0.302  -0.301  -0.295  -0.285  -0.283  -0.277
 -0.269  -0.256  -0.253  -0.248  -0.243  -0.237  -0.227  -0.193
 -0.179  -0.178  -0.167  -0.161  -0.158  -0.152  -0.148  -0.147
 -0.139

          Ground-State Mulliken Net Atomic Charges

     Atom                 Charge (a.u.)
  ----------------------------------------
      1 O                    -0.208895
      2 C                     0.211809
      3 C                    -0.077929
      4 C                    -0.091556
      5 C                     0.210766
      6 O                    -0.172811
      7 C                    -0.056512
      8 C                    -0.051536
      9 O                    -0.171633
     10 C                     0.216255
     11 C                    -0.078903
     12 C                    -0.082812
     13 C                     0.220516
     14 O                    -0.209101
     15 O                    -0.169907
     16 O                    -0.177974
     17 O                    -0.203608
     18 C                    -0.127916
     19 C                     0.025707
     20 C                    -0.143595
     21 C                    -0.144159
     22 C                     0.025336
     23 O                    -0.187981
     24 H                     0.087210
     25 H                     0.085858
     26 H                     0.086588
     27 H                     0.079251
     28 H                     0.075020
     29 H                     0.078901
     30 H                     0.073651
     31 H                     0.089333
     32 O                    -0.218659
     33 C                    -0.128187
     34 C                     0.024029
     35 C                    -0.144496
     36 C                    -0.154120
     37 C                     0.024105
     38 O                    -0.190351
     39 H                     0.083061
     40 H                     0.104731
     41 H                     0.092495
     42 H                     0.088908
     43 H                     0.076114
     44 H                     0.070548
     45 H                     0.069349
     46 H                     0.087560
     47 H                     0.075685
     48 H                     0.090737
     49 H                     0.089306
     50 H                     0.086052
     51 H                     0.090961
     52 H                     0.096389
     53 H                     0.098949
     54 H                     0.090819
     55 H                     0.101110
     56 H                     0.085536
  ----------------------------------------
  Sum of atomic charges =    -0.000000

                    Cartesian Multipole Moments
 -----------------------------------------------------------------
    Charge (ESU x 10^10)
                -0.0000
    Dipole Moment (Debye)
         X      -0.1401      Y       0.3378      Z      -0.7639
       Tot       0.8469
    Quadrupole Moments (Debye-Ang)
        XX    -170.6193     XY      -3.0542     YY    -144.4831
        XZ      19.7008     YZ      -3.3842     ZZ    -165.7502

 Total job time:  101.77s(wall), 4853.55s(cpu)
        *  Thank you very much for using Q-Chem.  Have a nice day.  *
