 Q-Chem 5.0, Q-Chem, Inc., Pleasanton, CA (2017)
 Q-Chem 5.0.1 for Intel X86 EM64T Linux

User input:
--------------------------------------------------------------
$molecule
0  1
O -5.8340417746 0.3364630188 0.165119028
C -4.6599210436 0.312247802 -0.2612193204
C -3.7318796126 -0.947825813 -0.3806903662
C -2.1757515156 -0.687773109 -0.1968876497
C -1.8283565237 0.7826957104 0.2198291831
O -1.1806487785 1.4483568425 -0.8811982487
C -0.8227375437 2.824299505 -0.4674192482
C 0.6571258427 3.1552510493 -0.86504863
O 1.6087326949 2.5535696963 0.1026827305
C 1.9096837154 1.2073195915 -0.2722611888
C 2.9128481955 0.6045238353 0.7663536393
C 3.4371056576 -0.8283795091 0.3455100481
C 2.8442641171 -1.3768915842 -1.0058560621
O 3.4383059103 -1.4500221439 -2.1028153206
O -3.9803048802 1.4529993678 -0.7959690699
O 1.5723656532 -1.9952836285 -0.7390617851
O 1.4936310415 0.657425981 -1.317561293
C 0.9984968018 -2.4735305556 -2.0161776599
C 4.2725557675 1.427367234 0.8038731515
C 5.0817032924 0.9930038831 2.0886909546
C 5.6107961924 -0.4227168995 1.6504931034
C 4.9910753633 -0.5450155656 0.2032125694
O 5.0447500113 0.8432116883 -0.3146776321
H 2.4269920895 0.5892846417 1.7591112924
H 3.2228695731 -1.5676471373 1.1380081698
H 4.1418284748 2.5185522059 0.6677723983
H 5.9094306567 1.6950034278 2.2774513403
H 4.4428311978 0.9513213463 2.985307394
H 6.7111068696 -0.4455827731 1.6023700284
H 5.2688458909 -1.2299579585 2.3176151528
H 5.5133810931 -1.2321769372 -0.4900674029
O -1.9895111478 1.2991027826 1.348409656
C -4.8192389922 2.6647699622 -0.657044438
C -4.0200544217 -1.9727809838 0.7968017855
C -3.48771518 -3.3917344793 0.3642058448
C -1.9339813421 -3.1713108388 0.478252663
C -1.865426724 -1.6827815154 1.0028967953
O -3.0708367042 -1.5584363049 1.8559718337
H -3.9289449069 -1.4111130363 -1.3660267709
H -1.6125661446 -0.9366995474 -1.113087928
H -5.0046853706 2.9075154556 0.4091940982
H -5.0628567633 -1.9388104233 1.1690901328
H -3.8394611222 -4.1649470613 1.0658492462
H -3.8059006689 -3.6665469278 -0.6541668929
H -1.4773622652 -3.856651133 1.2095162595
H -1.4202113328 -3.2949901844 -0.4870861032
H -0.9540302221 -1.4301483345 1.5783769044
H -5.795595876 2.5441023939 -1.1689797653
H -4.2491107819 3.4850715564 -1.1302465442
H 0.1054228357 -3.069104744 -1.7554661252
H 1.7164064503 -3.1060338291 -2.5767139229
H 0.7011582245 -1.6210529401 -2.6611649163
H 0.8638881779 2.7910018181 -1.8939809018
H 0.8182431051 4.2508497717 -0.8086406449
H -0.9745498147 2.9101656946 0.6317008809
H -1.502669448 3.5377057057 -0.9827390473
$end

$rem
JOBTYPE                   OPT
METHOD                    B3LYP
DFT_D                     d3_op
BASIS                     STO-3G
GEOM_OPT_MAX_CYCLES       100
GEOM_OPT_TOL_GRADIENT     300
GEOM_OPT_TOL_DISPLACEMENT 1200
GEOM_OPT_TOL_ENERGY       100
SYMMETRY                  False
THRESH                    12
SCF_CONVERGENCE           8
MAX_SUB_FILE_NUM          128
MEM_STATIC                400
MEM_TOTAL                 4000
$end
--------------------------------------------------------------

   16   -1510.2880296663      5.07E-09 Convergence criterion met
 Total energy in the final basis set = -1510.28802967
   14   -1510.2877682176      6.31E-09 Convergence criterion met
 Total energy in the final basis set = -1510.28776822
   14   -1510.2898158485      9.05E-09 Convergence criterion met
 Total energy in the final basis set = -1510.28981585
   15   -1510.2844908543      3.48E-09 Convergence criterion met
 Total energy in the final basis set = -1510.28449085
   14   -1510.2915117579      2.58E-09 Convergence criterion met
 Total energy in the final basis set = -1510.29151176
   14   -1510.2923295157      6.73E-09 Convergence criterion met
 Total energy in the final basis set = -1510.29232952
   14   -1510.2938285516      3.81E-09 Convergence criterion met
 Total energy in the final basis set = -1510.29382855
   14   -1510.2953238422      9.28E-09 Convergence criterion met
   12   -1510.2991293163      5.06E-09 Convergence criterion met
 Total energy in the final basis set = -1510.29912932
   11   -1510.2991674177      7.72E-09 Convergence criterion met
 Total energy in the final basis set = -1510.29916742
   11   -1510.2991655614      3.78E-09 Convergence criterion met
 Total energy in the final basis set = -1510.29916556
   11   -1510.2991687845      2.50E-09 Convergence criterion met
 Total energy in the final basis set = -1510.29916878
    9   -1510.2991670848      7.52E-09 Convergence criterion met
 Total energy in the final basis set = -1510.29916708
    9   -1510.2991685674      3.96E-09 Convergence criterion met
 Total energy in the final basis set = -1510.29916857

             Standard Nuclear Orientation (Angstroms)
    I     Atom           X                Y                Z
 ----------------------------------------------------------------
    1      O      -5.0965000183     0.2080585910     0.8376575151
    2      C      -4.0826297638     0.2512271498     0.1096226827
    3      C      -2.9858938305    -0.8606844096    -0.0598266329
    4      C      -1.4982453896    -0.3371065573     0.1244874149
    5      C      -1.3733228722     1.2174953962     0.2323830874
    6      O      -0.9829990788     1.7048283789    -1.0662071423
    7      C      -0.7274601164     3.1608217685    -1.0162432063
    8      C       0.8229284067     3.3905277706    -1.1546085764
    9      O       1.5153530174     2.5753384808    -0.1273480045
   10      C       1.7891606007     1.2673492255    -0.6350429067
   11      C       2.3008773441     0.3774255225     0.5432262268
   12      C       2.5097044189    -1.1306634974     0.1159069512
   13      C       2.1345827909    -1.4530080986    -1.3787393226
   14      O       2.9163885500    -1.6689442089    -2.3265004186
   15      O      -3.7440542680     1.3635193433    -0.7274211809
   16      O       0.7045596943    -1.6617357328    -1.4635632199
   17      O       1.6730856219     0.9207157717    -1.8332393696
   18      C       0.3201735313    -1.9517953266    -2.8624760083
   19      C       3.7795547119     0.7777122472     0.9714988717
   20      C       4.1006924283     0.0885943932     2.3565881130
   21      C       4.3208336753    -1.4043752433     1.9088401290
   22      C       4.0689580932    -1.2961472876     0.3546478355
   23      O       4.6178068724     0.0355202613     0.0048536644
   24      H       1.5984872971     0.4767935207     1.3898303295
   25      H       1.9255264645    -1.8012573919     0.7693519013
   26      H       3.9869631990     1.8643294854     0.9224005511
   27      H       5.0144030708     0.5185833967     2.7967961723
   28      H       3.2743676793     0.2017630798     3.0764783753
   29      H       5.3512684922    -1.7380372764     2.1096049625
   30      H       3.6219602912    -2.1031625715     2.3956876944
   31      H       4.5409657039    -2.0808314419    -0.2675392925
   32      O      -1.5247590610     1.9452329362     1.2375489541
   33      C      -4.7077951816     2.4688106394    -0.5248873667
   34      C      -3.0977910101    -1.8918578689     1.1376324788
   35      C      -2.2145197814    -3.1579595468     0.8106577739
   36      C      -0.7659719147    -2.5894306003     1.0440497303
   37      C      -1.0917760228    -1.0994282546     1.4586987421
   38      O      -2.3538342117    -1.2105631013     2.2222395049
   39      H      -3.1172891619    -1.3425012844    -1.0464215554
   40      H      -0.8395269466    -0.6694980518    -0.7028830123
   41      H      -4.6656342476     2.8545685492     0.5143773989
   42      H      -4.1402484500    -2.0942103741     1.4520946463
   43      H      -2.4469608032    -3.9786851949     1.5077098559
   44      H      -2.3706898978    -3.5162026400    -0.2196497989
   45      H      -0.2485040417    -3.1205788557     1.8585005592
   46      H      -0.1481657655    -2.6113512992     0.1284808681
   47      H      -0.3188346262    -0.5902503482     2.0657755449
   48      H      -5.7474056933     2.1500840028    -0.7425690023
   49      H      -4.4077759857     3.2669058264    -1.2284928522
   50      H      -0.7544519642    -2.2104149508    -2.8396757240
   51      H       0.9023749802    -2.7992732673    -3.2770710362
   52      H       0.4749851531    -1.0627558829    -3.5073266515
   53      H       1.1664936017     3.0943459333    -2.1684757375
   54      H       1.0811279199     4.4501716915    -0.9554936231
   55      H      -1.0923537124     3.5527048276    -0.0417642738
   56      H      -1.2661098317     3.6443366225    -1.8573400570
 ----------------------------------------------------------------

    9   -1510.2991677912      2.38E-09 Convergence criterion met
 Total energy in the final basis set = -1510.29916779
 Final energy is   -1510.29916779117
 **  OPTIMIZATION CONVERGED  **

                    Orbital Energies (a.u.)
 --------------------------------------------------------------

 Alpha MOs
 -- Occupied --
-18.943 -18.937 -18.935 -18.927 -18.890 -18.889 -18.881 -18.878
-18.874 -18.871 -10.110 -10.101 -10.099 -10.096 -10.077 -10.069
-10.066 -10.064 -10.064 -10.060 -10.053 -10.052 -10.044 -10.039
-10.035 -10.024 -10.023 -10.021 -10.015 -10.007  -1.025  -1.014
 -1.008  -1.003  -0.973  -0.965  -0.948  -0.938  -0.935  -0.933
 -0.768  -0.758  -0.729  -0.721  -0.713  -0.704  -0.695  -0.663
 -0.662  -0.620  -0.599  -0.577  -0.549  -0.542  -0.540  -0.533
 -0.514  -0.506  -0.490  -0.475  -0.468  -0.461  -0.452  -0.446
 -0.435  -0.427  -0.426  -0.419  -0.415  -0.413  -0.410  -0.405
 -0.399  -0.381  -0.375  -0.369  -0.363  -0.359  -0.351  -0.349
 -0.346  -0.341  -0.340  -0.336  -0.329  -0.327  -0.324  -0.315
 -0.309  -0.307  -0.302  -0.301  -0.295  -0.285  -0.283  -0.276
 -0.269  -0.256  -0.253  -0.248  -0.244  -0.237  -0.227  -0.194
 -0.179  -0.178  -0.167  -0.161  -0.158  -0.152  -0.148  -0.147
 -0.139

          Ground-State Mulliken Net Atomic Charges

     Atom                 Charge (a.u.)
  ----------------------------------------
      1 O                    -0.208527
      2 C                     0.211683
      3 C                    -0.077812
      4 C                    -0.091379
      5 C                     0.210435
      6 O                    -0.172529
      7 C                    -0.056229
      8 C                    -0.051531
      9 O                    -0.171565
     10 C                     0.216160
     11 C                    -0.078954
     12 C                    -0.082848
     13 C                     0.220528
     14 O                    -0.209102
     15 O                    -0.170238
     16 O                    -0.178003
     17 O                    -0.203654
     18 C                    -0.127913
     19 C                     0.025733
     20 C                    -0.143624
     21 C                    -0.144140
     22 C                     0.025328
     23 O                    -0.188025
     24 H                     0.087382
     25 H                     0.085893
     26 H                     0.086635
     27 H                     0.079241
     28 H                     0.075077
     29 H                     0.078883
     30 H                     0.073664
     31 H                     0.089311
     32 O                    -0.218453
     33 C                    -0.128292
     34 C                     0.024097
     35 C                    -0.144616
     36 C                    -0.154248
     37 C                     0.024004
     38 O                    -0.190348
     39 H                     0.083176
     40 H                     0.104490
     41 H                     0.092512
     42 H                     0.088765
     43 H                     0.076109
     44 H                     0.070516
     45 H                     0.069321
     46 H                     0.087851
     47 H                     0.075723
     48 H                     0.090571
     49 H                     0.089151
     50 H                     0.086102
     51 H                     0.090903
     52 H                     0.096309
     53 H                     0.098894
     54 H                     0.090868
     55 H                     0.100861
     56 H                     0.085854
  ----------------------------------------
  Sum of atomic charges =    -0.000000

                    Cartesian Multipole Moments
 -----------------------------------------------------------------
    Charge (ESU x 10^10)
                -0.0000
    Dipole Moment (Debye)
         X      -0.2045      Y       0.3215      Z      -0.8202
       Tot       0.9043
    Quadrupole Moments (Debye-Ang)
        XX    -170.3377     XY      -1.8330     YY    -144.6586
        XZ      19.7136     YZ      -4.5130     ZZ    -165.7432

 Total job time:  96.75s(wall), 4608.19s(cpu)
        *  Thank you very much for using Q-Chem.  Have a nice day.  *
