 Q-Chem 5.0, Q-Chem, Inc., Pleasanton, CA (2017)
 Q-Chem 5.0.1 for Intel X86 EM64T Linux

User input:
--------------------------------------------------------------
$molecule
0  1
O -3.94934 -3.66094 2.70899
C -3.26408 -4.56952 2.26188
C -3.36658 -6.02376 2.66595
C -2.07595 -6.8581 2.62117
C -0.79388 -6.10303 2.34863
O -0.3259 -6.41714 1.10455
C 0.90832 -5.76557 0.7861
C 1.89737 -6.76935 0.20271
O 2.49457 -7.53824 1.25867
C 1.79991 -8.63723 1.64443
C 2.4784 -9.40197 2.75596
C 1.81589 -10.73864 3.12021
C 0.81885 -11.27775 2.11424
O 1.0162 -12.21297 1.35202
O -2.54767 -4.32091 1.13289
O -0.45206 -10.79929 2.22224
O 0.74071 -8.92951 1.11177
C -1.50974 -11.22731 1.44582
C 3.90306 -9.87384 2.39506
C 4.70826 -10.08174 3.67593
C 4.03114 -11.31541 4.23479
C 3.06931 -11.642 3.08523
O 3.73853 -11.18983 1.93452
H 2.53835 -8.70817 3.62485
H 1.3362 -10.7546 4.12362
H 4.44471 -9.1835 1.71257
H 5.74272 -10.35355 3.36489
H 4.75206 -9.21143 4.36552
H 4.79843 -12.1124 4.35328
H 3.48274 -11.16604 5.19007
H 2.80959 -12.72376 3.10329
O -0.36498 -5.20782 3.06904
C -2.39726 -3.07618 0.5585
C -3.72786 -6.1865 4.1597
C -4.34961 -7.56173 4.40249
C -3.12981 -8.44944 4.27738
C -2.0395 -7.39683 4.0597
O -2.4852 -6.29433 4.81153
H -4.17491 -6.463 2.03958
H -2.16647 -7.68154 1.87512
H -1.9054 -2.38346 1.27445
H -4.41102 -5.39563 4.53887
H -4.69847 -7.59054 5.45968
H -5.1959 -7.81637 3.7288
H -2.96884 -8.96657 5.24953
H -3.16968 -9.19411 3.45582
H -1.04171 -7.80782 4.332
H -3.38637 -2.66886 0.25892
H -1.7594 -3.16801 -0.34441
H -2.42402 -10.6708 1.73159
H -1.68751 -12.31235 1.60447
H -1.29812 -11.03397 0.37242
H 1.48138 -7.38426 -0.62747
H 2.72057 -6.16906 -0.24052
H 1.404 -5.19406 1.60321
H 0.67615 -5.04143 -0.02436
$end

$opt
CONSTRAINT
tors           1           2           3           4    -148.711
tors           3           4           5           6    -109.968
tors           4           5           6           7    -178.474
tors           5           6           7           8    +132.801
tors           6           7           8           9     -79.148
tors           7           8           9          10     +86.343
tors           8           9          10          11    +179.998
tors           9          10          11          12    -173.376
tors          11          12          13          14    +105.466
ENDCONSTRAINT
$end

$rem
JOBTYPE                   OPT
METHOD                    B3LYP
DFT_D                     d3_op
BASIS                     STO-3G
GEOM_OPT_MAX_CYCLES       100
GEOM_OPT_TOL_GRADIENT     300
GEOM_OPT_TOL_DISPLACEMENT 1200
GEOM_OPT_TOL_ENERGY       100
SYMMETRY                  False
THRESH                    12
SCF_CONVERGENCE           8
MAX_SUB_FILE_NUM          128
MEM_STATIC                400
MEM_TOTAL                 4000
$end
--------------------------------------------------------------

   15   -1510.1545211161      6.04E-09 Convergence criterion met
 Total energy in the final basis set = -1510.15452112
   14   -1510.2241625222      6.01E-09 Convergence criterion met
 Total energy in the final basis set = -1510.22416252
   14   -1510.2609590452      5.61E-09 Convergence criterion met
 Total energy in the final basis set = -1510.26095905
   14   -1510.2766152490      6.09E-09 Convergence criterion met
 Total energy in the final basis set = -1510.27661525
   14   -1510.2827139085      3.24E-09 Convergence criterion met
 Total energy in the final basis set = -1510.28271391
   13   -1510.2847292940      9.13E-09 Convergence criterion met
 Total energy in the final basis set = -1510.28472929
   13   -1510.2851098857      6.61E-09 Convergence criterion met
 Total energy in the final basis set = -1510.28510989
   13   -1510.2867398771      5.67E-09 Convergence criterion met
   12   -1510.2878544270      1.75E-09 Convergence criterion met
 Total energy in the final basis set = -1510.28785443
   11   -1510.2879153633      4.43E-09 Convergence criterion met
 Total energy in the final basis set = -1510.28791536
   10   -1510.2879391255      9.28E-09 Convergence criterion met
 Total energy in the final basis set = -1510.28793913
   11   -1510.2879547182      2.52E-09 Convergence criterion met
 Total energy in the final basis set = -1510.28795472
   11   -1510.2879612288      1.30E-09 Convergence criterion met
 Total energy in the final basis set = -1510.28796123
   10   -1510.2879647198      7.34E-09 Convergence criterion met
 Total energy in the final basis set = -1510.28796472

             Standard Nuclear Orientation (Angstroms)
    I     Atom           X                Y                Z
 ----------------------------------------------------------------
    1      O      -5.8340417746     0.3364630188     0.1651190280
    2      C      -4.6599210436     0.3122478020    -0.2612193204
    3      C      -3.7318796126    -0.9478258130    -0.3806903662
    4      C      -2.1757515156    -0.6877731090    -0.1968876497
    5      C      -1.8283565237     0.7826957104     0.2198291831
    6      O      -1.1806487785     1.4483568425    -0.8811982487
    7      C      -0.8227375437     2.8242995050    -0.4674192482
    8      C       0.6571258427     3.1552510493    -0.8650486300
    9      O       1.6087326949     2.5535696963     0.1026827305
   10      C       1.9096837154     1.2073195915    -0.2722611888
   11      C       2.9128481955     0.6045238353     0.7663536393
   12      C       3.4371056576    -0.8283795091     0.3455100481
   13      C       2.8442641171    -1.3768915842    -1.0058560621
   14      O       3.4383059103    -1.4500221439    -2.1028153206
   15      O      -3.9803048802     1.4529993678    -0.7959690699
   16      O       1.5723656532    -1.9952836285    -0.7390617851
   17      O       1.4936310415     0.6574259810    -1.3175612930
   18      C       0.9984968018    -2.4735305556    -2.0161776599
   19      C       4.2725557675     1.4273672340     0.8038731515
   20      C       5.0817032924     0.9930038831     2.0886909546
   21      C       5.6107961924    -0.4227168995     1.6504931034
   22      C       4.9910753633    -0.5450155656     0.2032125694
   23      O       5.0447500113     0.8432116883    -0.3146776321
   24      H       2.4269920895     0.5892846417     1.7591112924
   25      H       3.2228695731    -1.5676471373     1.1380081698
   26      H       4.1418284748     2.5185522059     0.6677723983
   27      H       5.9094306567     1.6950034278     2.2774513403
   28      H       4.4428311978     0.9513213463     2.9853073940
   29      H       6.7111068696    -0.4455827731     1.6023700284
   30      H       5.2688458909    -1.2299579585     2.3176151528
   31      H       5.5133810931    -1.2321769372    -0.4900674029
   32      O      -1.9895111478     1.2991027826     1.3484096560
   33      C      -4.8192389922     2.6647699622    -0.6570444380
   34      C      -4.0200544217    -1.9727809838     0.7968017855
   35      C      -3.4877151800    -3.3917344793     0.3642058448
   36      C      -1.9339813421    -3.1713108388     0.4782526630
   37      C      -1.8654267240    -1.6827815154     1.0028967953
   38      O      -3.0708367042    -1.5584363049     1.8559718337
   39      H      -3.9289449069    -1.4111130363    -1.3660267709
   40      H      -1.6125661446    -0.9366995474    -1.1130879280
   41      H      -5.0046853706     2.9075154556     0.4091940982
   42      H      -5.0628567633    -1.9388104233     1.1690901328
   43      H      -3.8394611222    -4.1649470613     1.0658492462
   44      H      -3.8059006689    -3.6665469278    -0.6541668929
   45      H      -1.4773622652    -3.8566511330     1.2095162595
   46      H      -1.4202113328    -3.2949901844    -0.4870861032
   47      H      -0.9540302221    -1.4301483345     1.5783769044
   48      H      -5.7955958760     2.5441023939    -1.1689797653
   49      H      -4.2491107819     3.4850715564    -1.1302465442
   50      H       0.1054228357    -3.0691047440    -1.7554661252
   51      H       1.7164064503    -3.1060338291    -2.5767139229
   52      H       0.7011582245    -1.6210529401    -2.6611649163
   53      H       0.8638881779     2.7910018181    -1.8939809018
   54      H       0.8182431051     4.2508497717    -0.8086406449
   55      H      -0.9745498147     2.9101656946     0.6317008809
   56      H      -1.5026694480     3.5377057057    -0.9827390473
 ----------------------------------------------------------------

    9   -1510.2879648875      6.48E-09 Convergence criterion met
 Total energy in the final basis set = -1510.28796489
 Final energy is   -1510.28796488745
 **  OPTIMIZATION CONVERGED  **

                    Orbital Energies (a.u.)
 --------------------------------------------------------------

 Alpha MOs
 -- Occupied --
-18.943 -18.941 -18.928 -18.918 -18.887 -18.886 -18.886 -18.881
-18.867 -18.858 -10.106 -10.104 -10.096 -10.089 -10.078 -10.070
-10.066 -10.060 -10.058 -10.057 -10.056 -10.054 -10.040 -10.040
-10.036 -10.032 -10.020 -10.020 -10.019 -10.019  -1.022  -1.018
 -1.004  -0.996  -0.969  -0.969  -0.944  -0.942  -0.931  -0.922
 -0.763  -0.762  -0.728  -0.722  -0.714  -0.704  -0.696  -0.666
 -0.655  -0.619  -0.598  -0.578  -0.546  -0.543  -0.537  -0.536
 -0.511  -0.510  -0.488  -0.475  -0.460  -0.455  -0.452  -0.449
 -0.434  -0.430  -0.427  -0.417  -0.415  -0.414  -0.404  -0.403
 -0.399  -0.384  -0.374  -0.364  -0.362  -0.354  -0.353  -0.349
 -0.344  -0.340  -0.333  -0.332  -0.329  -0.326  -0.324  -0.313
 -0.311  -0.305  -0.304  -0.299  -0.296  -0.289  -0.275  -0.273
 -0.272  -0.257  -0.253  -0.244  -0.243  -0.233  -0.233  -0.192
 -0.182  -0.167  -0.162  -0.160  -0.157  -0.150  -0.144  -0.142
 -0.140

          Ground-State Mulliken Net Atomic Charges

     Atom                 Charge (a.u.)
  ----------------------------------------
      1 O                    -0.210000
      2 C                     0.213111
      3 C                    -0.078648
      4 C                    -0.078374
      5 C                     0.215476
      6 O                    -0.168976
      7 C                    -0.058178
      8 C                    -0.050834
      9 O                    -0.171703
     10 C                     0.214293
     11 C                    -0.078406
     12 C                    -0.081925
     13 C                     0.215395
     14 O                    -0.219210
     15 O                    -0.167932
     16 O                    -0.176904
     17 O                    -0.202112
     18 C                    -0.129140
     19 C                     0.024796
     20 C                    -0.143762
     21 C                    -0.144177
     22 C                     0.025063
     23 O                    -0.189260
     24 H                     0.086786
     25 H                     0.083170
     26 H                     0.086842
     27 H                     0.078187
     28 H                     0.073824
     29 H                     0.078003
     30 H                     0.073235
     31 H                     0.089076
     32 O                    -0.220903
     33 C                    -0.127139
     34 C                     0.023938
     35 C                    -0.143736
     36 C                    -0.143091
     37 C                     0.027422
     38 O                    -0.187406
     39 H                     0.085386
     40 H                     0.089770
     41 H                     0.093196
     42 H                     0.090057
     43 H                     0.078354
     44 H                     0.072636
     45 H                     0.078806
     46 H                     0.071724
     47 H                     0.085575
     48 H                     0.091956
     49 H                     0.089970
     50 H                     0.079531
     51 H                     0.089304
     52 H                     0.091038
     53 H                     0.101180
     54 H                     0.090914
     55 H                     0.103881
     56 H                     0.079920
  ----------------------------------------
  Sum of atomic charges =    -0.000000

                    Cartesian Multipole Moments
 -----------------------------------------------------------------
    Charge (ESU x 10^10)
                -0.0000
    Dipole Moment (Debye)
         X      -0.3216      Y       0.4165      Z      -0.0189
       Tot       0.5265
    Quadrupole Moments (Debye-Ang)
        XX    -168.5961     XY      -2.0770     YY    -143.6627
        XZ      20.5969     YZ      -1.7573     ZZ    -165.7612

 Total job time:  55.28s(wall), 2632.31s(cpu)
        *  Thank you very much for using Q-Chem.  Have a nice day.  *
