 Q-Chem 5.0, Q-Chem, Inc., Pleasanton, CA (2017)
 Q-Chem 5.0.1 for Intel X86 EM64T Linux

User input:
--------------------------------------------------------------
$molecule
0  1
O -5.8447522124 0.143939993 -0.3033211407
C -4.6176761061 0.2089587685 -0.5272450095
C -3.59069671 -0.977864198 -0.5126426577
C -2.1165637548 -0.5993858128 -0.065879603
C -1.92168417 0.8954909828 0.3672287343
O -1.0961722383 1.533135253 -0.6218553733
C -0.7953370287 2.9257246526 -0.2180320318
C 0.6959285678 3.2017445145 -0.6086269291
O 1.5884025605 2.4973553014 0.3467898134
C 1.9275294975 1.2076812658 -0.1728009367
C 2.8721451051 0.4789656513 0.8384241457
C 3.3876396501 -0.9116554798 0.2863136381
C 2.7931689153 -1.3293957795 -1.112018975
O 3.3940182713 -1.3354436872 -2.2072295007
O -3.9402291988 1.4046335025 -0.9318456428
O 1.4872049276 -1.900636597 -0.9050932511
O 1.5823106101 0.7904702177 -1.3023450074
C 0.8993462432 -2.2455109492 -2.2189051904
C 4.2435727958 1.2703517222 0.9873818902
C 5.0320523007 0.6858699524 2.2251148659
C 5.5569410635 -0.6764155876 1.6357520746
C 4.9452132929 -0.6335414902 0.1816259195
O 5.0196831502 0.8017722944 -0.1818505311
H 2.353888751 0.3778179072 1.809209041
H 3.1631153993 -1.7190267988 1.0062571452
H 4.1298755665 2.371694229 0.9715777189
H 5.8622506179 1.3542946959 2.5035684667
H 4.3806347131 0.5473586551 3.1028276005
H 6.6574261476 -0.6988527919 1.5904683497
H 5.2084083083 -1.5506680897 2.208121826
H 5.4621002474 -1.2486438706 -0.5800821389
O -2.2893300284 1.4387564078 1.4317565429
C -4.8639563906 2.5607084032 -0.8952090408
C -3.9790085682 -2.0626932442 0.5756870508
C -3.215162865 -3.4031445707 0.2379913416
C -1.7518826247 -3.0387644156 0.689549176
C -1.9479346032 -1.55701734 1.1948223031
O -3.3009513691 -1.5717214174 1.7970260803
H -3.5818017612 -1.418382976 -1.5276586271
H -1.3835163979 -0.8228521973 -0.8601964442
H -5.2084944144 2.7683949857 0.1384470464
H -5.0701266877 -2.1557931493 0.7423545513
H -3.6241536327 -4.2386848036 0.8278050826
H -3.2807569085 -3.6600953057 -0.8314058671
H -1.4132338788 -3.6826460237 1.5166549898
H -1.0180347928 -3.1037445473 -0.1282550333
H -1.2010372126 -1.2088190122 1.9341982507
H -5.7514171116 2.3933745998 -1.5388684035
H -4.286210616 3.424015857 -1.2731156846
H -0.0379258728 -2.7933248962 -2.0102229703
H 1.5782299826 -2.8866508338 -2.8171629115
H 0.6704676036 -1.3311150947 -2.8045128047
H 0.8854519169 2.8469347539 -1.6436219215
H 0.9249828492 4.2831758183 -0.5189198759
H -0.9640366552 3.0433684512 0.8744774653
H -1.4662377234 3.6269254787 -0.7621723994
$end

$rem
JOBTYPE                   OPT
METHOD                    B3LYP
DFT_D                     d3_op
BASIS                     STO-3G
GEOM_OPT_MAX_CYCLES       100
GEOM_OPT_TOL_GRADIENT     300
GEOM_OPT_TOL_DISPLACEMENT 1200
GEOM_OPT_TOL_ENERGY       100
SYMMETRY                  False
THRESH                    12
SCF_CONVERGENCE           8
MAX_SUB_FILE_NUM          128
MEM_STATIC                400
MEM_TOTAL                 4000
$end
--------------------------------------------------------------

   16   -1510.2886856732      5.37E-09 Convergence criterion met
 Total energy in the final basis set = -1510.28868567
   14   -1510.2904871728      1.87E-09 Convergence criterion met
 Total energy in the final basis set = -1510.29048717
   14   -1510.2934699732      2.67E-09 Convergence criterion met
 Total energy in the final basis set = -1510.29346997
   14   -1510.2728206362      6.29E-09 Convergence criterion met
 Total energy in the final basis set = -1510.27282064
   15   -1510.2940221911      2.68E-09 Convergence criterion met
 Total energy in the final basis set = -1510.29402219
   14   -1510.2938314904      6.50E-09 Convergence criterion met
 Total energy in the final basis set = -1510.29383149
   14   -1510.2938335315      5.22E-09 Convergence criterion met
 Total energy in the final basis set = -1510.29383353
   13   -1510.2957239271      9.13E-09 Convergence criterion met
   11   -1510.2990565487      9.24E-09 Convergence criterion met
 Total energy in the final basis set = -1510.29905655
   11   -1510.2990481959      4.15E-09 Convergence criterion met
 Total energy in the final basis set = -1510.29904820
   11   -1510.2990588045      2.14E-09 Convergence criterion met
 Total energy in the final basis set = -1510.29905880
   10   -1510.2990565139      8.22E-09 Convergence criterion met
 Total energy in the final basis set = -1510.29905651
   10   -1510.2990453223      7.47E-09 Convergence criterion met
 Total energy in the final basis set = -1510.29904532
    9   -1510.2990568169      9.18E-09 Convergence criterion met
 Total energy in the final basis set = -1510.29905682

             Standard Nuclear Orientation (Angstroms)
    I     Atom           X                Y                Z
 ----------------------------------------------------------------
    1      O      -5.1350383977    -0.0213829164     0.6886760794
    2      C      -4.0849598593     0.1094045789     0.0250650799
    3      C      -2.9373618990    -0.9481596623    -0.1540690120
    4      C      -1.4778248184    -0.3786538311     0.1016020099
    5      C      -1.4181642134     1.1671567252     0.3279603060
    6      O      -0.9880958538     1.7667799542    -0.9095458015
    7      C      -0.7680265847     3.2185543800    -0.7304964849
    8      C       0.7776937717     3.4912581921    -0.8342709560
    9      O       1.4806984777     2.6088855138     0.1288057121
   10      C       1.7881915964     1.3544248476    -0.4836374039
   11      C       2.3198528760     0.3820150136     0.6185859102
   12      C       2.5580771298    -1.0817214744     0.0687319366
   13      C       2.1882907817    -1.2881072143    -1.4474161460
   14      O       2.9751093081    -1.4081508639    -2.4079826833
   15      O      -3.7484320121     1.2869035403    -0.7179438323
   16      O       0.7631891894    -1.5197782354    -1.5518181926
   17      O       1.6831389234     1.1058180260    -1.7068950588
   18      C       0.3852305401    -1.6966472924    -2.9712834228
   19      C       3.7914848681     0.7751305545     1.0774905696
   20      C       4.1309931377    -0.0200570421     2.3994894161
   21      C       4.3814872668    -1.4656808535     1.8291172656
   22      C       4.1210676747    -1.2345317311     0.2901910331
   23      O       4.6410342163     0.1329030331     0.0508507941
   24      H       1.6175343188     0.3980347325     1.4709758880
   25      H       1.9896362876    -1.8154055961     0.6657974074
   26      H       3.9769947376     1.8660159639     1.1191013768
   27      H       5.0367595181     0.3917500148     2.8722634718
   28      H       3.3051779955     0.0145537170     3.1281857881
   29      H       5.4196269989    -1.7920975667     1.9997784527
   30      H       3.6995920892    -2.2174357789     2.2578172663
   31      H       4.6062687027    -1.9546867872    -0.3965530059
   32      O      -1.6370241703     1.8103559373     1.3776529289
   33      C      -4.7662938699     2.3393196263    -0.4985234831
   34      C      -3.0469273354    -2.0408848214     0.9879458965
   35      C      -2.1226302305    -3.2645639158     0.6158994192
   36      C      -0.6954816211    -2.6644398638     0.8969907622
   37      C      -1.0718602426    -1.2109940216     1.3930112177
   38      O      -2.3440908336    -1.4005150017     2.1234777783
   39      H      -3.0176984148    -1.3892958670    -1.1649070865
   40      H      -0.7851525363    -0.6263901659    -0.7281464685
   41      H      -4.7800059583     2.6709494633     0.5600366108
   42      H      -4.0902559800    -2.2862030707     1.2672424435
   43      H      -2.3397969828    -4.1232018045     1.2711039675
   44      H      -2.2531031833    -3.5791733263    -0.4320740377
   45      H      -0.1673656527    -3.2249468411     1.6843971046
   46      H      -0.0706100062    -2.6164420279    -0.0125571339
   47      H      -0.3243722615    -0.7185218361     2.0440163795
   48      H      -5.7820238841     1.9894316652    -0.7734780722
   49      H      -4.4747149287     3.1853378220    -1.1475033657
   50      H      -0.6847856747    -1.9747484425    -2.9732180212
   51      H       0.9821754022    -2.4959105940    -3.4549549063
   52      H       0.5249336186    -0.7536342388    -3.5384052435
   53      H       1.1340309957     3.2861274125    -1.8659443614
   54      H       1.0116418157     4.5360764300    -0.5468229548
   55      H      -1.1502795739     3.5130356296     0.2714255289
   56      H      -1.3111565072     3.7636944574    -1.5300766235
 ----------------------------------------------------------------

    9   -1510.2990546447      3.17E-09 Convergence criterion met
 Total energy in the final basis set = -1510.29905464
 Final energy is   -1510.29905464474
 **  OPTIMIZATION CONVERGED  **

                    Orbital Energies (a.u.)
 --------------------------------------------------------------

 Alpha MOs
 -- Occupied --
-18.943 -18.937 -18.935 -18.927 -18.890 -18.889 -18.881 -18.878
-18.874 -18.871 -10.110 -10.101 -10.099 -10.096 -10.077 -10.068
-10.066 -10.064 -10.064 -10.060 -10.053 -10.053 -10.044 -10.039
-10.035 -10.023 -10.023 -10.022 -10.015 -10.007  -1.025  -1.014
 -1.008  -1.003  -0.973  -0.965  -0.948  -0.938  -0.935  -0.932
 -0.767  -0.758  -0.729  -0.721  -0.714  -0.704  -0.695  -0.663
 -0.662  -0.620  -0.599  -0.577  -0.549  -0.542  -0.540  -0.533
 -0.515  -0.506  -0.490  -0.475  -0.469  -0.461  -0.452  -0.446
 -0.435  -0.427  -0.425  -0.419  -0.415  -0.413  -0.410  -0.405
 -0.399  -0.381  -0.375  -0.369  -0.363  -0.359  -0.350  -0.349
 -0.345  -0.341  -0.340  -0.336  -0.329  -0.327  -0.324  -0.315
 -0.309  -0.307  -0.302  -0.301  -0.295  -0.285  -0.283  -0.277
 -0.269  -0.256  -0.253  -0.248  -0.243  -0.237  -0.227  -0.193
 -0.179  -0.178  -0.167  -0.161  -0.158  -0.153  -0.148  -0.147
 -0.139

          Ground-State Mulliken Net Atomic Charges

     Atom                 Charge (a.u.)
  ----------------------------------------
      1 O                    -0.208943
      2 C                     0.211767
      3 C                    -0.077964
      4 C                    -0.091845
      5 C                     0.210684
      6 O                    -0.172836
      7 C                    -0.056626
      8 C                    -0.051569
      9 O                    -0.171662
     10 C                     0.216335
     11 C                    -0.078841
     12 C                    -0.082801
     13 C                     0.220502
     14 O                    -0.209063
     15 O                    -0.169898
     16 O                    -0.177980
     17 O                    -0.203615
     18 C                    -0.127858
     19 C                     0.025699
     20 C                    -0.143620
     21 C                    -0.144127
     22 C                     0.025320
     23 O                    -0.188004
     24 H                     0.087091
     25 H                     0.085787
     26 H                     0.086575
     27 H                     0.079252
     28 H                     0.074979
     29 H                     0.078921
     30 H                     0.073616
     31 H                     0.089407
     32 O                    -0.218674
     33 C                    -0.128261
     34 C                     0.024044
     35 C                    -0.144416
     36 C                    -0.153703
     37 C                     0.024158
     38 O                    -0.190248
     39 H                     0.082950
     40 H                     0.105155
     41 H                     0.092318
     42 H                     0.088946
     43 H                     0.076141
     44 H                     0.070624
     45 H                     0.069532
     46 H                     0.086990
     47 H                     0.075699
     48 H                     0.090916
     49 H                     0.089314
     50 H                     0.086079
     51 H                     0.090848
     52 H                     0.096468
     53 H                     0.099006
     54 H                     0.090812
     55 H                     0.101184
     56 H                     0.085439
  ----------------------------------------
  Sum of atomic charges =    -0.000000

                    Cartesian Multipole Moments
 -----------------------------------------------------------------
    Charge (ESU x 10^10)
                -0.0000
    Dipole Moment (Debye)
         X      -0.1069      Y       0.3330      Z      -0.7395
       Tot       0.8180
    Quadrupole Moments (Debye-Ang)
        XX    -170.8541     XY      -3.8521     YY    -144.2968
        XZ      19.6526     YZ      -2.5730     ZZ    -165.7515

 Total job time:  96.99s(wall), 4623.93s(cpu)
        *  Thank you very much for using Q-Chem.  Have a nice day.  *
