 Q-Chem 5.0, Q-Chem, Inc., Pleasanton, CA (2017)
 Q-Chem 5.0.1 for Intel X86 EM64T Linux

User input:
--------------------------------------------------------------
$molecule
0  1
O -3.94934 -3.66094 2.70899
C -3.26408 -4.56952 2.26188
C -3.36658 -6.02376 2.66595
C -2.07589 -6.85803 2.62143
C -0.79382 -6.1029 2.34913
O -0.30658 -6.44402 1.11964
C 0.95686 -5.8381 0.82666
C 1.85736 -6.82784 0.09478
O 2.34772 -7.81599 1.01455
C 1.60961 -8.95049 1.09978
C 2.17927 -9.95101 2.07708
C 1.44117 -11.29662 2.13
C 0.4954 -11.5772 0.97956
O 0.69438 -12.37809 0.07759
O -2.54918 -4.32159 1.13173
O -0.75585 -11.05425 1.10824
O 0.57985 -9.07886 0.45603
C -1.78948 -11.27165 0.22119
C 3.60608 -10.41516 1.71831
C 4.31103 -10.90853 2.9799
C 3.54959 -12.19094 3.24258
C 2.65848 -12.23913 1.99469
O 3.42352 -11.60697 0.99859
H 2.20147 -9.44499 3.06886
H 0.89187 -11.47913 3.07988
H 4.21862 -9.63321 1.21904
H 5.35357 -11.16743 2.68527
H 4.3396 -10.19186 3.8287
H 4.27569 -13.03397 3.2486
H 2.94191 -12.20167 4.17329
H 2.35745 -13.28928 1.7839
O -0.36611 -5.19939 3.05983
C -2.40014 -3.07725 0.55612
C -3.73416 -6.19521 4.15639
C -4.35299 -7.57448 4.38808
C -3.13015 -8.45921 4.26256
C -2.04215 -7.4014 4.05747
O -2.49405 -6.3036 4.8128
H -4.17106 -6.46188 2.03378
H -2.16633 -7.68003 1.87354
H -1.90777 -2.38364 1.27087
H -4.42072 -5.40759 4.53612
H -4.70585 -7.61027 5.44372
H -5.19617 -7.82773 3.71001
H -2.97278 -8.98203 5.23226
H -3.16051 -9.19989 3.43408
H -1.04429 -7.81045 4.33176
H -3.38985 -2.6707 0.25745
H -1.76341 -3.16947 -0.34754
H -2.68806 -10.72213 0.5696
H -2.02927 -12.35513 0.16987
H -1.51128 -10.89949 -0.78796
H 1.37981 -7.24843 -0.81936
H 2.74341 -6.26116 -0.26279
H 1.51186 -5.42984 1.70251
H 0.76107 -5.00021 0.12313
$end

$opt
CONSTRAINT
tors           1           2           3           4    -148.700
tors           3           4           5           6    -111.577
tors           4           5           6           7    -175.970
tors           5           6           7           8    +140.831
tors           6           7           8           9     -74.330
tors           7           8           9          10     +93.029
tors           8           9          10          11    +179.743
tors           9          10          11          12    -175.473
tors          11          12          13          14    +107.263
ENDCONSTRAINT
$end

$rem
JOBTYPE                   OPT
METHOD                    B3LYP
DFT_D                     d3_op
BASIS                     STO-3G
GEOM_OPT_MAX_CYCLES       100
GEOM_OPT_TOL_GRADIENT     300
GEOM_OPT_TOL_DISPLACEMENT 1200
GEOM_OPT_TOL_ENERGY       100
SYMMETRY                  False
THRESH                    12
SCF_CONVERGENCE           8
MAX_SUB_FILE_NUM          128
MEM_STATIC                400
MEM_TOTAL                 4000
$end
--------------------------------------------------------------

   15   -1510.1539167553      5.87E-09 Convergence criterion met
 Total energy in the final basis set = -1510.15391676
   14   -1510.2235161626      6.54E-09 Convergence criterion met
 Total energy in the final basis set = -1510.22351616
   14   -1510.2602124017      6.76E-09 Convergence criterion met
 Total energy in the final basis set = -1510.26021240
   14   -1510.2759049155      6.40E-09 Convergence criterion met
 Total energy in the final basis set = -1510.27590492
   14   -1510.2824281485      4.43E-09 Convergence criterion met
 Total energy in the final basis set = -1510.28242815
   13   -1510.2851691249      4.65E-09 Convergence criterion met
 Total energy in the final basis set = -1510.28516912
   13   -1510.2863040173      7.51E-09 Convergence criterion met
 Total energy in the final basis set = -1510.28630402
   13   -1510.2874725313      5.93E-09 Convergence criterion met
   11   -1510.2887190123      5.28E-09 Convergence criterion met
 Total energy in the final basis set = -1510.28871901
   11   -1510.2887498594      5.22E-09 Convergence criterion met
 Total energy in the final basis set = -1510.28874986
   11   -1510.2887649893      1.83E-09 Convergence criterion met
 Total energy in the final basis set = -1510.28876499
   11   -1510.2887722807      2.85E-09 Convergence criterion met
 Total energy in the final basis set = -1510.28877228
    9   -1510.2887707054      8.92E-09 Convergence criterion met
 Total energy in the final basis set = -1510.28877071
   10   -1510.2887651388      7.91E-09 Convergence criterion met
 Total energy in the final basis set = -1510.28876514

             Standard Nuclear Orientation (Angstroms)
    I     Atom           X                Y                Z
 ----------------------------------------------------------------
    1      O      -5.8447522124     0.1439399930    -0.3033211407
    2      C      -4.6176761061     0.2089587685    -0.5272450095
    3      C      -3.5906967100    -0.9778641980    -0.5126426577
    4      C      -2.1165637548    -0.5993858128    -0.0658796030
    5      C      -1.9216841700     0.8954909828     0.3672287343
    6      O      -1.0961722383     1.5331352530    -0.6218553733
    7      C      -0.7953370287     2.9257246526    -0.2180320318
    8      C       0.6959285678     3.2017445145    -0.6086269291
    9      O       1.5884025605     2.4973553014     0.3467898134
   10      C       1.9275294975     1.2076812658    -0.1728009367
   11      C       2.8721451051     0.4789656513     0.8384241457
   12      C       3.3876396501    -0.9116554798     0.2863136381
   13      C       2.7931689153    -1.3293957795    -1.1120189750
   14      O       3.3940182713    -1.3354436872    -2.2072295007
   15      O      -3.9402291988     1.4046335025    -0.9318456428
   16      O       1.4872049276    -1.9006365970    -0.9050932511
   17      O       1.5823106101     0.7904702177    -1.3023450074
   18      C       0.8993462432    -2.2455109492    -2.2189051904
   19      C       4.2435727958     1.2703517222     0.9873818902
   20      C       5.0320523007     0.6858699524     2.2251148659
   21      C       5.5569410635    -0.6764155876     1.6357520746
   22      C       4.9452132929    -0.6335414902     0.1816259195
   23      O       5.0196831502     0.8017722944    -0.1818505311
   24      H       2.3538887510     0.3778179072     1.8092090410
   25      H       3.1631153993    -1.7190267988     1.0062571452
   26      H       4.1298755665     2.3716942290     0.9715777189
   27      H       5.8622506179     1.3542946959     2.5035684667
   28      H       4.3806347131     0.5473586551     3.1028276005
   29      H       6.6574261476    -0.6988527919     1.5904683497
   30      H       5.2084083083    -1.5506680897     2.2081218260
   31      H       5.4621002474    -1.2486438706    -0.5800821389
   32      O      -2.2893300284     1.4387564078     1.4317565429
   33      C      -4.8639563906     2.5607084032    -0.8952090408
   34      C      -3.9790085682    -2.0626932442     0.5756870508
   35      C      -3.2151628650    -3.4031445707     0.2379913416
   36      C      -1.7518826247    -3.0387644156     0.6895491760
   37      C      -1.9479346032    -1.5570173400     1.1948223031
   38      O      -3.3009513691    -1.5717214174     1.7970260803
   39      H      -3.5818017612    -1.4183829760    -1.5276586271
   40      H      -1.3835163979    -0.8228521973    -0.8601964442
   41      H      -5.2084944144     2.7683949857     0.1384470464
   42      H      -5.0701266877    -2.1557931493     0.7423545513
   43      H      -3.6241536327    -4.2386848036     0.8278050826
   44      H      -3.2807569085    -3.6600953057    -0.8314058671
   45      H      -1.4132338788    -3.6826460237     1.5166549898
   46      H      -1.0180347928    -3.1037445473    -0.1282550333
   47      H      -1.2010372126    -1.2088190122     1.9341982507
   48      H      -5.7514171116     2.3933745998    -1.5388684035
   49      H      -4.2862106160     3.4240158570    -1.2731156846
   50      H      -0.0379258728    -2.7933248962    -2.0102229703
   51      H       1.5782299826    -2.8866508338    -2.8171629115
   52      H       0.6704676036    -1.3311150947    -2.8045128047
   53      H       0.8854519169     2.8469347539    -1.6436219215
   54      H       0.9249828492     4.2831758183    -0.5189198759
   55      H      -0.9640366552     3.0433684512     0.8744774653
   56      H      -1.4662377234     3.6269254787    -0.7621723994
 ----------------------------------------------------------------

    9   -1510.2887654348      6.56E-09 Convergence criterion met
 Total energy in the final basis set = -1510.28876543
 Final energy is   -1510.28876543479
 **  OPTIMIZATION CONVERGED  **

                    Orbital Energies (a.u.)
 --------------------------------------------------------------

 Alpha MOs
 -- Occupied --
-18.943 -18.942 -18.926 -18.918 -18.889 -18.887 -18.886 -18.881
-18.865 -18.859 -10.107 -10.104 -10.096 -10.090 -10.077 -10.069
-10.069 -10.061 -10.058 -10.057 -10.057 -10.055 -10.041 -10.039
-10.034 -10.033 -10.021 -10.019 -10.019 -10.018  -1.022  -1.017
 -1.003  -0.997  -0.970  -0.969  -0.945  -0.941  -0.930  -0.923
 -0.764  -0.762  -0.728  -0.722  -0.715  -0.704  -0.696  -0.666
 -0.656  -0.619  -0.598  -0.578  -0.546  -0.544  -0.537  -0.536
 -0.512  -0.511  -0.489  -0.476  -0.461  -0.456  -0.453  -0.449
 -0.433  -0.429  -0.426  -0.415  -0.415  -0.414  -0.404  -0.404
 -0.399  -0.383  -0.374  -0.365  -0.363  -0.354  -0.353  -0.349
 -0.344  -0.339  -0.335  -0.333  -0.329  -0.326  -0.325  -0.313
 -0.310  -0.305  -0.304  -0.301  -0.297  -0.288  -0.276  -0.274
 -0.272  -0.257  -0.252  -0.246  -0.245  -0.234  -0.233  -0.190
 -0.181  -0.168  -0.163  -0.161  -0.159  -0.148  -0.145  -0.142
 -0.141

          Ground-State Mulliken Net Atomic Charges

     Atom                 Charge (a.u.)
  ----------------------------------------
      1 O                    -0.209386
      2 C                     0.213898
      3 C                    -0.078386
      4 C                    -0.080321
      5 C                     0.215605
      6 O                    -0.172710
      7 C                    -0.053885
      8 C                    -0.051518
      9 O                    -0.171555
     10 C                     0.215926
     11 C                    -0.078122
     12 C                    -0.081748
     13 C                     0.216165
     14 O                    -0.218380
     15 O                    -0.167888
     16 O                    -0.178407
     17 O                    -0.201954
     18 C                    -0.129641
     19 C                     0.024830
     20 C                    -0.143889
     21 C                    -0.144018
     22 C                     0.024871
     23 O                    -0.189487
     24 H                     0.086665
     25 H                     0.082990
     26 H                     0.086476
     27 H                     0.078420
     28 H                     0.073742
     29 H                     0.078145
     30 H                     0.073270
     31 H                     0.089545
     32 O                    -0.222165
     33 C                    -0.127108
     34 C                     0.024080
     35 C                    -0.144135
     36 C                    -0.144394
     37 C                     0.027224
     38 O                    -0.188091
     39 H                     0.085098
     40 H                     0.090665
     41 H                     0.093452
     42 H                     0.089768
     43 H                     0.078123
     44 H                     0.072012
     45 H                     0.077741
     46 H                     0.076007
     47 H                     0.083128
     48 H                     0.092105
     49 H                     0.090009
     50 H                     0.079473
     51 H                     0.089187
     52 H                     0.092091
     53 H                     0.104517
     54 H                     0.089808
     55 H                     0.100891
     56 H                     0.081260
  ----------------------------------------
  Sum of atomic charges =    -0.000000

                    Cartesian Multipole Moments
 -----------------------------------------------------------------
    Charge (ESU x 10^10)
                -0.0000
    Dipole Moment (Debye)
         X       0.1867      Y       0.3193      Z       0.1347
       Tot       0.3936
    Quadrupole Moments (Debye-Ang)
        XX    -171.9470     XY      -3.6313     YY    -144.0838
        XZ      20.5884     YZ      -1.6713     ZZ    -164.8397

 Total job time:  57.46s(wall), 2735.73s(cpu)
        *  Thank you very much for using Q-Chem.  Have a nice day.  *
