 Q-Chem 5.0, Q-Chem, Inc., Pleasanton, CA (2017)
 Q-Chem 5.0.1 for Intel X86 EM64T Linux

User input:
--------------------------------------------------------------
$molecule
0  1
O -3.94934 -3.66094 2.70899
C -3.26408 -4.56952 2.26188
C -3.36658 -6.02376 2.66595
C -2.07589 -6.85803 2.62143
C -0.79382 -6.1029 2.34913
O -0.32297 -6.42071 1.10707
C 1.0025 -5.93651 0.86641
C 1.80668 -6.97152 0.08655
O 2.21877 -8.03254 0.96251
C 1.34714 -9.06505 1.07802
C 1.83949 -10.1496 2.00645
C 0.89438 -11.35051 2.15772
C -0.20131 -11.46428 1.11694
O -0.22745 -12.27334 0.20081
O -2.54913 -4.32138 1.13185
O -1.32439 -10.73329 1.36265
O 0.2807 -9.05213 0.48294
C -2.46166 -10.76383 0.58245
C 3.12749 -10.83971 1.52006
C 3.85879 -11.449 2.71412
C 2.92637 -12.59121 3.06086
C 1.91911 -12.48154 1.90889
O 2.67763 -11.98031 0.83531
H 2.02942 -9.65745 2.98734
H 0.42714 -11.4451 3.16279
H 3.80735 -10.16598 0.95442
H 4.81292 -11.87324 2.32651
H 4.08234 -10.74972 3.54836
H 3.50021 -13.54239 2.99786
H 2.42331 -12.51222 4.04891
H 1.42819 -13.4656 1.74013
O -0.35172 -5.21205 3.06661
C -2.40077 -3.07702 0.55607
C -3.73377 -6.1957 4.15647
C -4.35234 -7.57534 4.38758
C -3.12885 -8.45939 4.26431
C -2.04153 -7.40175 4.05724
O -2.49341 -6.30392 4.8126
H -4.17103 -6.46199 2.03378
H -2.16651 -7.67854 1.87229
H -1.90901 -2.38296 1.27081
H -4.42055 -5.40833 4.53628
H -4.70743 -7.61185 5.44242
H -5.19382 -7.82867 3.70741
H -2.9706 -8.97902 5.23558
H -3.1589 -9.20299 3.4393
H -1.04348 -7.81063 4.33112
H -3.39069 -2.67115 0.25716
H -1.76385 -3.16894 -0.34748
H -3.2146 -10.06972 1.00848
H -2.8883 -11.78936 0.56683
H -2.2232 -10.43954 -0.45301
H 1.30234 -7.31853 -0.84394
H 2.73778 -6.46277 -0.24278
H 1.57598 -5.63133 1.77247
H 0.90376 -5.04698 0.20727
$end

$opt
CONSTRAINT
tors           1           2           3           4    -148.700
tors           3           4           5           6    -110.188
tors           4           5           6           7    -169.517
tors           5           6           7           8    +140.831
tors           6           7           8           9     -76.624
tors           7           8           9          10     +89.171
tors           8           9          10          11    +179.743
tors           9          10          11          12    -179.288
tors          11          12          13          14    +106.160
ENDCONSTRAINT
$end

$rem
JOBTYPE                   OPT
METHOD                    B3LYP
DFT_D                     d3_op
BASIS                     STO-3G
GEOM_OPT_MAX_CYCLES       100
GEOM_OPT_TOL_GRADIENT     300
GEOM_OPT_TOL_DISPLACEMENT 1200
GEOM_OPT_TOL_ENERGY       100
SYMMETRY                  False
THRESH                    12
SCF_CONVERGENCE           8
MAX_SUB_FILE_NUM          128
MEM_STATIC                400
MEM_TOTAL                 4000
$end
--------------------------------------------------------------

   15   -1510.1548160143      5.92E-09 Convergence criterion met
 Total energy in the final basis set = -1510.15481601
   14   -1510.2244554164      6.57E-09 Convergence criterion met
 Total energy in the final basis set = -1510.22445542
   14   -1510.2613387021      6.92E-09 Convergence criterion met
 Total energy in the final basis set = -1510.26133870
   14   -1510.2768980270      6.42E-09 Convergence criterion met
 Total energy in the final basis set = -1510.27689803
   14   -1510.2821551704      6.13E-09 Convergence criterion met
 Total energy in the final basis set = -1510.28215517
   13   -1510.2850902326      7.44E-09 Convergence criterion met
 Total energy in the final basis set = -1510.28509023
   13   -1510.2862240694      6.16E-09 Convergence criterion met
 Total energy in the final basis set = -1510.28622407
   12   -1510.2872354709      9.91E-09 Convergence criterion met
   12   -1510.2886990448      1.49E-09 Convergence criterion met
 Total energy in the final basis set = -1510.28869904
   11   -1510.2887043242      5.52E-09 Convergence criterion met
 Total energy in the final basis set = -1510.28870432
   10   -1510.2887109877      8.42E-09 Convergence criterion met
 Total energy in the final basis set = -1510.28871099
   10   -1510.2887142881      6.62E-09 Convergence criterion met
 Total energy in the final basis set = -1510.28871429
    9   -1510.2887160166      7.42E-09 Convergence criterion met
 Total energy in the final basis set = -1510.28871602
    9   -1510.2887176388      6.08E-09 Convergence criterion met
 Total energy in the final basis set = -1510.28871764

             Standard Nuclear Orientation (Angstroms)
    I     Atom           X                Y                Z
 ----------------------------------------------------------------
    1      O      -5.6934819638    -0.1771825011    -0.2550019509
    2      C      -4.4818612388     0.0494755509    -0.4571210079
    3      C      -3.3086917216    -0.9925761765    -0.4553043804
    4      C      -1.9119736754    -0.4281019619     0.0241361966
    5      C      -1.8351109360     1.0917197445     0.3884326121
    6      O      -1.0461526820     1.7337827754    -0.6306265836
    7      C      -0.7212203382     3.1165003541    -0.2213427061
    8      C       0.7592516139     3.3583567002    -0.6832497228
    9      O       1.6509605721     2.6546746293     0.2809201814
   10      C       1.8475220956     1.3122855438    -0.1873377694
   11      C       2.7807269814     0.5169280648     0.7753812486
   12      C       3.0235288151    -0.9638629972     0.2633853939
   13      C       2.3756507953    -1.3104983208    -1.1356042646
   14      O       2.9987633128    -1.4430494558    -2.2105325588
   15      O      -3.9591748828     1.3305017006    -0.8288088422
   16      O       1.0033218726    -1.7436643834    -0.9705037049
   17      O       1.4334130275     0.8863120537    -1.2926516702
   18      C       0.4550729447    -2.0911031937    -2.3027880068
   19      C       4.2674210175     1.0844568448     0.7881617329
   20      C       5.0079242510     0.4776556345     2.0444179221
   21      C       5.2417508150    -1.0048906251     1.5693676528
   22      C       4.6031879950    -0.9694273542     0.1267805216
   23      O       4.9034229083     0.3997260534    -0.3574413912
   24      H       2.3454066410     0.5315175484     1.7912233196
   25      H       2.6620588020    -1.6986623925     1.0052611425
   26      H       4.3359198905     2.1844009445     0.6790427273
   27      H       5.9610271784     1.0021333192     2.2181435055
   28      H       4.3960372887     0.5420380471     2.9583331751
   29      H       6.3151452032    -1.2447051928     1.5095741224
   30      H       4.7507545957    -1.7436700084     2.2228546463
   31      H       4.9879257336    -1.7200917619    -0.5902349255
   32      O      -2.2157226340     1.6562636139     1.4370500445
   33      C      -5.0269497933     2.3547198415    -0.7947570714
   34      C      -3.5545686561    -2.1407421481     0.6058962544
   35      C      -2.5333050510    -3.3169158183     0.3188202061
   36      C      -1.2039445239    -2.7294858971     0.9247791822
   37      C      -1.6889896615    -1.2950931574     1.3499790454
   38      O      -3.0593056494    -1.5287703439     1.8591600808
   39      H      -3.2279409127    -1.4013223699    -1.4806596631
   40      H      -1.1171819864    -0.6285435776    -0.7142550523
   41      H      -5.4318916932     2.4822862941     0.2298519733
   42      H      -4.6171349825    -2.4370974679     0.7064219033
   43      H      -2.8451211050    -4.2360899669     0.8393912902
   44      H      -2.4538338890    -3.5343180061    -0.7586562246
   45      H      -0.8881409044    -3.3006961886     1.8121947846
   46      H      -0.3595728891    -2.6681572736     0.2149852800
   47      H      -1.0734789686    -0.7926840828     2.1206726131
   48      H      -5.8616988362     2.0939460157    -1.4768282381
   49      H      -4.5550758914     3.2977813967    -1.1262450116
   50      H      -0.5364369815    -2.5453543441    -2.1245245454
   51      H       1.1058222981    -2.8132878751    -2.8356335370
   52      H       0.3399543441    -1.1865717025    -2.9344196379
   53      H       0.9066276000     2.9649848119    -1.7103705412
   54      H       1.0222615827     4.4339056409    -0.6289514304
   55      H      -0.8317654413     3.2267385280     0.8789569788
   56      H      -1.4061129157     3.8356158656    -0.7234026463
 ----------------------------------------------------------------

    9   -1510.2887181233      3.50E-09 Convergence criterion met
 Total energy in the final basis set = -1510.28871812
 Final energy is   -1510.28871812325
 **  OPTIMIZATION CONVERGED  **

                    Orbital Energies (a.u.)
 --------------------------------------------------------------

 Alpha MOs
 -- Occupied --
-18.946 -18.940 -18.925 -18.924 -18.892 -18.890 -18.881 -18.878
-18.864 -18.863 -10.110 -10.101 -10.094 -10.094 -10.078 -10.070
-10.067 -10.065 -10.060 -10.058 -10.055 -10.051 -10.045 -10.037
-10.037 -10.027 -10.023 -10.022 -10.015 -10.005  -1.025  -1.015
 -1.003  -1.000  -0.973  -0.965  -0.948  -0.939  -0.929  -0.926
 -0.766  -0.759  -0.728  -0.719  -0.714  -0.704  -0.694  -0.663
 -0.658  -0.619  -0.598  -0.579  -0.548  -0.541  -0.540  -0.532
 -0.514  -0.509  -0.490  -0.475  -0.465  -0.458  -0.453  -0.446
 -0.436  -0.429  -0.426  -0.416  -0.413  -0.412  -0.406  -0.404
 -0.397  -0.382  -0.374  -0.365  -0.364  -0.357  -0.351  -0.348
 -0.345  -0.338  -0.336  -0.335  -0.328  -0.325  -0.323  -0.315
 -0.307  -0.305  -0.303  -0.300  -0.294  -0.287  -0.279  -0.277
 -0.267  -0.260  -0.249  -0.247  -0.247  -0.237  -0.228  -0.194
 -0.179  -0.171  -0.166  -0.161  -0.157  -0.147  -0.145  -0.144
 -0.138

          Ground-State Mulliken Net Atomic Charges

     Atom                 Charge (a.u.)
  ----------------------------------------
      1 O                    -0.210020
      2 C                     0.214006
      3 C                    -0.077705
      4 C                    -0.084894
      5 C                     0.214971
      6 O                    -0.173180
      7 C                    -0.053742
      8 C                    -0.052032
      9 O                    -0.167795
     10 C                     0.213396
     11 C                    -0.079259
     12 C                    -0.080725
     13 C                     0.217533
     14 O                    -0.217529
     15 O                    -0.167873
     16 O                    -0.179051
     17 O                    -0.198631
     18 C                    -0.130364
     19 C                     0.025404
     20 C                    -0.143165
     21 C                    -0.144638
     22 C                     0.025686
     23 O                    -0.187595
     24 H                     0.086495
     25 H                     0.083596
     26 H                     0.086452
     27 H                     0.079038
     28 H                     0.074195
     29 H                     0.078954
     30 H                     0.073801
     31 H                     0.090160
     32 O                    -0.222933
     33 C                    -0.126786
     34 C                     0.024171
     35 C                    -0.144795
     36 C                    -0.153854
     37 C                     0.026304
     38 O                    -0.190481
     39 H                     0.083754
     40 H                     0.095506
     41 H                     0.093366
     42 H                     0.088153
     43 H                     0.076413
     44 H                     0.068398
     45 H                     0.071914
     46 H                     0.090520
     47 H                     0.079564
     48 H                     0.091107
     49 H                     0.090369
     50 H                     0.082587
     51 H                     0.090627
     52 H                     0.092476
     53 H                     0.105935
     54 H                     0.090304
     55 H                     0.100398
     56 H                     0.081492
  ----------------------------------------
  Sum of atomic charges =    -0.000000

                    Cartesian Multipole Moments
 -----------------------------------------------------------------
    Charge (ESU x 10^10)
                -0.0000
    Dipole Moment (Debye)
         X       0.9296      Y       0.7510      Z       0.0786
       Tot       1.1976
    Quadrupole Moments (Debye-Ang)
        XX    -171.1373     XY      -4.1666     YY    -145.1155
        XZ      19.9968     YZ      -2.1669     ZZ    -164.8641

 Total job time:  66.29s(wall), 3158.93s(cpu)
        *  Thank you very much for using Q-Chem.  Have a nice day.  *
