 Q-Chem 5.0, Q-Chem, Inc., Pleasanton, CA (2017)
 Q-Chem 5.0.1 for Intel X86 EM64T Linux

User input:
--------------------------------------------------------------
$molecule
0  1
O -5.6934819638 -0.1771825011 -0.2550019509
C -4.4818612388 0.0494755509 -0.4571210079
C -3.3086917216 -0.9925761765 -0.4553043804
C -1.9119736754 -0.4281019619 0.0241361966
C -1.835110936 1.0917197445 0.3884326121
O -1.046152682 1.7337827754 -0.6306265836
C -0.7212203382 3.1165003541 -0.2213427061
C 0.7592516139 3.3583567002 -0.6832497228
O 1.6509605721 2.6546746293 0.2809201814
C 1.8475220956 1.3122855438 -0.1873377694
C 2.7807269814 0.5169280648 0.7753812486
C 3.0235288151 -0.9638629972 0.2633853939
C 2.3756507953 -1.3104983208 -1.1356042646
O 2.9987633128 -1.4430494558 -2.2105325588
O -3.9591748828 1.3305017006 -0.8288088422
O 1.0033218726 -1.7436643834 -0.9705037049
O 1.4334130275 0.8863120537 -1.2926516702
C 0.4550729447 -2.0911031937 -2.3027880068
C 4.2674210175 1.0844568448 0.7881617329
C 5.007924251 0.4776556345 2.0444179221
C 5.241750815 -1.0048906251 1.5693676528
C 4.603187995 -0.9694273542 0.1267805216
O 4.9034229083 0.3997260534 -0.3574413912
H 2.345406641 0.5315175484 1.7912233196
H 2.662058802 -1.6986623925 1.0052611425
H 4.3359198905 2.1844009445 0.6790427273
H 5.9610271784 1.0021333192 2.2181435055
H 4.3960372887 0.5420380471 2.9583331751
H 6.3151452032 -1.2447051928 1.5095741224
H 4.7507545957 -1.7436700084 2.2228546463
H 4.9879257336 -1.7200917619 -0.5902349255
O -2.215722634 1.6562636139 1.4370500445
C -5.0269497933 2.3547198415 -0.7947570714
C -3.5545686561 -2.1407421481 0.6058962544
C -2.533305051 -3.3169158183 0.3188202061
C -1.2039445239 -2.7294858971 0.9247791822
C -1.6889896615 -1.2950931574 1.3499790454
O -3.0593056494 -1.5287703439 1.8591600808
H -3.2279409127 -1.4013223699 -1.4806596631
H -1.1171819864 -0.6285435776 -0.7142550523
H -5.4318916932 2.4822862941 0.2298519733
H -4.6171349825 -2.4370974679 0.7064219033
H -2.845121105 -4.2360899669 0.8393912902
H -2.453833889 -3.5343180061 -0.7586562246
H -0.8881409044 -3.3006961886 1.8121947846
H -0.3595728891 -2.6681572736 0.21498528
H -1.0734789686 -0.7926840828 2.1206726131
H -5.8616988362 2.0939460157 -1.4768282381
H -4.5550758914 3.2977813967 -1.1262450116
H -0.5364369815 -2.5453543441 -2.1245245454
H 1.1058222981 -2.8132878751 -2.835633537
H 0.3399543441 -1.1865717025 -2.9344196379
H 0.9066276 2.9649848119 -1.7103705412
H 1.0222615827 4.4339056409 -0.6289514304
H -0.8317654413 3.226738528 0.8789569788
H -1.4061129157 3.8356158656 -0.7234026463
$end

$rem
JOBTYPE                   OPT
METHOD                    B3LYP
DFT_D                     d3_op
BASIS                     STO-3G
GEOM_OPT_MAX_CYCLES       100
GEOM_OPT_TOL_GRADIENT     300
GEOM_OPT_TOL_DISPLACEMENT 1200
GEOM_OPT_TOL_ENERGY       100
SYMMETRY                  False
THRESH                    12
SCF_CONVERGENCE           8
MAX_SUB_FILE_NUM          128
MEM_STATIC                400
MEM_TOTAL                 4000
$end
--------------------------------------------------------------

   16   -1510.2887392054      5.57E-09 Convergence criterion met
 Total energy in the final basis set = -1510.28873921
   14   -1510.2892597844      9.41E-09 Convergence criterion met
 Total energy in the final basis set = -1510.28925978
   14   -1510.2742078366      9.97E-09 Convergence criterion met
 Total energy in the final basis set = -1510.27420784
   15   -1510.2899610377      3.61E-09 Convergence criterion met
 Total energy in the final basis set = -1510.28996104
   15   -1510.2842983441      6.24E-09 Convergence criterion met
 Total energy in the final basis set = -1510.28429834
   13   -1510.2887275192      5.56E-09 Convergence criterion met
 Total energy in the final basis set = -1510.28872752
   14   -1510.2916077218      4.46E-09 Convergence criterion met
 Total energy in the final basis set = -1510.29160772
   15   -1510.2808651079      3.13E-09 Convergence criterion met
   12   -1510.2990145953      9.92E-09 Convergence criterion met
 Total energy in the final basis set = -1510.29901460
   12   -1510.2988635816      8.53E-09 Convergence criterion met
 Total energy in the final basis set = -1510.29886358
   12   -1510.2990237027      5.98E-09 Convergence criterion met
 Total energy in the final basis set = -1510.29902370
   11   -1510.2990174290      2.93E-09 Convergence criterion met
 Total energy in the final basis set = -1510.29901743
   11   -1510.2990243126      2.48E-09 Convergence criterion met
 Total energy in the final basis set = -1510.29902431
   10   -1510.2990224740      6.84E-09 Convergence criterion met
 Total energy in the final basis set = -1510.29902247

             Standard Nuclear Orientation (Angstroms)
    I     Atom           X                Y                Z
 ----------------------------------------------------------------
    1      O      -5.1088930178    -0.1859835299     0.7514088823
    2      C      -4.0668204869    -0.0181269628     0.0835293853
    3      C      -2.8862684027    -1.0363470687    -0.1084775895
    4      C      -1.4453570981    -0.4199633961     0.1451675745
    5      C      -1.4383528787     1.1229301873     0.3962599051
    6      O      -1.0313011371     1.7578503689    -0.8313311177
    7      C      -0.8546671319     3.2120579100    -0.6253992493
    8      C       0.6804350665     3.5345650690    -0.7447326729
    9      O       1.4263520557     2.6463021573     0.1800853301
   10      C       1.7579960353     1.4190988712    -0.4733936814
   11      C       2.3439181819     0.4324149121     0.5879919777
   12      C       2.6100482999    -1.0064850327    -0.0122875119
   13      C       2.1945633231    -1.1837205747    -1.5203639536
   14      O       2.9515232473    -1.2646858946    -2.5086042255
   15      O      -3.7713126470     1.1741373462    -0.6533277227
   16      O       0.7727534931    -1.4489088871    -1.5822988941
   17      O       1.6344321586     1.2011105550    -1.7008185211
   18      C       0.3497893976    -1.6014255965    -2.9918703054
   19      C       3.8154512101     0.8559808548     1.0180595864
   20      C       4.2193587595     0.0273961081     2.3009489119
   21      C       4.5032351205    -1.3878151939     1.6727743360
   22      C       4.1839869350    -1.1142117770     0.1522377222
   23      O       4.6517869793     0.2769311975    -0.0560191249
   24      H       1.6635308820     0.4037475476     1.4575380032
   25      H       2.0856040000    -1.7745496584     0.5820461033
   26      H       3.9684460930     1.9502055332     1.0924913665
   27      H       5.1230338001     0.4538959554     2.7646752017
   28      H       3.4133142218     0.0063993389     3.0521112136
   29      H       5.5575024617    -1.6810136218     1.7991641949
   30      H       3.8629307627    -2.1780924660     2.0960961887
   31      H       4.6681125718    -1.7943302350    -0.5749066606
   32      O      -1.6766422088     1.7412710025     1.4566624328
   33      C      -4.8202238412     2.1928235997    -0.4213404734
   34      C      -2.9536601090    -2.1425748974     1.0236968449
   35      C      -1.9945097612    -3.3330736322     0.6320309557
   36      C      -0.5846936779    -2.6895514328     0.9042921023
   37      C      -1.0023165559    -1.2549346873     1.4219528248
   38      O      -2.2616495003    -1.4928669017     2.1604844763
   39      H      -2.9564947307    -1.4713005357    -1.1228038482
   40      H      -0.7495519098    -0.6311458829    -0.6926335948
   41      H      -4.8349429558     2.5201339182     0.6385637506
   42      H      -3.9867271387    -2.4228208100     1.3082670864
   43      H      -2.1774285723    -4.2038602291     1.2816505510
   44      H      -2.1249640379    -3.6424268267    -0.4174887905
   45      H      -0.0284880306    -3.2415875915     1.6782232491
   46      H       0.0262940866    -2.6121026218    -0.0122698769
   47      H      -0.2646479394    -0.7479371355     2.0730994804
   48      H      -5.8267511511     1.8117205062    -0.6884318108
   49      H      -4.5615609918     3.0500158125    -1.0696110564
   50      H      -0.7121055056    -1.9078777126    -2.9639126092
   51      H       0.9500156567    -2.3723837314    -3.5157309824
   52      H       0.4449777647    -0.6416029140    -3.5396605923
   53      H       1.0254199762     3.3715599736    -1.7876606991
   54      H       0.8873501192     4.5770182583    -0.4294496288
   55      H      -1.2330102984     3.4729872015     0.3872830468
   56      H      -1.4255986303     3.7565288570    -1.4058365574
 ----------------------------------------------------------------

    9   -1510.2990228497      6.05E-09 Convergence criterion met
 Total energy in the final basis set = -1510.29902285
 Final energy is   -1510.29902284973
 **  OPTIMIZATION CONVERGED  **

                    Orbital Energies (a.u.)
 --------------------------------------------------------------

 Alpha MOs
 -- Occupied --
-18.943 -18.937 -18.935 -18.927 -18.890 -18.889 -18.881 -18.878
-18.874 -18.870 -10.110 -10.101 -10.099 -10.095 -10.077 -10.068
-10.066 -10.064 -10.064 -10.060 -10.053 -10.053 -10.044 -10.039
-10.035 -10.023 -10.022 -10.022 -10.015 -10.008  -1.025  -1.014
 -1.008  -1.003  -0.973  -0.965  -0.948  -0.938  -0.936  -0.932
 -0.768  -0.758  -0.729  -0.721  -0.714  -0.704  -0.695  -0.663
 -0.662  -0.620  -0.599  -0.577  -0.549  -0.542  -0.540  -0.534
 -0.515  -0.506  -0.490  -0.475  -0.469  -0.461  -0.453  -0.446
 -0.435  -0.427  -0.425  -0.419  -0.415  -0.413  -0.410  -0.405
 -0.399  -0.381  -0.375  -0.369  -0.363  -0.359  -0.350  -0.349
 -0.345  -0.341  -0.340  -0.336  -0.329  -0.327  -0.324  -0.315
 -0.309  -0.306  -0.303  -0.301  -0.295  -0.285  -0.283  -0.277
 -0.269  -0.257  -0.253  -0.248  -0.243  -0.237  -0.227  -0.193
 -0.179  -0.178  -0.167  -0.161  -0.158  -0.153  -0.148  -0.147
 -0.139

          Ground-State Mulliken Net Atomic Charges

     Atom                 Charge (a.u.)
  ----------------------------------------
      1 O                    -0.208978
      2 C                     0.211705
      3 C                    -0.077964
      4 C                    -0.092709
      5 C                     0.210581
      6 O                    -0.172902
      7 C                    -0.056802
      8 C                    -0.051514
      9 O                    -0.171595
     10 C                     0.216617
     11 C                    -0.078764
     12 C                    -0.082768
     13 C                     0.220672
     14 O                    -0.209124
     15 O                    -0.169893
     16 O                    -0.178103
     17 O                    -0.203460
     18 C                    -0.127806
     19 C                     0.025661
     20 C                    -0.143650
     21 C                    -0.144073
     22 C                     0.025264
     23 O                    -0.188075
     24 H                     0.087017
     25 H                     0.085636
     26 H                     0.086548
     27 H                     0.079253
     28 H                     0.074893
     29 H                     0.078951
     30 H                     0.073606
     31 H                     0.089580
     32 O                    -0.218720
     33 C                    -0.128322
     34 C                     0.024043
     35 C                    -0.144298
     36 C                    -0.153057
     37 C                     0.024181
     38 O                    -0.190159
     39 H                     0.082676
     40 H                     0.106066
     41 H                     0.092214
     42 H                     0.088966
     43 H                     0.076197
     44 H                     0.070700
     45 H                     0.069793
     46 H                     0.086030
     47 H                     0.075784
     48 H                     0.090958
     49 H                     0.089297
     50 H                     0.086096
     51 H                     0.090920
     52 H                     0.096491
     53 H                     0.098943
     54 H                     0.090844
     55 H                     0.101254
     56 H                     0.085295
  ----------------------------------------
  Sum of atomic charges =    -0.000000

                    Cartesian Multipole Moments
 -----------------------------------------------------------------
    Charge (ESU x 10^10)
                -0.0000
    Dipole Moment (Debye)
         X      -0.0598      Y       0.3035      Z      -0.7061
       Tot       0.7709
    Quadrupole Moments (Debye-Ang)
        XX    -169.8466     XY      -4.9924     YY    -144.4763
        XZ      19.8767     YZ      -1.5837     ZZ    -166.7329

 Total job time:  92.12s(wall), 4393.81s(cpu)
        *  Thank you very much for using Q-Chem.  Have a nice day.  *
