 Q-Chem 5.0, Q-Chem, Inc., Pleasanton, CA (2017)
 Q-Chem 5.0.1 for Intel X86 EM64T Linux

User input:
--------------------------------------------------------------
$molecule
0  1
O -3.94934 -3.66094 2.70899
C -3.26408 -4.56952 2.26188
C -3.36658 -6.02376 2.66595
C -2.06234 -6.83718 2.69988
C -0.77886 -6.06239 2.49871
O -0.16154 -6.47662 1.35295
C 1.15826 -5.94369 1.2001
C 2.09904 -7.01626 0.66099
O 2.44163 -7.93791 1.70792
C 1.7279 -9.0909 1.72641
C 2.13854 -10.0192 2.84458
C 1.4318 -11.38258 2.84651
C 0.70901 -11.754 1.56732
O 1.07571 -12.60188 0.76657
O -2.54043 -4.32388 1.13698
O -0.55604 -11.26368 1.44499
O 0.82077 -9.28119 0.93149
C -1.41415 -11.56439 0.40769
C 3.61567 -10.45754 2.7663
C 4.09955 -10.85951 4.15779
C 3.33082 -12.14857 4.35979
C 2.6735 -12.29263 2.98106
O 3.58745 -11.69189 2.09739
H 1.9769 -9.46008 3.79405
H 0.72753 -11.52953 3.69488
H 4.28925 -9.68506 2.3356
H 5.18267 -11.10184 4.06374
H 3.9647 -10.09727 4.95511
H 4.06204 -12.96705 4.54237
H 2.56946 -12.12689 5.16942
H 2.43653 -13.3616 2.78363
O -0.41423 -5.13384 3.21197
C -2.38939 -3.08032 0.56029
C -3.83011 -6.20387 4.12681
C -4.42972 -7.59786 4.31878
C -3.17941 -8.45207 4.2854
C -2.10642 -7.36968 4.14074
O -2.63207 -6.28062 4.86112
H -4.11042 -6.47738 1.97325
H -2.09569 -7.6696 1.9587
H -1.90368 -2.3844 1.27735
H -4.55891 -5.4324 4.45764
H -4.85931 -7.64351 5.34511
H -5.21289 -7.8703 3.57896
H -3.07165 -8.9569 5.27136
H -3.13786 -9.20559 3.46915
H -1.11892 -7.75396 4.48074
H -3.37772 -2.67619 0.25372
H -1.74613 -3.17279 -0.3387
H -2.37108 -11.02428 0.56016
H -1.61871 -12.65602 0.38335
H -0.97172 -11.24276 -0.55933
H 1.70139 -7.48457 -0.26789
H 3.04449 -6.51711 0.35936
H 1.6098 -5.48784 2.1111
H 1.09669 -5.15412 0.42035
$end

$opt
CONSTRAINT
tors           1           2           3           4    -145.251
tors           3           4           5           6    -116.367
tors           4           5           6           7    -170.781
tors           5           6           7           8    +139.171
tors           6           7           8           9     -75.951
tors           7           8           9          10     +98.259
tors           8           9          10          11    +179.743
tors           9          10          11          12    -175.694
tors          11          12          13          14    +107.794
ENDCONSTRAINT
$end

$rem
JOBTYPE                   OPT
METHOD                    B3LYP
DFT_D                     d3_op
BASIS                     STO-3G
GEOM_OPT_MAX_CYCLES       100
GEOM_OPT_TOL_GRADIENT     300
GEOM_OPT_TOL_DISPLACEMENT 1200
GEOM_OPT_TOL_ENERGY       100
SYMMETRY                  False
THRESH                    12
SCF_CONVERGENCE           8
MAX_SUB_FILE_NUM          128
MEM_STATIC                400
MEM_TOTAL                 4000
$end
--------------------------------------------------------------

   15   -1510.1541153534      5.74E-09 Convergence criterion met
 Total energy in the final basis set = -1510.15411535
   14   -1510.2235083685      6.74E-09 Convergence criterion met
 Total energy in the final basis set = -1510.22350837
   14   -1510.2599616539      7.02E-09 Convergence criterion met
 Total energy in the final basis set = -1510.25996165
   14   -1510.2754858235      2.33E-09 Convergence criterion met
 Total energy in the final basis set = -1510.27548582
   13   -1510.2820148601      7.95E-09 Convergence criterion met
 Total energy in the final basis set = -1510.28201486
   13   -1510.2849698706      4.58E-09 Convergence criterion met
 Total energy in the final basis set = -1510.28496987
   13   -1510.2866446662      4.00E-09 Convergence criterion met
 Total energy in the final basis set = -1510.28664467
   13   -1510.2870431031      4.62E-09 Convergence criterion met
   12   -1510.2884893066      2.81E-09 Convergence criterion met
 Total energy in the final basis set = -1510.28848931
   12   -1510.2885618590      2.54E-09 Convergence criterion met
 Total energy in the final basis set = -1510.28856186
   11   -1510.2885973738      3.44E-09 Convergence criterion met
 Total energy in the final basis set = -1510.28859737
   11   -1510.2886209115      2.84E-09 Convergence criterion met
 Total energy in the final basis set = -1510.28862091
    9   -1510.2886254044      9.21E-09 Convergence criterion met
 Total energy in the final basis set = -1510.28862540
   11   -1510.2886264190      2.81E-09 Convergence criterion met
 Total energy in the final basis set = -1510.28862642

             Standard Nuclear Orientation (Angstroms)
    I     Atom           X                Y                Z
 ----------------------------------------------------------------
    1      O      -5.8164669413    -0.0812241738    -0.1463138116
    2      C      -4.6212711741     0.0505884527    -0.4833559836
    3      C      -3.5103920272    -1.0567110604    -0.5035085441
    4      C      -2.0582311470    -0.5478368416    -0.1279561939
    5      C      -1.9729891205     0.9634295529     0.2846569643
    6      O      -1.1550874899     1.6307590202    -0.6889200998
    7      C      -0.8442281066     3.0124583649    -0.2517667989
    8      C       0.6591978366     3.2329374939    -0.6287734947
    9      O       1.4841243197     2.5015139193     0.3687702094
   10      C       1.8736205242     1.2373393576    -0.1771427021
   11      C       2.7472566410     0.4642291694     0.8634562836
   12      C       3.3038591307    -0.8987092072     0.2817669991
   13      C       2.7864408409    -1.2639106118    -1.1610749470
   14      O       3.4457754260    -1.2292195579    -2.2214818057
   15      O      -4.0630823688     1.2622276952    -1.0076906679
   16      O       1.4681032437    -1.8352441189    -1.0485629756
   17      O       1.6063038476     0.8642110451    -1.3432582442
   18      C       0.9508878847    -2.1206583861    -2.4059597447
   19      C       4.1034334911     1.2445189080     1.1458354531
   20      C       4.8149430280     0.5875601617     2.3941523692
   21      C       5.3952516098    -0.7300234135     1.7572746596
   22      C       4.8628439242    -0.6090116217     0.2763941416
   23      O       4.9509466097     0.8449601267     0.0007327315
   24      H       2.1613304367     0.3155094875     1.7888066369
   25      H       3.0475281324    -1.7359357577     0.9555309448
   26      H       3.9882992634     2.3451016755     1.1881703126
   27      H       5.6153179030     1.2443167972     2.7700087560
   28      H       4.1071426178     0.3873886892     3.2144204724
   29      H       6.4968496493    -0.7319086848     1.7706916345
   30      H       5.0340324977    -1.6418533837     2.2589190368
   31      H       5.4239318225    -1.1785830392    -0.4894587546
   32      O      -2.3995096602     1.5001571645     1.3302422670
   33      C      -5.0567198869     2.3575051941    -0.9448736832
   34      C      -3.7549264846    -2.1526419247     0.6142081852
   35      C      -2.8921480565    -3.4272453739     0.2561841399
   36      C      -1.4474894931    -2.9336634819     0.6416656736
   37      C      -1.7497187876    -1.4667231932     1.1363410878
   38      O      -3.0688470284    -1.5877059725     1.7988143193
   39      H      -3.5097780350    -1.5094047118    -1.5130251796
   40      H      -1.3411147629    -0.7195142505    -0.9492351110
   41      H      -5.3071824471     2.6129244377     0.1051201411
   42      H      -4.8249798623    -2.3378285164     0.8325557118
   43      H      -3.2022020455    -4.2877832571     0.8700367626
   44      H      -2.9794108319    -3.7024089103    -0.8070665103
   45      H      -1.0229903718    -3.5325109209     1.4628934462
   46      H      -0.7410391705    -2.9455890179    -0.2027811141
   47      H      -1.0039660875    -1.0422443785     1.8358303832
   48      H      -5.9914029653     2.0899713160    -1.4783038861
   49      H      -4.5831202747     3.2280774900    -1.4346323615
   50      H      -0.0130532590    -2.6449788542    -2.2707179305
   51      H       1.6449184454    -2.7645710543    -2.9835224844
   52      H       0.7846117167    -1.1819938839    -2.9737129677
   53      H       0.8565926740     2.8378396650    -1.6473416009
   54      H       0.9354860541     4.3048060643    -0.5580866529
   55      H      -1.0186274488     3.1163726411     0.8407929408
   56      H      -1.4932972266     3.7366525532    -0.7920486961
 ----------------------------------------------------------------

    9   -1510.2886255024      8.21E-09 Convergence criterion met
 Total energy in the final basis set = -1510.28862550
 Final energy is   -1510.28862550240
 **  OPTIMIZATION CONVERGED  **

                    Orbital Energies (a.u.)
 --------------------------------------------------------------

 Alpha MOs
 -- Occupied --
-18.943 -18.941 -18.927 -18.919 -18.889 -18.887 -18.885 -18.881
-18.865 -18.860 -10.108 -10.103 -10.096 -10.091 -10.076 -10.070
-10.068 -10.062 -10.057 -10.057 -10.057 -10.056 -10.043 -10.039
-10.034 -10.033 -10.022 -10.020 -10.019 -10.016  -1.024  -1.016
 -1.004  -0.997  -0.971  -0.968  -0.946  -0.941  -0.930  -0.924
 -0.764  -0.762  -0.728  -0.722  -0.715  -0.704  -0.696  -0.664
 -0.656  -0.619  -0.598  -0.578  -0.546  -0.544  -0.538  -0.536
 -0.512  -0.511  -0.490  -0.476  -0.462  -0.457  -0.453  -0.449
 -0.433  -0.428  -0.427  -0.416  -0.414  -0.414  -0.405  -0.404
 -0.400  -0.382  -0.373  -0.366  -0.363  -0.355  -0.353  -0.349
 -0.345  -0.340  -0.335  -0.333  -0.329  -0.325  -0.325  -0.313
 -0.308  -0.306  -0.304  -0.301  -0.296  -0.287  -0.277  -0.274
 -0.271  -0.258  -0.252  -0.247  -0.246  -0.235  -0.232  -0.191
 -0.180  -0.168  -0.164  -0.162  -0.159  -0.147  -0.145  -0.142
 -0.141

          Ground-State Mulliken Net Atomic Charges

     Atom                 Charge (a.u.)
  ----------------------------------------
      1 O                    -0.208718
      2 C                     0.214287
      3 C                    -0.078601
      4 C                    -0.080182
      5 C                     0.214624
      6 O                    -0.173816
      7 C                    -0.053260
      8 C                    -0.052704
      9 O                    -0.171066
     10 C                     0.215915
     11 C                    -0.077897
     12 C                    -0.081859
     13 C                     0.216348
     14 O                    -0.218038
     15 O                    -0.168463
     16 O                    -0.179202
     17 O                    -0.203062
     18 C                    -0.129783
     19 C                     0.024901
     20 C                    -0.144003
     21 C                    -0.143855
     22 C                     0.024830
     23 O                    -0.189620
     24 H                     0.086496
     25 H                     0.082998
     26 H                     0.086557
     27 H                     0.078582
     28 H                     0.073799
     29 H                     0.078315
     30 H                     0.073352
     31 H                     0.089881
     32 O                    -0.222223
     33 C                    -0.127590
     34 C                     0.024131
     35 C                    -0.144203
     36 C                    -0.145200
     37 C                     0.027190
     38 O                    -0.188053
     39 H                     0.084873
     40 H                     0.090573
     41 H                     0.093231
     42 H                     0.089696
     43 H                     0.077834
     44 H                     0.071642
     45 H                     0.077008
     46 H                     0.079134
     47 H                     0.081441
     48 H                     0.091870
     49 H                     0.090259
     50 H                     0.080111
     51 H                     0.088790
     52 H                     0.092597
     53 H                     0.107537
     54 H                     0.089171
     55 H                     0.101183
     56 H                     0.082240
  ----------------------------------------
  Sum of atomic charges =     0.000000

                    Cartesian Multipole Moments
 -----------------------------------------------------------------
    Charge (ESU x 10^10)
                -0.0000
    Dipole Moment (Debye)
         X       0.1919      Y       0.2481      Z       0.0122
       Tot       0.3139
    Quadrupole Moments (Debye-Ang)
        XX    -172.5217     XY      -4.5821     YY    -144.7340
        XZ      20.8642     YZ      -1.2376     ZZ    -164.1444

 Total job time:  54.82s(wall), 2609.89s(cpu)
        *  Thank you very much for using Q-Chem.  Have a nice day.  *
