 Q-Chem 5.0, Q-Chem, Inc., Pleasanton, CA (2017)
 Q-Chem 5.0.1 for Intel X86 EM64T Linux

User input:
--------------------------------------------------------------
$molecule
0  1
O -5.8164669413 -0.0812241738 -0.1463138116
C -4.6212711741 0.0505884527 -0.4833559836
C -3.5103920272 -1.0567110604 -0.5035085441
C -2.058231147 -0.5478368416 -0.1279561939
C -1.9729891205 0.9634295529 0.2846569643
O -1.1550874899 1.6307590202 -0.6889200998
C -0.8442281066 3.0124583649 -0.2517667989
C 0.6591978366 3.2329374939 -0.6287734947
O 1.4841243197 2.5015139193 0.3687702094
C 1.8736205242 1.2373393576 -0.1771427021
C 2.747256641 0.4642291694 0.8634562836
C 3.3038591307 -0.8987092072 0.2817669991
C 2.7864408409 -1.2639106118 -1.161074947
O 3.445775426 -1.2292195579 -2.2214818057
O -4.0630823688 1.2622276952 -1.0076906679
O 1.4681032437 -1.8352441189 -1.0485629756
O 1.6063038476 0.8642110451 -1.3432582442
C 0.9508878847 -2.1206583861 -2.4059597447
C 4.1034334911 1.244518908 1.1458354531
C 4.814943028 0.5875601617 2.3941523692
C 5.3952516098 -0.7300234135 1.7572746596
C 4.8628439242 -0.6090116217 0.2763941416
O 4.9509466097 0.8449601267 0.0007327315
H 2.1613304367 0.3155094875 1.7888066369
H 3.0475281324 -1.7359357577 0.9555309448
H 3.9882992634 2.3451016755 1.1881703126
H 5.615317903 1.2443167972 2.770008756
H 4.1071426178 0.3873886892 3.2144204724
H 6.4968496493 -0.7319086848 1.7706916345
H 5.0340324977 -1.6418533837 2.2589190368
H 5.4239318225 -1.1785830392 -0.4894587546
O -2.3995096602 1.5001571645 1.330242267
C -5.0567198869 2.3575051941 -0.9448736832
C -3.7549264846 -2.1526419247 0.6142081852
C -2.8921480565 -3.4272453739 0.2561841399
C -1.4474894931 -2.9336634819 0.6416656736
C -1.7497187876 -1.4667231932 1.1363410878
O -3.0688470284 -1.5877059725 1.7988143193
H -3.509778035 -1.5094047118 -1.5130251796
H -1.3411147629 -0.7195142505 -0.949235111
H -5.3071824471 2.6129244377 0.1051201411
H -4.8249798623 -2.3378285164 0.8325557118
H -3.2022020455 -4.2877832571 0.8700367626
H -2.9794108319 -3.7024089103 -0.8070665103
H -1.0229903718 -3.5325109209 1.4628934462
H -0.7410391705 -2.9455890179 -0.2027811141
H -1.0039660875 -1.0422443785 1.8358303832
H -5.9914029653 2.089971316 -1.4783038861
H -4.5831202747 3.22807749 -1.4346323615
H -0.013053259 -2.6449788542 -2.2707179305
H 1.6449184454 -2.7645710543 -2.9835224844
H 0.7846117167 -1.1819938839 -2.9737129677
H 0.856592674 2.837839665 -1.6473416009
H 0.9354860541 4.3048060643 -0.5580866529
H -1.0186274488 3.1163726411 0.8407929408
H -1.4932972266 3.7366525532 -0.7920486961
$end

$rem
JOBTYPE                   OPT
METHOD                    B3LYP
DFT_D                     d3_op
BASIS                     STO-3G
GEOM_OPT_MAX_CYCLES       100
GEOM_OPT_TOL_GRADIENT     300
GEOM_OPT_TOL_DISPLACEMENT 1200
GEOM_OPT_TOL_ENERGY       100
SYMMETRY                  False
THRESH                    12
SCF_CONVERGENCE           8
MAX_SUB_FILE_NUM          128
MEM_STATIC                400
MEM_TOTAL                 4000
$end
--------------------------------------------------------------

   16   -1510.2886732709      5.96E-09 Convergence criterion met
 Total energy in the final basis set = -1510.28867327
   14   -1510.2924744614      3.44E-09 Convergence criterion met
 Total energy in the final basis set = -1510.29247446
   18   -1509.3316309785      4.71E-09 Convergence criterion met
 Total energy in the final basis set = -1509.33163098
   17   -1510.2613020549      2.69E-09 Convergence criterion met
 Total energy in the final basis set = -1510.26130205
   15   -1510.2823430623      5.03E-09 Convergence criterion met
 Total energy in the final basis set = -1510.28234306
   14   -1510.2852247972      5.57E-09 Convergence criterion met
 Total energy in the final basis set = -1510.28522480
   15   -1510.2871081488      1.91E-09 Convergence criterion met
 Total energy in the final basis set = -1510.28710815
   13   -1510.2897703749      9.23E-09 Convergence criterion met
   12   -1510.2990665173      8.14E-09 Convergence criterion met
 Total energy in the final basis set = -1510.29906652
   12   -1510.2990973028      4.47E-09 Convergence criterion met
 Total energy in the final basis set = -1510.29909730
   11   -1510.2990924906      6.73E-09 Convergence criterion met
 Total energy in the final basis set = -1510.29909249
   11   -1510.2991097216      3.38E-09 Convergence criterion met
 Total energy in the final basis set = -1510.29910972
   11   -1510.2991153659      3.02E-09 Convergence criterion met
 Total energy in the final basis set = -1510.29911537
   11   -1510.2991347333      4.34E-09 Convergence criterion met
 Total energy in the final basis set = -1510.29913473

             Standard Nuclear Orientation (Angstroms)
    I     Atom           X                Y                Z
 ----------------------------------------------------------------
    1      O      -5.1189581480    -0.2026494685     0.8394831052
    2      C      -4.0828586997    -0.0363992487     0.1619434024
    3      C      -2.8975821457    -1.0496070195    -0.0266841681
    4      C      -1.4575161704    -0.4217427128     0.2030629365
    5      C      -1.4556568284     1.1239358779     0.4349258470
    6      O      -1.0681992175     1.7448520282    -0.8061572784
    7      C      -0.8893338152     3.2012063525    -0.6201456514
    8      C       0.6426564285     3.5236485590    -0.7751141592
    9      O       1.4110427463     2.6386017237     0.1342863405
   10      C       1.7253182236     1.4087343202    -0.5227369069
   11      C       2.3456422659     0.4280250495     0.5246804144
   12      C       2.6003038664    -1.0110535963    -0.0799977875
   13      C       2.1267041933    -1.1984294974    -1.5696733779
   14      O       2.8439569196    -1.2909898079    -2.5860981204
   15      O      -3.8007902947     1.1482780477    -0.5920796304
   16      O       0.7033384330    -1.4621990724    -1.5730951824
   17      O       1.5666615217     1.1844885610    -1.7450118554
   18      C       0.2240369822    -1.6251022576    -2.9634320987
   19      C       3.8279569399     0.8598473367     0.9058273735
   20      C       4.2801986021     0.0311712917     2.1726561315
   21      C       4.5586370526    -1.3791739211     1.5314458710
   22      C       4.1801539978    -1.1063482683     0.0243045614
   23      O       4.6297629947     0.2885676089    -0.1984489211
   24      H       1.6918566121     0.3990088849     1.4143865173
   25      H       2.1050029169    -1.7807879477     0.5370109524
   26      H       3.9763727599     1.9548777482     0.9774604799
   27      H       5.1929480332     0.4651277824     2.6109986305
   28      H       3.4971096344    -0.0001804295     2.9473401383
   29      H       5.6205289699    -1.6589843925     1.6181558132
   30      H       3.9442190974    -2.1781831389     1.9760857664
   31      H       4.6412975854    -1.7818099499    -0.7218801523
   32      O      -1.6825071940     1.7548498820     1.4904152572
   33      C      -4.8566842791     2.1615237762    -0.3681756650
   34      C      -2.9467448454    -2.1406664163     1.1211886287
   35      C      -1.9868312048    -3.3320402921     0.7342140718
   36      C      -0.5769155461    -2.6775516661     0.9786037524
   37      C      -0.9949831301    -1.2387346844     1.4842117944
   38      O      -2.2441456787    -1.4731249587     2.2409773226
   39      H      -2.9753901284    -1.4995544501    -1.0339006516
   40      H      -0.7706026623    -0.6399400590    -0.6405840813
   41      H      -4.8746087166     2.4967510008     0.6891639863
   42      H      -3.9751703356    -2.4216819699     1.4214687562
   43      H      -2.1567436199    -4.1939923194     1.3988794337
   44      H      -2.1293702451    -3.6572188135    -0.3089503456
   45      H      -0.0061534758    -3.2170547292     1.7507417509
   46      H       0.0194366377    -2.6089633824     0.0518727374
   47      H      -0.2515789829    -0.7207832767     2.1201802808
   48      H      -5.8604270314     1.7716701907    -0.6332693653
   49      H      -4.6034492432     3.0154485866    -1.0228683169
   50      H      -0.8355020069    -1.9320427407    -2.8903814713
   51      H       0.8035206940    -2.3994215497    -3.5053563819
   52      H       0.2963273088    -0.6691227689    -3.5212652064
   53      H       0.9640912557     3.3586693911    -1.8252631086
   54      H       0.8563105207     4.5669343414    -0.4671621330
   55      H      -1.2473978014     3.4725809879     0.3972559102
   56      H      -1.4768722223     3.7372265766    -1.3941280658
 ----------------------------------------------------------------

    9   -1510.2991338107      7.69E-09 Convergence criterion met
 Total energy in the final basis set = -1510.29913381
 Final energy is   -1510.29913381066
 **  OPTIMIZATION CONVERGED  **

                    Orbital Energies (a.u.)
 --------------------------------------------------------------

 Alpha MOs
 -- Occupied --
-18.943 -18.937 -18.935 -18.926 -18.890 -18.889 -18.881 -18.877
-18.874 -18.870 -10.110 -10.102 -10.099 -10.095 -10.077 -10.068
-10.066 -10.064 -10.064 -10.060 -10.053 -10.052 -10.044 -10.039
-10.035 -10.023 -10.022 -10.022 -10.015 -10.008  -1.025  -1.014
 -1.008  -1.003  -0.973  -0.965  -0.948  -0.937  -0.936  -0.932
 -0.768  -0.758  -0.729  -0.721  -0.714  -0.704  -0.695  -0.663
 -0.662  -0.620  -0.600  -0.577  -0.549  -0.542  -0.540  -0.533
 -0.515  -0.506  -0.490  -0.475  -0.469  -0.461  -0.453  -0.446
 -0.435  -0.427  -0.425  -0.419  -0.415  -0.413  -0.411  -0.405
 -0.399  -0.381  -0.375  -0.369  -0.363  -0.359  -0.350  -0.349
 -0.345  -0.341  -0.340  -0.336  -0.329  -0.327  -0.324  -0.315
 -0.309  -0.306  -0.303  -0.301  -0.295  -0.285  -0.283  -0.277
 -0.269  -0.257  -0.253  -0.248  -0.243  -0.237  -0.227  -0.193
 -0.179  -0.178  -0.167  -0.161  -0.158  -0.153  -0.148  -0.147
 -0.139

          Ground-State Mulliken Net Atomic Charges

     Atom                 Charge (a.u.)
  ----------------------------------------
      1 O                    -0.209106
      2 C                     0.211635
      3 C                    -0.077963
      4 C                    -0.093340
      5 C                     0.210622
      6 O                    -0.172992
      7 C                    -0.056819
      8 C                    -0.051478
      9 O                    -0.171515
     10 C                     0.216837
     11 C                    -0.078678
     12 C                    -0.082727
     13 C                     0.220822
     14 O                    -0.209140
     15 O                    -0.169840
     16 O                    -0.178145
     17 O                    -0.203343
     18 C                    -0.127761
     19 C                     0.025594
     20 C                    -0.143695
     21 C                    -0.143999
     22 C                     0.025195
     23 O                    -0.188160
     24 H                     0.086999
     25 H                     0.085550
     26 H                     0.086563
     27 H                     0.079244
     28 H                     0.074824
     29 H                     0.078999
     30 H                     0.073624
     31 H                     0.089725
     32 O                    -0.218606
     33 C                    -0.128264
     34 C                     0.024022
     35 C                    -0.144251
     36 C                    -0.152764
     37 C                     0.024129
     38 O                    -0.190162
     39 H                     0.082411
     40 H                     0.106585
     41 H                     0.092272
     42 H                     0.088957
     43 H                     0.076215
     44 H                     0.070692
     45 H                     0.069912
     46 H                     0.085512
     47 H                     0.075892
     48 H                     0.090777
     49 H                     0.089312
     50 H                     0.086097
     51 H                     0.091033
     52 H                     0.096564
     53 H                     0.098839
     54 H                     0.090850
     55 H                     0.101213
     56 H                     0.085227
  ----------------------------------------
  Sum of atomic charges =    -0.000000

                    Cartesian Multipole Moments
 -----------------------------------------------------------------
    Charge (ESU x 10^10)
                -0.0000
    Dipole Moment (Debye)
         X      -0.0052      Y       0.2780      Z      -0.6885
       Tot       0.7425
    Quadrupole Moments (Debye-Ang)
        XX    -168.8047     XY      -4.9269     YY    -144.5812
        XZ      20.1061     YZ      -1.7085     ZZ    -167.7949

 Total job time:  137.90s(wall), 6572.99s(cpu)
        *  Thank you very much for using Q-Chem.  Have a nice day.  *
