 Q-Chem 5.0, Q-Chem, Inc., Pleasanton, CA (2017)
 Q-Chem 5.0.1 for Intel X86 EM64T Linux

User input:
--------------------------------------------------------------
$molecule
0  1
O -3.94934 -3.66094 2.70899
C -3.26408 -4.56952 2.26188
C -3.36658 -6.02376 2.66595
C -2.07365 -6.85507 2.63264
C -0.7911 -6.09714 2.37055
O -0.29288 -6.43784 1.14535
C 0.95403 -5.80086 0.84752
C 1.88226 -6.77338 0.12729
O 2.40491 -7.73263 1.05978
C 1.70189 -8.88765 1.16379
C 2.30095 -9.85356 2.15818
C 1.62596 -11.232 2.20895
C 0.7143 -11.56461 1.04493
O 0.97798 -12.33976 0.13709
O -2.54886 -4.3223 1.13181
O -0.56667 -11.11494 1.15448
O 0.67519 -9.05975 0.52493
C -1.57003 -11.385 0.24737
C 3.7532 -10.25484 1.82272
C 4.46192 -10.70674 3.09774
C 3.75637 -12.02079 3.35903
C 2.88735 -12.11808 2.09857
O 3.63693 -11.45824 1.10909
H 2.28957 -9.33835 3.14532
H 1.07179 -11.43682 3.15139
H 4.33756 -9.44947 1.327
H 5.51929 -10.91959 2.81951
H 4.4458 -9.98395 3.94166
H 4.52016 -12.82952 3.38225
H 3.13571 -12.05289 4.28063
H 2.63777 -13.18228 1.89078
O -0.37385 -5.19068 3.08372
C -2.39945 -3.07821 0.5558
C -3.74825 -6.19631 4.1525
C -4.36472 -7.57761 4.37828
C -3.13758 -8.45816 4.26588
C -2.05129 -7.39698 4.06967
O -2.51387 -6.30033 4.82033
H -4.16247 -6.46419 2.02456
H -2.1557 -7.67828 1.88514
H -1.90701 -2.38448 1.27037
H -4.44101 -5.41088 4.52537
H -4.7288 -7.61468 5.43005
H -5.1996 -7.83353 3.69101
H -2.98735 -8.97843 5.2381
H -3.15767 -9.20071 3.43881
H -1.05471 -7.80258 4.35354
H -3.38904 -2.67153 0.25686
H -1.76263 -3.17088 -0.34776
H -2.50493 -10.89071 0.58262
H -1.74592 -12.4801 0.18492
H -1.29579 -10.99015 -0.75423
H 1.41599 -7.22139 -0.77962
H 2.75008 -6.1852 -0.24018
H 1.49709 -5.36582 1.71778
H 0.73554 -4.97747 0.13361
$end

$opt
CONSTRAINT
tors           1           2           3           4    -148.205
tors           3           4           5           6    -111.577
tors           4           5           6           7    -177.560
tors           5           6           7           8    +140.831
tors           6           7           8           9     -74.711
tors           7           8           9          10     +93.029
tors           8           9          10          11    +179.993
tors           9          10          11          12    -174.046
tors          11          12          13          14    +105.584
ENDCONSTRAINT
$end

$rem
JOBTYPE                   OPT
METHOD                    B3LYP
DFT_D                     d3_op
BASIS                     STO-3G
GEOM_OPT_MAX_CYCLES       100
GEOM_OPT_TOL_GRADIENT     300
GEOM_OPT_TOL_DISPLACEMENT 1200
GEOM_OPT_TOL_ENERGY       100
SYMMETRY                  False
THRESH                    12
SCF_CONVERGENCE           8
MAX_SUB_FILE_NUM          128
MEM_STATIC                400
MEM_TOTAL                 4000
$end
--------------------------------------------------------------

   15   -1510.1541541190      5.88E-09 Convergence criterion met
 Total energy in the final basis set = -1510.15415412
   14   -1510.2236797725      6.46E-09 Convergence criterion met
 Total energy in the final basis set = -1510.22367977
   14   -1510.2603893857      6.65E-09 Convergence criterion met
 Total energy in the final basis set = -1510.26038939
   14   -1510.2760988338      6.69E-09 Convergence criterion met
 Total energy in the final basis set = -1510.27609883
   14   -1510.2823864491      4.24E-09 Convergence criterion met
 Total energy in the final basis set = -1510.28238645
   13   -1510.2851403028      4.08E-09 Convergence criterion met
 Total energy in the final basis set = -1510.28514030
   13   -1510.2865476250      4.28E-09 Convergence criterion met
 Total energy in the final basis set = -1510.28654763
   13   -1510.2874426883      5.68E-09 Convergence criterion met
   12   -1510.2885508611      2.81E-09 Convergence criterion met
 Total energy in the final basis set = -1510.28855086
   11   -1510.2886271666      9.00E-09 Convergence criterion met
 Total energy in the final basis set = -1510.28862717
   11   -1510.2886668165      4.32E-09 Convergence criterion met
 Total energy in the final basis set = -1510.28866682
   11   -1510.2886957698      5.60E-09 Convergence criterion met
 Total energy in the final basis set = -1510.28869577
   11   -1510.2887060835      2.19E-09 Convergence criterion met
 Total energy in the final basis set = -1510.28870608
   10   -1510.2887129497      9.73E-09 Convergence criterion met
 Total energy in the final basis set = -1510.28871295

             Standard Nuclear Orientation (Angstroms)
    I     Atom           X                Y                Z
 ----------------------------------------------------------------
    1      O      -5.8704360307     0.2113501055    -0.2643942629
    2      C      -4.6469100448     0.2490781142    -0.5127605682
    3      C      -3.6470587551    -0.9605780159    -0.5191181083
    4      C      -2.1583050838    -0.6185847607    -0.0897799822
    5      C      -1.9276547679     0.8682916565     0.3527407365
    6      O      -1.1030783832     1.4959464662    -0.6426264501
    7      C      -0.7982238281     2.8917669697    -0.2533986637
    8      C       0.6924092183     3.1645055661    -0.6482390513
    9      O       1.5923983811     2.4797476353     0.3136349337
   10      C       1.9385240345     1.1836435570    -0.1830878398
   11      C       2.8862462475     0.4799005332     0.8439567693
   12      C       3.4417203434    -0.9016968789     0.3067859810
   13      C       2.8657674960    -1.3435023118    -1.0907855490
   14      O       3.4588815750    -1.3162260191    -2.1898003943
   15      O      -3.9507478603     1.4300578734    -0.9284769544
   16      O       1.5848274657    -1.9642488338    -0.8769656319
   17      O       1.5874660310     0.7409960414    -1.3008185537
   18      C       0.9956499569    -2.3225322381    -2.1858038937
   19      C       4.2366285687     1.3031127979     1.0069286788
   20      C       5.0256432954     0.7409617244     2.2546471492
   21      C       5.5923564887    -0.6081995914     1.6740794565
   22      C       4.9930747194    -0.5848333089     0.2141076916
   23      O       5.0359219038     0.8506149410    -0.1528697382
   24      H       2.3571761971     0.3708369184     1.8081112387
   25      H       3.2322207985    -1.7081454311     1.0321641902
   26      H       4.0970997992     2.4013891744     0.9867668795
   27      H       5.8349861429     1.4310694157     2.5414399038
   28      H       4.3679503828     0.5865713084     3.1249864784
   29      H       6.6934338209    -0.6013469276     1.6392531821
   30      H       5.2615747782    -1.4899314013     2.2455218211
   31      H       5.5327711623    -1.1888221126    -0.5406547932
   32      O      -2.2764245818     1.4131578874     1.4227847122
   33      C      -4.8485507715     2.6055532543    -0.8748495945
   34      C      -4.0462497634    -2.0433847311     0.5675611825
   35      C      -3.3257712529    -3.4009104070     0.2075976388
   36      C      -1.8434234744    -3.0750957269     0.6253972186
   37      C      -1.9921593510    -1.5954791731     1.1553193537
   38      O      -3.3341774105    -1.5823516154     1.7815290874
   39      H      -3.6605485860    -1.3950878518    -1.5366399080
   40      H      -1.4432041852    -0.8491711367    -0.8984783663
   41      H      -5.1705644111     2.8195284493     0.1647758342
   42      H      -5.1364373671    -2.1076284065     0.7527587718
   43      H      -3.7417794089    -4.2274687321     0.8051390796
   44      H      -3.4230116673    -3.6529167728    -0.8605711369
   45      H      -1.4957802423    -3.7384638410     1.4331114080
   46      H      -1.1356183440    -3.1438617682    -0.2148555379
   47      H      -1.2231456039    -1.2774071673     1.8855460567
   48      H      -5.7504701707     2.4581997521    -1.5031578620
   49      H      -4.2591581748     3.4567361252    -1.2621372804
   50      H       0.0761076476    -2.8966649822    -1.9689829038
   51      H       1.6862289207    -2.9437763653    -2.7917974290
   52      H       0.7361166266    -1.4135484967    -2.7671060107
   53      H       0.8806980491     2.7971062356    -1.6791452055
   54      H       0.9172155492     4.2481438204    -0.5750996259
   55      H      -0.9659337062     3.0210991996     0.8380111411
   56      H      -1.4685509707     3.5875656282    -0.8050594200
 ----------------------------------------------------------------

    9   -1510.2887132168      9.65E-09 Convergence criterion met
 Total energy in the final basis set = -1510.28871322
 Final energy is   -1510.28871321679
 **  OPTIMIZATION CONVERGED  **

                    Orbital Energies (a.u.)
 --------------------------------------------------------------

 Alpha MOs
 -- Occupied --
-18.943 -18.942 -18.927 -18.918 -18.888 -18.887 -18.886 -18.881
-18.866 -18.859 -10.107 -10.104 -10.096 -10.090 -10.077 -10.070
-10.069 -10.061 -10.058 -10.058 -10.056 -10.055 -10.041 -10.039
-10.034 -10.033 -10.021 -10.019 -10.019 -10.018  -1.022  -1.018
 -1.004  -0.997  -0.970  -0.969  -0.945  -0.942  -0.930  -0.923
 -0.763  -0.762  -0.728  -0.722  -0.715  -0.704  -0.697  -0.666
 -0.656  -0.619  -0.598  -0.578  -0.546  -0.544  -0.537  -0.536
 -0.511  -0.511  -0.489  -0.476  -0.462  -0.456  -0.452  -0.449
 -0.433  -0.429  -0.426  -0.416  -0.415  -0.414  -0.404  -0.404
 -0.400  -0.383  -0.374  -0.365  -0.363  -0.354  -0.353  -0.349
 -0.344  -0.339  -0.334  -0.332  -0.329  -0.326  -0.324  -0.313
 -0.310  -0.305  -0.305  -0.300  -0.297  -0.289  -0.276  -0.274
 -0.272  -0.257  -0.252  -0.246  -0.245  -0.234  -0.233  -0.190
 -0.181  -0.167  -0.163  -0.161  -0.159  -0.148  -0.144  -0.142
 -0.141

          Ground-State Mulliken Net Atomic Charges

     Atom                 Charge (a.u.)
  ----------------------------------------
      1 O                    -0.209327
      2 C                     0.213853
      3 C                    -0.078416
      4 C                    -0.079917
      5 C                     0.215591
      6 O                    -0.172596
      7 C                    -0.053876
      8 C                    -0.051294
      9 O                    -0.171825
     10 C                     0.216063
     11 C                    -0.077957
     12 C                    -0.081887
     13 C                     0.216139
     14 O                    -0.218172
     15 O                    -0.168148
     16 O                    -0.177978
     17 O                    -0.202334
     18 C                    -0.129152
     19 C                     0.024756
     20 C                    -0.143969
     21 C                    -0.143969
     22 C                     0.024882
     23 O                    -0.189675
     24 H                     0.086747
     25 H                     0.083058
     26 H                     0.086687
     27 H                     0.078340
     28 H                     0.073694
     29 H                     0.078066
     30 H                     0.073233
     31 H                     0.089172
     32 O                    -0.221875
     33 C                    -0.127136
     34 C                     0.024030
     35 C                    -0.144041
     36 C                    -0.143913
     37 C                     0.027054
     38 O                    -0.187925
     39 H                     0.085268
     40 H                     0.090052
     41 H                     0.093464
     42 H                     0.089910
     43 H                     0.078252
     44 H                     0.072296
     45 H                     0.078012
     46 H                     0.074564
     47 H                     0.083413
     48 H                     0.092093
     49 H                     0.089825
     50 H                     0.079454
     51 H                     0.088852
     52 H                     0.092066
     53 H                     0.104304
     54 H                     0.089813
     55 H                     0.101011
     56 H                     0.081366
  ----------------------------------------
  Sum of atomic charges =    -0.000000

                    Cartesian Multipole Moments
 -----------------------------------------------------------------
    Charge (ESU x 10^10)
                -0.0000
    Dipole Moment (Debye)
         X       0.0958      Y       0.2933      Z       0.0863
       Tot       0.3204
    Quadrupole Moments (Debye-Ang)
        XX    -171.9006     XY      -3.5182     YY    -144.0376
        XZ      20.7038     YZ      -1.5629     ZZ    -164.7507

 Total job time:  53.29s(wall), 2535.46s(cpu)
        *  Thank you very much for using Q-Chem.  Have a nice day.  *
