 Q-Chem 5.0, Q-Chem, Inc., Pleasanton, CA (2017)
 Q-Chem 5.0.1 for Intel X86 EM64T Linux

User input:
--------------------------------------------------------------
$molecule
0  1
O -5.8704360307 0.2113501055 -0.2643942629
C -4.6469100448 0.2490781142 -0.5127605682
C -3.6470587551 -0.9605780159 -0.5191181083
C -2.1583050838 -0.6185847607 -0.0897799822
C -1.9276547679 0.8682916565 0.3527407365
O -1.1030783832 1.4959464662 -0.6426264501
C -0.7982238281 2.8917669697 -0.2533986637
C 0.6924092183 3.1645055661 -0.6482390513
O 1.5923983811 2.4797476353 0.3136349337
C 1.9385240345 1.183643557 -0.1830878398
C 2.8862462475 0.4799005332 0.8439567693
C 3.4417203434 -0.9016968789 0.306785981
C 2.865767496 -1.3435023118 -1.090785549
O 3.458881575 -1.3162260191 -2.1898003943
O -3.9507478603 1.4300578734 -0.9284769544
O 1.5848274657 -1.9642488338 -0.8769656319
O 1.587466031 0.7409960414 -1.3008185537
C 0.9956499569 -2.3225322381 -2.1858038937
C 4.2366285687 1.3031127979 1.0069286788
C 5.0256432954 0.7409617244 2.2546471492
C 5.5923564887 -0.6081995914 1.6740794565
C 4.9930747194 -0.5848333089 0.2141076916
O 5.0359219038 0.850614941 -0.1528697382
H 2.3571761971 0.3708369184 1.8081112387
H 3.2322207985 -1.7081454311 1.0321641902
H 4.0970997992 2.4013891744 0.9867668795
H 5.8349861429 1.4310694157 2.5414399038
H 4.3679503828 0.5865713084 3.1249864784
H 6.6934338209 -0.6013469276 1.6392531821
H 5.2615747782 -1.4899314013 2.2455218211
H 5.5327711623 -1.1888221126 -0.5406547932
O -2.2764245818 1.4131578874 1.4227847122
C -4.8485507715 2.6055532543 -0.8748495945
C -4.0462497634 -2.0433847311 0.5675611825
C -3.3257712529 -3.400910407 0.2075976388
C -1.8434234744 -3.0750957269 0.6253972186
C -1.992159351 -1.5954791731 1.1553193537
O -3.3341774105 -1.5823516154 1.7815290874
H -3.660548586 -1.3950878518 -1.536639908
H -1.4432041852 -0.8491711367 -0.8984783663
H -5.1705644111 2.8195284493 0.1647758342
H -5.1364373671 -2.1076284065 0.7527587718
H -3.7417794089 -4.2274687321 0.8051390796
H -3.4230116673 -3.6529167728 -0.8605711369
H -1.4957802423 -3.738463841 1.433111408
H -1.135618344 -3.1438617682 -0.2148555379
H -1.2231456039 -1.2774071673 1.8855460567
H -5.7504701707 2.4581997521 -1.503157862
H -4.2591581748 3.4567361252 -1.2621372804
H 0.0761076476 -2.8966649822 -1.9689829038
H 1.6862289207 -2.9437763653 -2.791797429
H 0.7361166266 -1.4135484967 -2.7671060107
H 0.8806980491 2.7971062356 -1.6791452055
H 0.9172155492 4.2481438204 -0.5750996259
H -0.9659337062 3.0210991996 0.8380111411
H -1.4685509707 3.5875656282 -0.80505942
$end

$rem
JOBTYPE                   OPT
METHOD                    B3LYP
DFT_D                     d3_op
BASIS                     STO-3G
GEOM_OPT_MAX_CYCLES       100
GEOM_OPT_TOL_GRADIENT     300
GEOM_OPT_TOL_DISPLACEMENT 1200
GEOM_OPT_TOL_ENERGY       100
SYMMETRY                  False
THRESH                    12
SCF_CONVERGENCE           8
MAX_SUB_FILE_NUM          128
MEM_STATIC                400
MEM_TOTAL                 4000
$end
--------------------------------------------------------------

   16   -1510.2886501857      5.29E-09 Convergence criterion met
 Total energy in the final basis set = -1510.28865019
   14   -1510.2904590933      8.35E-09 Convergence criterion met
 Total energy in the final basis set = -1510.29045909
   14   -1510.2925733207      8.54E-09 Convergence criterion met
 Total energy in the final basis set = -1510.29257332
   15   -1510.2910167992      3.11E-09 Convergence criterion met
 Total energy in the final basis set = -1510.29101680
   14   -1510.2934473209      5.95E-09 Convergence criterion met
 Total energy in the final basis set = -1510.29344732
   15   -1510.2898338780      1.87E-09 Convergence criterion met
 Total energy in the final basis set = -1510.28983388
   14   -1510.2926941786      8.77E-09 Convergence criterion met
 Total energy in the final basis set = -1510.29269418
   14   -1510.2944440992      4.10E-09 Convergence criterion met
   13   -1510.2988002168      5.52E-09 Convergence criterion met
 Total energy in the final basis set = -1510.29880022
   13   -1510.2982321422      5.90E-09 Convergence criterion met
 Total energy in the final basis set = -1510.29823214
   13   -1510.2989954052      6.16E-09 Convergence criterion met
 Total energy in the final basis set = -1510.29899541
   13   -1510.2986105094      6.60E-09 Convergence criterion met
 Total energy in the final basis set = -1510.29861051
   13   -1510.2990821585      6.07E-09 Convergence criterion met
 Total energy in the final basis set = -1510.29908216
   11   -1510.2990771884      5.00E-09 Convergence criterion met
 Total energy in the final basis set = -1510.29907719

             Standard Nuclear Orientation (Angstroms)
    I     Atom           X                Y                Z
 ----------------------------------------------------------------
    1      O      -5.1348763091     0.0050395170     0.6993613468
    2      C      -4.0876892523     0.1251321985     0.0292002926
    3      C      -2.9455749144    -0.9390540992    -0.1456876379
    4      C      -1.4825559001    -0.3741057500     0.1002312107
    5      C      -1.4148038303     1.1738304263     0.3086123883
    6      O      -0.9895369714     1.7573356665    -0.9382805331
    7      C      -0.7642613056     3.2104301694    -0.7774462246
    8      C       0.7820361047     3.4770880694    -0.8867542209
    9      O       1.4831258340     2.6068579850     0.0885341781
   10      C       1.7878592698     1.3431032820    -0.5057976312
   11      C       2.3159333039     0.3854402152     0.6109088322
   12      C       2.5503487636    -1.0869675278     0.0832181806
   13      C       2.1846049111    -1.3135114083    -1.4310930809
   14      O       2.9737282736    -1.4474483475    -2.3879089555
   15      O      -3.7497198601     1.2944340935    -0.7259939346
   16      O       0.7593541295    -1.5439719506    -1.5366141134
   17      O       1.6826762167     1.0770890693    -1.7253826842
   18      C       0.3857144392    -1.7402088094    -2.9546724672
   19      C       3.7880402935     0.7812005481     1.0659308593
   20      C       4.1222599599     0.0065227462     2.4014705223
   21      C       4.3670841125    -1.4493234449     1.8552185528
   22      C       4.1120502209    -1.2419595568     0.3119621167
   23      O       4.6377043634     0.1194850906     0.0518312806
   24      H       1.6127809836     0.4159016012     1.4622480592
   25      H       1.9773428568    -1.8099886931     0.6888296844
   26      H       3.9770508733     1.8719901619     1.0899925985
   27      H       5.0292133029     0.4219444189     2.8687896751
   28      H       3.2955176641     0.0569349356     3.1281557549
   29      H       5.4031109776    -1.7781313391     2.0339570171
   30      H       3.6803232084    -2.1906870518     2.2940809165
   31      H       4.5967525616    -1.9749219605    -0.3614400668
   32      O      -1.6248833215     1.8298907335     1.3521321445
   33      C      -4.7619644154     2.3531512621    -0.5110017867
   34      C      -3.0560254626    -2.0213924182     1.0061573492
   35      C      -2.1369242755    -3.2515560572     0.6430240252
   36      C      -0.7069757375    -2.6544343001     0.9162866885
   37      C      -1.0769670785    -1.1950029055     1.3990979043
   38      O      -2.3482812355    -1.3729299185     2.1340637696
   39      H      -3.0315489217    -1.3881255072    -1.1525340736
   40      H      -0.7935812133    -0.6342906194    -0.7286755762
   41      H      -4.7744986603     2.6891205959     0.5461824255
   42      H      -4.0995058173    -2.2605430206     1.2901918154
   43      H      -2.3560910867    -4.1036341316     1.3060458971
   44      H      -2.2707025319    -3.5747914903    -0.4019186960
   45      H      -0.1799937789    -3.2095363728     1.7082735556
   46      H      -0.0830870605    -2.6169169113     0.0054736889
   47      H      -0.3262979762    -0.6988847417     2.0436700513
   48      H      -5.7794510441     2.0077321664    -0.7852142898
   49      H      -4.4655862543     3.1949218002    -1.1633269506
   50      H      -0.6855008900    -2.0136101946    -2.9563425961
   51      H       0.9806939535    -2.5492785143    -3.4242918472
   52      H       0.5316750613    -0.8063220324    -3.5351360013
   53      H       1.1370862949     3.2562008795    -1.9156457534
   54      H       1.0192355615     4.5252875628    -0.6145991250
   55      H      -1.1435639766     3.5183483957     0.2215637379
   56      H      -1.3070375337     3.7474198332    -1.5827580664
 ----------------------------------------------------------------

    9   -1510.2990769650      7.42E-09 Convergence criterion met
 Total energy in the final basis set = -1510.29907696
 Final energy is   -1510.29907696496
 **  OPTIMIZATION CONVERGED  **

                    Orbital Energies (a.u.)
 --------------------------------------------------------------

 Alpha MOs
 -- Occupied --
-18.943 -18.937 -18.935 -18.927 -18.890 -18.889 -18.881 -18.878
-18.874 -18.871 -10.110 -10.101 -10.099 -10.096 -10.077 -10.068
-10.066 -10.064 -10.064 -10.060 -10.053 -10.053 -10.044 -10.039
-10.035 -10.023 -10.023 -10.022 -10.015 -10.007  -1.025  -1.014
 -1.008  -1.003  -0.973  -0.965  -0.948  -0.938  -0.935  -0.932
 -0.767  -0.758  -0.729  -0.721  -0.713  -0.704  -0.695  -0.663
 -0.662  -0.620  -0.599  -0.577  -0.549  -0.542  -0.540  -0.533
 -0.515  -0.506  -0.490  -0.475  -0.469  -0.461  -0.452  -0.446
 -0.435  -0.427  -0.425  -0.419  -0.415  -0.413  -0.410  -0.405
 -0.399  -0.381  -0.375  -0.369  -0.363  -0.359  -0.350  -0.349
 -0.345  -0.341  -0.340  -0.336  -0.329  -0.327  -0.324  -0.315
 -0.309  -0.307  -0.302  -0.301  -0.295  -0.285  -0.283  -0.277
 -0.269  -0.256  -0.253  -0.248  -0.243  -0.237  -0.227  -0.193
 -0.179  -0.178  -0.167  -0.161  -0.158  -0.153  -0.148  -0.147
 -0.139

          Ground-State Mulliken Net Atomic Charges

     Atom                 Charge (a.u.)
  ----------------------------------------
      1 O                    -0.208915
      2 C                     0.211767
      3 C                    -0.077958
      4 C                    -0.091699
      5 C                     0.210670
      6 O                    -0.172797
      7 C                    -0.056605
      8 C                    -0.051558
      9 O                    -0.171668
     10 C                     0.216279
     11 C                    -0.078866
     12 C                    -0.082806
     13 C                     0.220488
     14 O                    -0.209042
     15 O                    -0.169902
     16 O                    -0.177955
     17 O                    -0.203630
     18 C                    -0.127855
     19 C                     0.025695
     20 C                    -0.143602
     21 C                    -0.144150
     22 C                     0.025332
     23 O                    -0.187964
     24 H                     0.087140
     25 H                     0.085824
     26 H                     0.086574
     27 H                     0.079254
     28 H                     0.075002
     29 H                     0.078916
     30 H                     0.073635
     31 H                     0.089350
     32 O                    -0.218665
     33 C                    -0.128231
     34 C                     0.024044
     35 C                    -0.144450
     36 C                    -0.153875
     37 C                     0.024145
     38 O                    -0.190285
     39 H                     0.082998
     40 H                     0.104982
     41 H                     0.092404
     42 H                     0.088935
     43 H                     0.076129
     44 H                     0.070596
     45 H                     0.069456
     46 H                     0.087226
     47 H                     0.075691
     48 H                     0.090808
     49 H                     0.089305
     50 H                     0.086084
     51 H                     0.090789
     52 H                     0.096490
     53 H                     0.099008
     54 H                     0.090805
     55 H                     0.101189
     56 H                     0.085469
  ----------------------------------------
  Sum of atomic charges =    -0.000000

                    Cartesian Multipole Moments
 -----------------------------------------------------------------
    Charge (ESU x 10^10)
                -0.0000
    Dipole Moment (Debye)
         X      -0.1210      Y       0.3362      Z      -0.7499
       Tot       0.8307
    Quadrupole Moments (Debye-Ang)
        XX    -170.8563     XY      -3.5455     YY    -144.3390
        XZ      19.6531     YZ      -2.8601     ZZ    -165.6699

 Total job time:  92.91s(wall), 4425.46s(cpu)
        *  Thank you very much for using Q-Chem.  Have a nice day.  *
