 Q-Chem 5.0, Q-Chem, Inc., Pleasanton, CA (2017)
 Q-Chem 5.0.1 for Intel X86 EM64T Linux

User input:
--------------------------------------------------------------
$molecule
0  1
O -4.7782834069 0.9297524264 -1.4235247844
C -3.6714485348 0.3815280699 -1.2172456125
C -3.3995385196 -0.7996262862 -0.2199165895
C -1.9173461867 -1.0687224767 0.2529439945
C -1.0982648252 0.2789153446 0.4787595228
O -0.2394672474 0.1175761038 1.6372871121
C -0.128272072 1.3330841254 2.4733691788
C 0.154423486 2.7421843291 1.8010382711
O 1.2265963219 2.8848805397 0.7921527544
C 1.5252973938 1.6914565902 0.0164951461
C 2.5551815717 0.7361134132 0.7528620134
C 2.9315457 -0.5824518344 -0.0245872395
C 1.8486925361 -1.1663401741 -0.9950442491
O 0.6514294741 -0.839136403 -1.143439869
O -2.5495738974 0.4865143746 -2.0990312595
O 2.4676044227 -2.226822675 -1.7356587731
O 1.2994478866 1.6757710871 -1.2099716406
C 1.4895369941 -2.8244415042 -2.6729961596
C 3.9460852887 1.5117930967 0.6318094722
C 5.0793757549 0.7393284343 1.4202552855
C 5.4342617303 -0.413546663 0.4073235664
C 4.3244162981 -0.1845679556 -0.6889589847
O 4.2801202691 1.2911697327 -0.7960720131
H 2.263000184 0.5439635072 1.7962965597
H 3.1156769412 -1.3843502838 0.7154066237
H 3.8713629951 2.5945380707 0.8524224751
H 5.9412901298 1.3996000526 1.6056079722
H 4.715406359 0.3555988241 2.387074141
H 6.4362235719 -0.2699975401 -0.0282037579
H 5.3840468121 -1.4163764617 0.8607031643
H 4.5140166227 -0.6499689226 -1.6754479751
O -1.2762561375 1.3719092144 -0.0924642484
C -2.7786493405 1.5351977766 -3.1179822337
C -4.1878158374 -0.8106770142 1.1612979213
C -4.5676520844 -2.3151353931 1.4369972811
C -3.1315580608 -2.9281341009 1.6468622318
C -2.2327055612 -1.6285262936 1.7035712224
O -3.1505827473 -0.5616086079 2.1922982601
H -3.7201307404 -1.690868116 -0.7948319189
H -1.3641203331 -1.7521249617 -0.4157549934
H -3.8387461562 1.8592723991 -3.0913360474
H -5.012371778 -0.0751145977 1.2349311328
H -5.1741036961 -2.3956282432 2.3536917557
H -5.1179255195 -2.7787750177 0.6025283821
H -3.0604325133 -3.4927786788 2.5896384688
H -2.8337273279 -3.5914893939 0.8185452675
H -1.3403027499 -1.6912088091 2.3532286684
H -2.5302568166 1.1122439105 -4.1104131
H -2.1128697345 2.3962476373 -2.9088033498
H 2.0371842621 -3.6101890346 -3.225164086
H 1.0957602157 -2.072187001 -3.3866657355
H 0.6325258138 -3.2795892628 -2.1352627246
H -0.7987343185 3.0909278259 1.3451904318
H 0.4177453113 3.439655046 2.6268764925
H 0.6791619795 1.0928458367 3.1949135323
H -1.0730025125 1.4585494734 3.0513035532
$end

$rem
JOBTYPE                   OPT
METHOD                    B3LYP
DFT_D                     d3_op
BASIS                     STO-3G
GEOM_OPT_MAX_CYCLES       100
GEOM_OPT_TOL_GRADIENT     300
GEOM_OPT_TOL_DISPLACEMENT 1200
GEOM_OPT_TOL_ENERGY       100
SYMMETRY                  False
THRESH                    12
SCF_CONVERGENCE           8
MAX_SUB_FILE_NUM          128
MEM_STATIC                400
MEM_TOTAL                 4000
$end
--------------------------------------------------------------

   16   -1510.2333595090      4.76E-09 Convergence criterion met
 Total energy in the final basis set = -1510.23335951
   14   -1510.2389255665      6.51E-09 Convergence criterion met
 Total energy in the final basis set = -1510.23892557
   14   -1510.2412240263      5.36E-09 Convergence criterion met
 Total energy in the final basis set = -1510.24122403
   14   -1510.2461839571      2.75E-09 Convergence criterion met
 Total energy in the final basis set = -1510.24618396
   14   -1510.2506067339      7.00E-09 Convergence criterion met
 Total energy in the final basis set = -1510.25060673
   14   -1510.2544931595      6.20E-09 Convergence criterion met
 Total energy in the final basis set = -1510.25449316
   13   -1510.2577414704      6.16E-09 Convergence criterion met
 Total energy in the final basis set = -1510.25774147
   13   -1510.2603113615      7.69E-09 Convergence criterion met
   12   -1510.3051964724      5.25E-09 Convergence criterion met
 Total energy in the final basis set = -1510.30519647
   12   -1510.3052641895      5.12E-09 Convergence criterion met
 Total energy in the final basis set = -1510.30526419
   12   -1510.3052394780      3.88E-09 Convergence criterion met
 Total energy in the final basis set = -1510.30523948
   11   -1510.3052832949      9.82E-09 Convergence criterion met
 Total energy in the final basis set = -1510.30528329
   10   -1510.3052923963      5.46E-09 Convergence criterion met
 Total energy in the final basis set = -1510.30529240
   11   -1510.3053100055      8.13E-09 Convergence criterion met
 Total energy in the final basis set = -1510.30531001

             Standard Nuclear Orientation (Angstroms)
    I     Atom           X                Y                Z
 ----------------------------------------------------------------
    1      O       4.0461754896     0.2567877724    -2.0881464645
    2      C       3.0622418023     0.5891052356    -1.3954653245
    3      C       2.9939317029     0.8088165826     0.1558668903
    4      C       2.0399403041    -0.1928131151     0.9169736907
    5      C       1.6445608322    -1.4012054115     0.0110620535
    6      O       0.8589579905    -2.3254171465     0.7769996603
    7      C       0.4502233741    -3.4731258462    -0.0659037139
    8      C      -0.7226379427    -3.0947531516    -1.0442888074
    9      O      -1.8845236219    -2.5551874419    -0.2959405943
   10      C      -1.7471792844    -1.1463283231    -0.1045259327
   11      C      -2.9704005636    -0.6336117649     0.7205927862
   12      C      -2.7761473309     0.8514378557     1.2374068243
   13      C      -1.3465103188     1.4455679899     0.9337811861
   14      O      -0.3362388037     1.3038927912     1.6673032359
   15      O       1.7970949706     1.0222918626    -1.9433648292
   16      O      -1.4112492627     2.2826159705    -0.2118563274
   17      O      -0.8141438061    -0.4510501333    -0.5690970304
   18      C      -0.0715129605     2.8244062682    -0.5464919557
   19      C      -4.2468809364    -0.4620968692    -0.2157389110
   20      C      -5.5168748799    -0.2631841742     0.7026312256
   21      C      -5.3144626614     1.2221636780     1.1814738834
   22      C      -3.9532946183     1.5898819064     0.4697300106
   23      O      -4.0360723936     0.8694050366    -0.8231668645
   24      H      -3.1666203639    -1.3433182868     1.5437954050
   25      H      -2.9193442132     0.8926995601     2.3320777832
   26      H      -4.3452400583    -1.2412540584    -0.9965807951
   27      H      -6.4395254451    -0.3768946843     0.1114967542
   28      H      -5.5404060241    -0.9819317767     1.5373099656
   29      H      -6.1249231406     1.8754232174     0.8210724233
   30      H      -5.2486750245     1.3120159275     2.2774607010
   31      H      -3.7809784434     2.6693100393     0.2985237915
   32      O       1.9808954715    -1.6001461652    -1.1788145956
   33      C       1.7435041570     0.7858107881    -3.3998260116
   34      C       4.3735761815     0.5411163134     0.8925478868
   35      C       4.3398423403     1.3404163587     2.2529002324
   36      C       3.2923629610     0.4920571397     3.0670825103
   37      C       3.0077830606    -0.6965027283     2.0656799255
   38      O       4.2885581865    -0.8703037581     1.3369787671
   39      H       2.6565989977     1.8463627632     0.3268517776
   40      H       1.1196703849     0.3189566116     1.2883230484
   41      H       2.7631235972     0.5655962248    -3.7758303686
   42      H       5.2681586443     0.6936430662     0.2578199288
   43      H       5.3311281407     1.3241100956     2.7336870541
   44      H       4.0283333934     2.3882633517     2.1168356512
   45      H       3.7200356167     0.1126397600     4.0085955414
   46      H       2.3750143228     1.0580603620     3.2966297856
   47      H       2.6918797895    -1.6478872531     2.5359402763
   48      H       1.3379937285     1.6934913367    -3.8868379004
   49      H       1.0767628444    -0.0743957887    -3.6115507418
   50      H      -0.2546694487     3.6714908304    -1.2325344212
   51      H       0.5662390524     2.0570977561    -1.0549617924
   52      H       0.4444948274     3.1898764423     0.3637381327
   53      H      -0.3597543816    -2.3538845093    -1.7879059076
   54      H      -1.0814902494    -4.0071382093    -1.5621984802
   55      H       0.1150819353    -4.2559944328     0.6437492592
   56      H       1.3044965472    -3.8542775287    -0.6668178275
 ----------------------------------------------------------------

    9   -1510.3053082339      6.36E-09 Convergence criterion met
 Total energy in the final basis set = -1510.30530823
 Final energy is   -1510.30530823388
 **  OPTIMIZATION CONVERGED  **

                    Orbital Energies (a.u.)
 --------------------------------------------------------------

 Alpha MOs
 -- Occupied --
-18.945 -18.933 -18.928 -18.921 -18.890 -18.889 -18.877 -18.875
-18.862 -18.862 -10.110 -10.098 -10.098 -10.091 -10.078 -10.077
-10.064 -10.059 -10.049 -10.049 -10.047 -10.043 -10.036 -10.036
-10.023 -10.023 -10.021 -10.016 -10.011 -10.009  -1.026  -1.010
 -1.002  -0.996  -0.972  -0.959  -0.948  -0.936  -0.927  -0.924
 -0.765  -0.752  -0.729  -0.720  -0.710  -0.704  -0.691  -0.651
 -0.647  -0.621  -0.594  -0.575  -0.547  -0.539  -0.536  -0.527
 -0.516  -0.500  -0.487  -0.471  -0.463  -0.451  -0.449  -0.445
 -0.436  -0.425  -0.423  -0.420  -0.407  -0.405  -0.400  -0.395
 -0.392  -0.378  -0.371  -0.367  -0.364  -0.353  -0.348  -0.344
 -0.343  -0.334  -0.332  -0.331  -0.325  -0.323  -0.314  -0.314
 -0.306  -0.303  -0.301  -0.297  -0.292  -0.282  -0.281  -0.270
 -0.264  -0.258  -0.248  -0.247  -0.236  -0.230  -0.223  -0.196
 -0.171  -0.167  -0.163  -0.161  -0.152  -0.149  -0.144  -0.141
 -0.134

          Ground-State Mulliken Net Atomic Charges

     Atom                 Charge (a.u.)
  ----------------------------------------
      1 O                    -0.216419
      2 C                     0.222843
      3 C                    -0.082272
      4 C                    -0.091659
      5 C                     0.222033
      6 O                    -0.174157
      7 C                    -0.050461
      8 C                    -0.053869
      9 O                    -0.170917
     10 C                     0.217449
     11 C                    -0.078323
     12 C                    -0.080692
     13 C                     0.222846
     14 O                    -0.234505
     15 O                    -0.176999
     16 O                    -0.165144
     17 O                    -0.206831
     18 C                    -0.146762
     19 C                     0.025567
     20 C                    -0.143721
     21 C                    -0.144277
     22 C                     0.025915
     23 O                    -0.187380
     24 H                     0.088086
     25 H                     0.083261
     26 H                     0.084179
     27 H                     0.078458
     28 H                     0.074015
     29 H                     0.078126
     30 H                     0.073486
     31 H                     0.090111
     32 O                    -0.212824
     33 C                    -0.131141
     34 C                     0.023105
     35 C                    -0.142667
     36 C                    -0.144796
     37 C                     0.023025
     38 O                    -0.194464
     39 H                     0.083460
     40 H                     0.118222
     41 H                     0.100743
     42 H                     0.086909
     43 H                     0.075455
     44 H                     0.071779
     45 H                     0.074922
     46 H                     0.079050
     47 H                     0.083121
     48 H                     0.083034
     49 H                     0.085465
     50 H                     0.080246
     51 H                     0.116901
     52 H                     0.078343
     53 H                     0.102634
     54 H                     0.091133
     55 H                     0.090526
     56 H                     0.095834
  ----------------------------------------
  Sum of atomic charges =     0.000000

                    Cartesian Multipole Moments
 -----------------------------------------------------------------
    Charge (ESU x 10^10)
                -0.0000
    Dipole Moment (Debye)
         X      -3.3531      Y      -0.2964      Z       1.2827
       Tot       3.6023
    Quadrupole Moments (Debye-Ang)
        XX    -164.7317     XY       8.3134     YY    -148.8373
        XZ      -0.9951     YZ       2.4613     ZZ    -157.3938

 Total job time:  154.90s(wall), 7389.19s(cpu)
        *  Thank you very much for using Q-Chem.  Have a nice day.  *
