 Q-Chem 5.0, Q-Chem, Inc., Pleasanton, CA (2017)
 Q-Chem 5.0.1 for Intel X86 EM64T Linux

User input:
--------------------------------------------------------------
$molecule
0  1
O -3.94934 -3.66094 2.70899
C -3.26408 -4.56952 2.26188
C -3.36658 -6.02376 2.66595
C -2.1637 -6.92746 2.34928
C -0.92277 -6.23941 1.8251
O 0.19181 -6.83364 2.34475
C 1.23196 -5.90181 2.65941
C 1.44797 -4.94192 1.49404
O 1.52973 -5.67727 0.263
C 0.84609 -6.8482 0.23672
C 1.6356 -8.00335 0.805
C 0.90381 -9.35342 0.79761
C -0.33043 -9.43123 -0.07836
O -0.86764 -8.48281 -0.63195
O -3.04684 -4.39846 0.9287
O -0.90803 -10.65719 -0.1873
O 0.56019 -6.912 -0.94792
C -2.05004 -10.9161 -0.91566
C 2.85887 -8.36445 -0.09113
C 3.9284 -9.09918 0.72049
C 3.21569 -10.40751 0.99504
C 1.97261 -10.22955 0.11217
O 2.40193 -9.39295 -0.93271
H 2.09264 -7.92992 1.7888
H 0.61157 -9.70118 1.81341
H 3.31205 -7.487 -0.6024
H 4.7741 -9.29136 0.02108
H 4.3182 -8.57524 1.61968
H 3.86372 -11.23891 0.63982
H 2.92042 -10.57419 2.05384
H 1.57795 -11.22266 -0.19618
O -0.99054 -5.42571 0.92007
C -3.025 -3.19961 0.23286
C -3.44761 -6.19588 4.19866
C -4.1621 -7.50232 4.53105
C -3.1171 -8.50744 4.1018
C -1.95737 -7.56758 3.74588
O -2.12794 -6.46727 4.60217
H -4.31227 -6.40198 2.21498
H -2.43646 -7.67735 1.57466
H -3.16358 -2.3164 0.89263
H -3.95027 -5.35054 4.71749
H -4.25844 -7.54157 5.6401
H -5.16592 -7.63585 4.07347
H -2.86439 -9.14398 4.97884
H -3.39817 -9.14604 3.23625
H -1.00651 -8.13056 3.85554
H -3.82495 -3.20745 -0.53524
H -2.04405 -3.09464 -0.2752
H -2.29776 -11.99414 -0.83279
H -1.88512 -10.66791 -1.986
H -2.90037 -10.32145 -0.51828
H 0.72427 -4.10432 1.41649
H 2.41088 -4.41861 1.67263
H 2.16838 -6.37942 3.00695
H 0.93094 -5.28706 3.53608
$end

$opt
CONSTRAINT
tors           1           2           3           4    -161.053
tors           3           4           5           6    +142.105
tors           4           5           6           7    -142.105
tors           5           6           7           8     -47.368
tors           6           7           8           9     -47.368
tors           7           8           9          10     +28.421
tors           8           9          10          11     -85.263
tors           9          10          11          12    -180.000
tors          11          12          13          14      -9.474
ENDCONSTRAINT
$end

$rem
JOBTYPE                   OPT
METHOD                    B3LYP
DFT_D                     d3_op
BASIS                     STO-3G
GEOM_OPT_MAX_CYCLES       100
GEOM_OPT_TOL_GRADIENT     300
GEOM_OPT_TOL_DISPLACEMENT 1200
GEOM_OPT_TOL_ENERGY       100
SYMMETRY                  False
THRESH                    12
SCF_CONVERGENCE           8
MAX_SUB_FILE_NUM          128
MEM_STATIC                400
MEM_TOTAL                 4000
$end
--------------------------------------------------------------

   17   -1509.9805226629      9.92E-09 Convergence criterion met
 Total energy in the final basis set = -1509.98052266
   15   -1510.0785834681      6.65E-09 Convergence criterion met
 Total energy in the final basis set = -1510.07858347
   15   -1510.1376248738      4.71E-09 Convergence criterion met
 Total energy in the final basis set = -1510.13762487
   14   -1510.1724009492      9.20E-09 Convergence criterion met
 Total energy in the final basis set = -1510.17240095
   14   -1510.1923990103      7.59E-09 Convergence criterion met
 Total energy in the final basis set = -1510.19239901
   14   -1510.2039816534      6.96E-09 Convergence criterion met
 Total energy in the final basis set = -1510.20398165
   14   -1510.2117898492      1.90E-09 Convergence criterion met
 Total energy in the final basis set = -1510.21178985
   13   -1510.2166149660      7.05E-09 Convergence criterion met
   11   -1510.2332135144      7.17E-09 Convergence criterion met
 Total energy in the final basis set = -1510.23321351
   11   -1510.2332426122      6.93E-09 Convergence criterion met
 Total energy in the final basis set = -1510.23324261
   11   -1510.2332570022      3.96E-09 Convergence criterion met
 Total energy in the final basis set = -1510.23325700
   11   -1510.2332683917      2.12E-09 Convergence criterion met
 Total energy in the final basis set = -1510.23326839
   11   -1510.2332770917      2.45E-09 Convergence criterion met
 Total energy in the final basis set = -1510.23327709
   10   -1510.2332819295      9.28E-09 Convergence criterion met
 Total energy in the final basis set = -1510.23328193

             Standard Nuclear Orientation (Angstroms)
    I     Atom           X                Y                Z
 ----------------------------------------------------------------
    1      O      -4.7782834069     0.9297524264    -1.4235247844
    2      C      -3.6714485348     0.3815280699    -1.2172456125
    3      C      -3.3995385196    -0.7996262862    -0.2199165895
    4      C      -1.9173461867    -1.0687224767     0.2529439945
    5      C      -1.0982648252     0.2789153446     0.4787595228
    6      O      -0.2394672474     0.1175761038     1.6372871121
    7      C      -0.1282720720     1.3330841254     2.4733691788
    8      C       0.1544234860     2.7421843291     1.8010382711
    9      O       1.2265963219     2.8848805397     0.7921527544
   10      C       1.5252973938     1.6914565902     0.0164951461
   11      C       2.5551815717     0.7361134132     0.7528620134
   12      C       2.9315457000    -0.5824518344    -0.0245872395
   13      C       1.8486925361    -1.1663401741    -0.9950442491
   14      O       0.6514294741    -0.8391364030    -1.1434398690
   15      O      -2.5495738974     0.4865143746    -2.0990312595
   16      O       2.4676044227    -2.2268226750    -1.7356587731
   17      O       1.2994478866     1.6757710871    -1.2099716406
   18      C       1.4895369941    -2.8244415042    -2.6729961596
   19      C       3.9460852887     1.5117930967     0.6318094722
   20      C       5.0793757549     0.7393284343     1.4202552855
   21      C       5.4342617303    -0.4135466630     0.4073235664
   22      C       4.3244162981    -0.1845679556    -0.6889589847
   23      O       4.2801202691     1.2911697327    -0.7960720131
   24      H       2.2630001840     0.5439635072     1.7962965597
   25      H       3.1156769412    -1.3843502838     0.7154066237
   26      H       3.8713629951     2.5945380707     0.8524224751
   27      H       5.9412901298     1.3996000526     1.6056079722
   28      H       4.7154063590     0.3555988241     2.3870741410
   29      H       6.4362235719    -0.2699975401    -0.0282037579
   30      H       5.3840468121    -1.4163764617     0.8607031643
   31      H       4.5140166227    -0.6499689226    -1.6754479751
   32      O      -1.2762561375     1.3719092144    -0.0924642484
   33      C      -2.7786493405     1.5351977766    -3.1179822337
   34      C      -4.1878158374    -0.8106770142     1.1612979213
   35      C      -4.5676520844    -2.3151353931     1.4369972811
   36      C      -3.1315580608    -2.9281341009     1.6468622318
   37      C      -2.2327055612    -1.6285262936     1.7035712224
   38      O      -3.1505827473    -0.5616086079     2.1922982601
   39      H      -3.7201307404    -1.6908681160    -0.7948319189
   40      H      -1.3641203331    -1.7521249617    -0.4157549934
   41      H      -3.8387461562     1.8592723991    -3.0913360474
   42      H      -5.0123717780    -0.0751145977     1.2349311328
   43      H      -5.1741036961    -2.3956282432     2.3536917557
   44      H      -5.1179255195    -2.7787750177     0.6025283821
   45      H      -3.0604325133    -3.4927786788     2.5896384688
   46      H      -2.8337273279    -3.5914893939     0.8185452675
   47      H      -1.3403027499    -1.6912088091     2.3532286684
   48      H      -2.5302568166     1.1122439105    -4.1104131000
   49      H      -2.1128697345     2.3962476373    -2.9088033498
   50      H       2.0371842621    -3.6101890346    -3.2251640860
   51      H       1.0957602157    -2.0721870010    -3.3866657355
   52      H       0.6325258138    -3.2795892628    -2.1352627246
   53      H      -0.7987343185     3.0909278259     1.3451904318
   54      H       0.4177453113     3.4396550460     2.6268764925
   55      H       0.6791619795     1.0928458367     3.1949135323
   56      H      -1.0730025125     1.4585494734     3.0513035532
 ----------------------------------------------------------------

   10   -1510.2332825310      5.18E-09 Convergence criterion met
 Total energy in the final basis set = -1510.23328253
 Final energy is   -1510.23328253095
 **  OPTIMIZATION CONVERGED  **

                    Orbital Energies (a.u.)
 --------------------------------------------------------------

 Alpha MOs
 -- Occupied --
-18.934 -18.921 -18.918 -18.893 -18.887 -18.886 -18.882 -18.880
-18.878 -18.863 -10.102 -10.098 -10.095 -10.091 -10.073 -10.066
-10.065 -10.059 -10.058 -10.056 -10.053 -10.044 -10.037 -10.032
-10.032 -10.031 -10.021 -10.020 -10.019 -10.018  -1.014  -1.007
 -0.997  -0.989  -0.969  -0.967  -0.938  -0.934  -0.923  -0.921
 -0.761  -0.759  -0.722  -0.720  -0.709  -0.704  -0.693  -0.663
 -0.648  -0.613  -0.596  -0.578  -0.543  -0.541  -0.536  -0.534
 -0.513  -0.503  -0.480  -0.463  -0.460  -0.453  -0.448  -0.437
 -0.434  -0.429  -0.426  -0.413  -0.409  -0.403  -0.402  -0.394
 -0.386  -0.382  -0.374  -0.368  -0.360  -0.353  -0.349  -0.346
 -0.338  -0.335  -0.332  -0.329  -0.328  -0.316  -0.314  -0.309
 -0.308  -0.305  -0.304  -0.298  -0.297  -0.286  -0.278  -0.273
 -0.266  -0.255  -0.244  -0.235  -0.234  -0.232  -0.220  -0.179
 -0.170  -0.166  -0.160  -0.149  -0.147  -0.143  -0.143  -0.137
 -0.134

          Ground-State Mulliken Net Atomic Charges

     Atom                 Charge (a.u.)
  ----------------------------------------
      1 O                    -0.221157
      2 C                     0.212738
      3 C                    -0.080594
      4 C                    -0.071341
      5 C                     0.227811
      6 O                    -0.187760
      7 C                    -0.053896
      8 C                    -0.048135
      9 O                    -0.196364
     10 C                     0.223015
     11 C                    -0.079639
     12 C                    -0.079710
     13 C                     0.215226
     14 O                    -0.206236
     15 O                    -0.160851
     16 O                    -0.172529
     17 O                    -0.171685
     18 C                    -0.128276
     19 C                     0.022305
     20 C                    -0.145524
     21 C                    -0.141700
     22 C                     0.026123
     23 O                    -0.188757
     24 H                     0.081959
     25 H                     0.083389
     26 H                     0.087373
     27 H                     0.078437
     28 H                     0.072144
     29 H                     0.078134
     30 H                     0.073215
     31 H                     0.089418
     32 O                    -0.198008
     33 C                    -0.133452
     34 C                     0.021707
     35 C                    -0.140610
     36 C                    -0.146973
     37 C                     0.019804
     38 O                    -0.198043
     39 H                     0.082496
     40 H                     0.093604
     41 H                     0.097504
     42 H                     0.088229
     43 H                     0.076906
     44 H                     0.073706
     45 H                     0.076605
     46 H                     0.072295
     47 H                     0.089759
     48 H                     0.083450
     49 H                     0.092685
     50 H                     0.090213
     51 H                     0.093503
     52 H                     0.084657
     53 H                     0.092503
     54 H                     0.081533
     55 H                     0.080796
     56 H                     0.087998
  ----------------------------------------
  Sum of atomic charges =     0.000000

                    Cartesian Multipole Moments
 -----------------------------------------------------------------
    Charge (ESU x 10^10)
                 0.0000
    Dipole Moment (Debye)
         X       1.2726      Y      -3.6752      Z       2.2414
       Tot       4.4889
    Quadrupole Moments (Debye-Ang)
        XX    -161.2959     XY       1.5498     YY    -156.2927
        XZ       5.7148     YZ       8.0539     ZZ    -152.1212

 Total job time:  89.32s(wall), 4254.01s(cpu)
        *  Thank you very much for using Q-Chem.  Have a nice day.  *
