 Q-Chem 5.0, Q-Chem, Inc., Pleasanton, CA (2017)
 Q-Chem 5.0.1 for Intel X86 EM64T Linux

User input:
--------------------------------------------------------------
$molecule
0  1
O -3.94934 -3.66094 2.70899
C -3.26408 -4.56952 2.26188
C -3.36658 -6.02376 2.66595
C -2.09215 -6.69516 3.20345
C -0.90361 -5.79095 3.44399
O -0.99394 -5.22589 4.68414
C -2.34351 -5.07343 5.13655
C -2.67115 -6.13602 6.18044
O -4.09506 -6.2751 6.307
C -4.51297 -7.19593 7.21064
C -5.73399 -7.95759 6.7528
C -5.4605 -9.38979 6.27083
C -4.10881 -9.96536 6.64279
O -3.03006 -9.56549 6.2293
O -2.30289 -4.25895 1.34721
O -4.09306 -11.01519 7.51058
O -3.84122 -7.54033 8.1757
C -2.95014 -11.64463 7.95804
C -6.78529 -8.203 7.84923
C -8.15822 -8.37823 7.20457
C -7.97685 -9.71694 6.51658
C -6.5893 -10.11204 7.04248
O -6.51653 -9.50452 8.31079
H -6.20382 -7.36292 5.93457
H -5.56511 -9.50359 5.1706
H -6.81404 -7.40284 8.62069
H -8.88716 -8.5005 8.03788
H -8.49604 -7.55007 6.54507
H -8.76392 -10.40974 6.88843
H -7.9875 -9.68516 5.40539
H -6.48222 -11.21854 7.02017
O 0.13147 -5.77272 2.79107
C -2.05596 -2.98607 0.87778
C -4.48109 -6.9467 3.20805
C -4.63141 -8.19824 2.33024
C -3.30343 -8.90769 2.62805
C -2.7141 -8.00145 3.74216
O -3.90379 -7.55777 4.33143
H -3.43928 -6.30698 1.58865
H -1.61747 -7.1334 2.29535
H -1.76476 -2.3189 1.71702
H -5.44086 -6.41707 3.38463
H -5.46345 -8.79881 2.76279
H -4.84608 -8.02428 1.25379
H -3.5402 -9.91684 3.03257
H -2.62235 -9.01909 1.75744
H -1.97746 -8.56762 4.34428
H -2.95946 -2.58292 0.37229
H -1.22354 -3.02381 0.14563
H -3.23333 -12.46147 8.65299
H -2.30317 -10.92189 8.49979
H -2.39263 -12.08015 7.10144
H -2.19146 -7.10169 5.96752
H -2.21142 -5.83117 7.1484
H -3.17731 -4.73167 4.57109
H -2.34188 -4.12555 5.71669
$end

$opt
CONSTRAINT
tors           1           2           3           4    -123.158
tors           3           4           5           6     +85.263
tors           4           5           6           7     -28.421
tors           5           6           7           8    +104.211
tors           6           7           8           9    -161.053
tors           7           8           9          10    -180.000
tors           8           9          10          11    -142.105
tors           9          10          11          12    +104.211
tors          11          12          13          14     -66.316
ENDCONSTRAINT
$end

$rem
JOBTYPE                   OPT
METHOD                    B3LYP
DFT_D                     d3_op
BASIS                     STO-3G
GEOM_OPT_MAX_CYCLES       100
GEOM_OPT_TOL_GRADIENT     300
GEOM_OPT_TOL_DISPLACEMENT 1200
GEOM_OPT_TOL_ENERGY       100
SYMMETRY                  False
THRESH                    12
SCF_CONVERGENCE           8
MAX_SUB_FILE_NUM          128
MEM_STATIC                400
MEM_TOTAL                 4000
$end
--------------------------------------------------------------

   16   -1510.0249990171      3.77E-09 Convergence criterion met
 Total energy in the final basis set = -1510.02499902
   14   -1510.0974109318      4.72E-09 Convergence criterion met
 Total energy in the final basis set = -1510.09741093
   14   -1510.1544178982      2.61E-09 Convergence criterion met
 Total energy in the final basis set = -1510.15441790
   14   -1510.1884624768      1.86E-09 Convergence criterion met
 Total energy in the final basis set = -1510.18846248
   14   -1510.2102282534      1.61E-09 Convergence criterion met
 Total energy in the final basis set = -1510.21022825
   13   -1510.2251330425      7.43E-09 Convergence criterion met
 Total energy in the final basis set = -1510.22513304
   13   -1510.2360699981      7.47E-09 Convergence criterion met
 Total energy in the final basis set = -1510.23607000
   13   -1510.2443030962      6.91E-09 Convergence criterion met
   10   -1510.2606039575      9.11E-09 Convergence criterion met
 Total energy in the final basis set = -1510.26060396
   11   -1510.2606318554      3.03E-09 Convergence criterion met
 Total energy in the final basis set = -1510.26063186
   10   -1510.2606562012      5.92E-09 Convergence criterion met
 Total energy in the final basis set = -1510.26065620
    9   -1510.2606698446      8.46E-09 Convergence criterion met
 Total energy in the final basis set = -1510.26066984
    9   -1510.2606753730      9.82E-09 Convergence criterion met
 Total energy in the final basis set = -1510.26067537
    9   -1510.2606769102      4.91E-09 Convergence criterion met
 Total energy in the final basis set = -1510.26067691

             Standard Nuclear Orientation (Angstroms)
    I     Atom           X                Y                Z
 ----------------------------------------------------------------
    1      O      -3.3056922220    -2.3661001044     0.1838963378
    2      C      -3.7213929273    -1.3380086924    -0.3956709475
    3      C      -3.0290989157    -0.5676575545    -1.5734749329
    4      C      -2.7304359551     0.9764270585    -1.2979157310
    5      C      -3.4398047476     1.6041975928    -0.0145262390
    6      O      -2.9433724055     1.5606856870     1.3359864440
    7      C      -2.0834410197     0.4285232740     1.7445308425
    8      C      -0.5735490410     0.8590735342     1.8337702408
    9      O       0.2043144689    -0.4014788950     1.7818968222
   10      C       1.6112326801    -0.1187436372     1.8572313028
   11      C       2.3292576508    -1.1255873645     0.8965011116
   12      C       2.7854257818    -0.4094823003    -0.4534744377
   13      C       2.6114896948     1.1568418047    -0.3960938569
   14      O       1.5334666182     1.7910893255    -0.3252158305
   15      O      -4.9228184169    -0.6466555613    -0.0490914609
   16      O       3.8870712079     1.7927802610    -0.4303106577
   17      O       2.1213849656     0.8217627129     2.5029268717
   18      C       3.7250489511     3.2604966839    -0.3067299215
   19      C       3.7160355699    -1.6976416073     1.4168421889
   20      C       4.0211415598    -3.0116468307     0.5975969230
   21      C       4.3763370818    -2.4041333866    -0.8105735891
   22      C       4.3035552704    -0.8525323340    -0.5106174818
   23      O       4.7248273694    -0.7417114552     0.9060154526
   24      H       1.6145725424    -1.9371537647     0.6752692242
   25      H       2.1898264952    -0.7833312905    -1.3069809267
   26      H       3.7938997819    -1.7911063621     2.5173111889
   27      H       4.8802785750    -3.5454604958     1.0344401991
   28      H       3.1577863431    -3.6950873865     0.5635873335
   29      H       5.3911303242    -2.6876166136    -1.1318235045
   30      H       3.6616478355    -2.7050753792    -1.5934537633
   31      H       4.9402401799    -0.2165756061    -1.1542251942
   32      O      -4.4410130124     2.3408951877    -0.1793264057
   33      C      -5.5761502550    -1.2973350632     1.1102986101
   34      C      -1.5708453351    -1.1285748578    -1.8258540617
   35      C      -1.0855341933    -0.6495182755    -3.2465116713
   36      C      -0.7822217118     0.8676583298    -2.9611036056
   37      C      -1.1476528561     0.9801037894    -1.4268183971
   38      O      -0.7369037698    -0.3393568278    -0.8896834315
   39      H      -3.6676302033    -0.6739788807    -2.4697454752
   40      H      -3.1691554571     1.5699598345    -2.1195654189
   41      H      -4.9070004315    -1.3134247512     1.9944574316
   42      H      -1.4685361825    -2.2107269092    -1.6138195818
   43      H      -0.1773226296    -1.1948660700    -3.5486726089
   44      H      -1.8564344639    -0.7930467750    -4.0203466307
   45      H       0.2845708255     1.1010930182    -3.1068773581
   46      H      -1.3814788298     1.5489061417    -3.5858471137
   47      H      -0.6120861646     1.7921346069    -0.9022941826
   48      H      -5.8793579443    -2.3380443959     0.8752956548
   49      H      -6.4719424493    -0.6893108095     1.3333689978
   50      H       4.7482683059     3.6786282823    -0.3074587471
   51      H       3.2112525339     3.5304705128     0.6381036420
   52      H       3.1493826221     3.6806530670    -1.1567509614
   53      H      -0.2809825293     1.5102859692     0.9856026435
   54      H      -0.3791941478     1.4160911307     2.7767952986
   55      H      -2.1300026565    -0.4251060396     1.0401448123
   56      H      -2.4472293654     0.0992907398     2.7397236270
 ----------------------------------------------------------------

    9   -1510.2606775149      2.57E-09 Convergence criterion met
 Total energy in the final basis set = -1510.26067751
 Final energy is   -1510.26067751486
 **  OPTIMIZATION CONVERGED  **

                    Orbital Energies (a.u.)
 --------------------------------------------------------------

 Alpha MOs
 -- Occupied --
-18.945 -18.943 -18.923 -18.916 -18.891 -18.885 -18.884 -18.876
-18.875 -18.864 -10.108 -10.105 -10.095 -10.095 -10.069 -10.067
-10.066 -10.063 -10.059 -10.059 -10.058 -10.057 -10.042 -10.039
-10.038 -10.032 -10.025 -10.023 -10.019 -10.018  -1.021  -1.017
 -1.002  -0.996  -0.975  -0.967  -0.945  -0.939  -0.933  -0.925
 -0.765  -0.761  -0.725  -0.722  -0.709  -0.707  -0.694  -0.667
 -0.663  -0.607  -0.600  -0.581  -0.551  -0.545  -0.542  -0.536
 -0.517  -0.510  -0.489  -0.479  -0.469  -0.453  -0.446  -0.443
 -0.437  -0.431  -0.430  -0.419  -0.415  -0.412  -0.409  -0.404
 -0.393  -0.381  -0.380  -0.372  -0.362  -0.358  -0.354  -0.350
 -0.344  -0.339  -0.333  -0.332  -0.329  -0.322  -0.316  -0.315
 -0.309  -0.306  -0.305  -0.299  -0.295  -0.288  -0.281  -0.278
 -0.273  -0.258  -0.256  -0.243  -0.238  -0.232  -0.230  -0.185
 -0.183  -0.165  -0.163  -0.161  -0.158  -0.150  -0.146  -0.141
 -0.139

          Ground-State Mulliken Net Atomic Charges

     Atom                 Charge (a.u.)
  ----------------------------------------
      1 O                    -0.211611
      2 C                     0.205087
      3 C                    -0.081499
      4 C                    -0.084480
      5 C                     0.206326
      6 O                    -0.175295
      7 C                    -0.052360
      8 C                    -0.050066
      9 O                    -0.176108
     10 C                     0.210831
     11 C                    -0.079149
     12 C                    -0.076224
     13 C                     0.213692
     14 O                    -0.225116
     15 O                    -0.165260
     16 O                    -0.161584
     17 O                    -0.207834
     18 C                    -0.126925
     19 C                     0.024025
     20 C                    -0.142911
     21 C                    -0.144960
     22 C                     0.024303
     23 O                    -0.186970
     24 H                     0.089666
     25 H                     0.087452
     26 H                     0.084456
     27 H                     0.077464
     28 H                     0.073858
     29 H                     0.077288
     30 H                     0.071923
     31 H                     0.089280
     32 O                    -0.201776
     33 C                    -0.127454
     34 C                     0.021330
     35 C                    -0.144476
     36 C                    -0.142820
     37 C                     0.017040
     38 O                    -0.192142
     39 H                     0.086911
     40 H                     0.089571
     41 H                     0.090653
     42 H                     0.088598
     43 H                     0.075354
     44 H                     0.074229
     45 H                     0.077145
     46 H                     0.074794
     47 H                     0.097899
     48 H                     0.089909
     49 H                     0.096945
     50 H                     0.093267
     51 H                     0.095670
     52 H                     0.087315
     53 H                     0.095415
     54 H                     0.084186
     55 H                     0.098060
     56 H                     0.087075
  ----------------------------------------
  Sum of atomic charges =    -0.000000

                    Cartesian Multipole Moments
 -----------------------------------------------------------------
    Charge (ESU x 10^10)
                -0.0000
    Dipole Moment (Debye)
         X       0.5482      Y      -2.0367      Z      -3.0221
       Tot       3.6853
    Quadrupole Moments (Debye-Ang)
        XX    -166.6023     XY       9.5154     YY    -159.5400
        XZ      -6.0566     YZ      -3.0293     ZZ    -154.2388

 Total job time:  71.09s(wall), 3386.27s(cpu)
        *  Thank you very much for using Q-Chem.  Have a nice day.  *
