 Q-Chem 5.0, Q-Chem, Inc., Pleasanton, CA (2017)
 Q-Chem 5.0.1 for Intel X86 EM64T Linux

User input:
--------------------------------------------------------------
$molecule
0  1
O -3.305692222 -2.3661001044 0.1838963378
C -3.7213929273 -1.3380086924 -0.3956709475
C -3.0290989157 -0.5676575545 -1.5734749329
C -2.7304359551 0.9764270585 -1.297915731
C -3.4398047476 1.6041975928 -0.014526239
O -2.9433724055 1.560685687 1.335986444
C -2.0834410197 0.428523274 1.7445308425
C -0.573549041 0.8590735342 1.8337702408
O 0.2043144689 -0.401478895 1.7818968222
C 1.6112326801 -0.1187436372 1.8572313028
C 2.3292576508 -1.1255873645 0.8965011116
C 2.7854257818 -0.4094823003 -0.4534744377
C 2.6114896948 1.1568418047 -0.3960938569
O 1.5334666182 1.7910893255 -0.3252158305
O -4.9228184169 -0.6466555613 -0.0490914609
O 3.8870712079 1.792780261 -0.4303106577
O 2.1213849656 0.8217627129 2.5029268717
C 3.7250489511 3.2604966839 -0.3067299215
C 3.7160355699 -1.6976416073 1.4168421889
C 4.0211415598 -3.0116468307 0.597596923
C 4.3763370818 -2.4041333866 -0.8105735891
C 4.3035552704 -0.852532334 -0.5106174818
O 4.7248273694 -0.7417114552 0.9060154526
H 1.6145725424 -1.9371537647 0.6752692242
H 2.1898264952 -0.7833312905 -1.3069809267
H 3.7938997819 -1.7911063621 2.5173111889
H 4.880278575 -3.5454604958 1.0344401991
H 3.1577863431 -3.6950873865 0.5635873335
H 5.3911303242 -2.6876166136 -1.1318235045
H 3.6616478355 -2.7050753792 -1.5934537633
H 4.9402401799 -0.2165756061 -1.1542251942
O -4.4410130124 2.3408951877 -0.1793264057
C -5.576150255 -1.2973350632 1.1102986101
C -1.5708453351 -1.1285748578 -1.8258540617
C -1.0855341933 -0.6495182755 -3.2465116713
C -0.7822217118 0.8676583298 -2.9611036056
C -1.1476528561 0.9801037894 -1.4268183971
O -0.7369037698 -0.3393568278 -0.8896834315
H -3.6676302033 -0.6739788807 -2.4697454752
H -3.1691554571 1.5699598345 -2.1195654189
H -4.9070004315 -1.3134247512 1.9944574316
H -1.4685361825 -2.2107269092 -1.6138195818
H -0.1773226296 -1.19486607 -3.5486726089
H -1.8564344639 -0.793046775 -4.0203466307
H 0.2845708255 1.1010930182 -3.1068773581
H -1.3814788298 1.5489061417 -3.5858471137
H -0.6120861646 1.7921346069 -0.9022941826
H -5.8793579443 -2.3380443959 0.8752956548
H -6.4719424493 -0.6893108095 1.3333689978
H 4.7482683059 3.6786282823 -0.3074587471
H 3.2112525339 3.5304705128 0.638103642
H 3.1493826221 3.680653067 -1.1567509614
H -0.2809825293 1.5102859692 0.9856026435
H -0.3791941478 1.4160911307 2.7767952986
H -2.1300026565 -0.4251060396 1.0401448123
H -2.4472293654 0.0992907398 2.739723627
$end

$rem
JOBTYPE                   OPT
METHOD                    B3LYP
DFT_D                     d3_op
BASIS                     STO-3G
GEOM_OPT_MAX_CYCLES       100
GEOM_OPT_TOL_GRADIENT     300
GEOM_OPT_TOL_DISPLACEMENT 1200
GEOM_OPT_TOL_ENERGY       100
SYMMETRY                  False
THRESH                    12
SCF_CONVERGENCE           8
MAX_SUB_FILE_NUM          128
MEM_STATIC                400
MEM_TOTAL                 4000
$end
--------------------------------------------------------------

   16   -1510.2605954617      8.20E-09 Convergence criterion met
 Total energy in the final basis set = -1510.26059546
   14   -1510.2665111556      4.87E-09 Convergence criterion met
 Total energy in the final basis set = -1510.26651116
   14   -1510.2708535352      5.23E-09 Convergence criterion met
 Total energy in the final basis set = -1510.27085354
   14   -1510.2756191640      2.62E-09 Convergence criterion met
 Total energy in the final basis set = -1510.27561916
   14   -1510.2671305525      3.88E-09 Convergence criterion met
 Total energy in the final basis set = -1510.26713055
   14   -1510.2780644914      2.61E-09 Convergence criterion met
 Total energy in the final basis set = -1510.27806449
   14   -1510.2752066604      4.73E-09 Convergence criterion met
 Total energy in the final basis set = -1510.27520666
   14   -1510.2796020949      2.36E-09 Convergence criterion met
   11   -1510.2954706252      7.24E-09 Convergence criterion met
 Total energy in the final basis set = -1510.29547063
   11   -1510.2954707799      4.31E-09 Convergence criterion met
 Total energy in the final basis set = -1510.29547078
    9   -1510.2954714544      5.82E-09 Convergence criterion met
 Total energy in the final basis set = -1510.29547145
    9   -1510.2954668437      5.74E-09 Convergence criterion met
 Total energy in the final basis set = -1510.29546684
   10   -1510.2954689176      4.16E-09 Convergence criterion met
 Total energy in the final basis set = -1510.29546892
   10   -1510.2954703929      4.42E-09 Convergence criterion met
 Total energy in the final basis set = -1510.29547039

             Standard Nuclear Orientation (Angstroms)
    I     Atom           X                Y                Z
 ----------------------------------------------------------------
    1      O       4.7774037978    -0.8680675465     0.0160564380
    2      C       4.1441439428     0.1608136151     0.3343537283
    3      C       3.0388860470     0.3019489253     1.4406741667
    4      C       1.5964921518     0.6082757507     0.8374018532
    5      C       1.6238813258     1.0469677811    -0.6878378589
    6      O       2.0827313928     0.1881999008    -1.7302660527
    7      C       1.9102184850    -1.2707632967    -1.5311211602
    8      C       0.5152952736    -1.7510827706    -2.0801970786
    9      O      -0.5320100850    -1.6201823017    -1.0391556979
   10      C      -1.8083882158    -1.2492300460    -1.6032223274
   11      C      -2.8538996107    -1.2446291038    -0.4230788907
   12      C      -2.8004571842     0.0232126685     0.5213813053
   13      C      -1.8350531836     1.1213795237    -0.0396938044
   14      O      -1.2486340796     1.0734044467    -1.1471827002
   15      O       4.2978461011     1.4399956780    -0.2857010075
   16      O      -1.7514673007     2.1917366627     0.8889726785
   17      O      -2.0313271750    -1.1541324275    -2.8268421333
   18      C      -0.9527503123     3.3166500643     0.3298686553
   19      C      -4.3449740091    -1.1622454516    -0.9606961533
   20      C      -5.3032590935    -1.6855836198     0.1793144020
   21      C      -5.2344536497    -0.4893872808     1.1997786257
   22      C      -4.3053592397     0.5256663537     0.4237512146
   23      O      -4.6293365543     0.2919418410    -1.0009784680
   24      H      -2.6904856489    -2.1667374784     0.1636548663
   25      H      -2.5148938726    -0.2300688778     1.5580635280
   26      H      -4.4902446602    -1.6107857328    -1.9626233709
   27      H      -6.3242959375    -1.8238078213    -0.2106060348
   28      H      -4.9574544943    -2.6377933749     0.6121747882
   29      H      -6.2278062640    -0.0463951570     1.3739899562
   30      H      -4.8042205851    -0.7820725773     2.1710210412
   31      H      -4.4421597427     1.5919809742     0.6893816716
   32      O       1.3746905285     2.2353874062    -1.0181694542
   33      C       5.1729829772     1.3314795423    -1.4755080664
   34      C       2.7729901111    -1.0738083138     2.1682838777
   35      C       1.8761779571    -0.8158421601     3.4411409276
   36      C       0.4583412880    -0.5866377442     2.7874964378
   37      C       0.8021458260    -0.7019604287     1.2586261996
   38      O       1.8430886075    -1.7641582232     1.2399928253
   39      H       3.3415287683     1.0969964475     2.1457102338
   40      H       1.1624305041     1.4817194352     1.3537254799
   41      H       4.6608663489     0.7670273018    -2.2819999866
   42      H       3.6811308234    -1.6865886330     2.3304126011
   43      H       1.8790115194    -1.6973192389     4.1015269882
   44      H       2.2248631230     0.0574377411     4.0151183026
   45      H      -0.2501541793    -1.3769193216     3.0837668916
   46      H       0.0229068465     0.3926390114     3.0432690705
   47      H       0.0003890569    -0.9993633127     0.5415173101
   48      H       6.1316557433     0.8289229306    -1.2354711200
   49      H       5.3633415594     2.3666147649    -1.8129029337
   50      H      -0.7387386750     3.9824254435     1.1855437401
   51      H      -1.5504490385     3.8708900000    -0.4215715854
   52      H      -0.0017378674     2.9607830747    -0.1458223596
   53      H       0.2181931697    -1.1693736885    -2.9797226765
   54      H       0.5960139181    -2.8231085238    -2.3674523198
   55      H       2.0546052245    -1.5922521183    -0.4613898108
   56      H       2.6966280770    -1.7324463145    -2.1628503757
 ----------------------------------------------------------------

    9   -1510.2954709286      3.77E-09 Convergence criterion met
 Total energy in the final basis set = -1510.29547093
 Final energy is   -1510.29547092863
 **  OPTIMIZATION CONVERGED  **

                    Orbital Energies (a.u.)
 --------------------------------------------------------------

 Alpha MOs
 -- Occupied --
-18.938 -18.936 -18.928 -18.928 -18.908 -18.888 -18.881 -18.881
-18.875 -18.871 -10.104 -10.103 -10.103 -10.100 -10.070 -10.064
-10.063 -10.062 -10.058 -10.052 -10.051 -10.044 -10.041 -10.040
-10.039 -10.036 -10.029 -10.027 -10.022 -10.021  -1.017  -1.015
 -1.005  -1.001  -0.985  -0.971  -0.941  -0.939  -0.936  -0.930
 -0.770  -0.764  -0.729  -0.725  -0.711  -0.710  -0.697  -0.663
 -0.654  -0.608  -0.602  -0.583  -0.555  -0.548  -0.543  -0.537
 -0.520  -0.509  -0.487  -0.477  -0.467  -0.457  -0.454  -0.446
 -0.442  -0.432  -0.425  -0.415  -0.413  -0.408  -0.404  -0.401
 -0.393  -0.386  -0.375  -0.372  -0.364  -0.359  -0.356  -0.355
 -0.344  -0.342  -0.337  -0.333  -0.332  -0.327  -0.321  -0.320
 -0.312  -0.309  -0.306  -0.304  -0.298  -0.289  -0.281  -0.278
 -0.271  -0.258  -0.253  -0.251  -0.240  -0.235  -0.230  -0.187
 -0.180  -0.174  -0.167  -0.160  -0.156  -0.152  -0.150  -0.146
 -0.145

          Ground-State Mulliken Net Atomic Charges

     Atom                 Charge (a.u.)
  ----------------------------------------
      1 O                    -0.211800
      2 C                     0.207235
      3 C                    -0.081797
      4 C                    -0.088441
      5 C                     0.219633
      6 O                    -0.175255
      7 C                    -0.072912
      8 C                    -0.053735
      9 O                    -0.186155
     10 C                     0.222528
     11 C                    -0.082337
     12 C                    -0.079725
     13 C                     0.211809
     14 O                    -0.206287
     15 O                    -0.168745
     16 O                    -0.173780
     17 O                    -0.209979
     18 C                    -0.150512
     19 C                     0.024853
     20 C                    -0.143635
     21 C                    -0.144209
     22 C                     0.025211
     23 O                    -0.188567
     24 H                     0.083117
     25 H                     0.084495
     26 H                     0.090445
     27 H                     0.078712
     28 H                     0.072975
     29 H                     0.078635
     30 H                     0.072924
     31 H                     0.086217
     32 O                    -0.202079
     33 C                    -0.128484
     34 C                     0.025165
     35 C                    -0.143163
     36 C                    -0.144795
     37 C                     0.001210
     38 O                    -0.189365
     39 H                     0.088304
     40 H                     0.086919
     41 H                     0.094679
     42 H                     0.091449
     43 H                     0.079757
     44 H                     0.075574
     45 H                     0.076947
     46 H                     0.077074
     47 H                     0.114408
     48 H                     0.090557
     49 H                     0.093519
     50 H                     0.080165
     51 H                     0.081764
     52 H                     0.119640
     53 H                     0.104005
     54 H                     0.082160
     55 H                     0.119286
     56 H                     0.084388
  ----------------------------------------
  Sum of atomic charges =     0.000000

                    Cartesian Multipole Moments
 -----------------------------------------------------------------
    Charge (ESU x 10^10)
                 0.0000
    Dipole Moment (Debye)
         X       0.3061      Y      -1.1526      Z       4.2007
       Tot       4.3667
    Quadrupole Moments (Debye-Ang)
        XX    -154.5509     XY       7.0284     YY    -160.0698
        XZ      -6.9196     YZ       4.0396     ZZ    -160.8489

 Total job time:  194.06s(wall), 9263.35s(cpu)
        *  Thank you very much for using Q-Chem.  Have a nice day.  *
