 Q-Chem 5.0, Q-Chem, Inc., Pleasanton, CA (2017)
 Q-Chem 5.0.1 for Intel X86 EM64T Linux

User input:
--------------------------------------------------------------
$molecule
0  1
O -5.7660244169 1.1890174165 0.5065902913
C -4.986500154 1.0344221051 -0.4571217852
C -4.1663850552 -0.2554578815 -0.828668616
C -2.7788607889 -0.381219887 -0.0755801852
C -2.417720563 0.8483091153 0.842388516
O -1.3980857573 0.5351710982 1.8343295545
C -0.0541479334 0.7022652954 1.2275140009
C 0.7644666284 -0.646372985 1.3500186342
O 2.026424503 -0.3406716883 2.0733518469
C 3.098511773 -1.1202395805 1.4856682929
C 4.2800062781 -0.2085278699 0.9816170355
C 4.6220078051 -0.3936278566 -0.5570442416
C 3.3481240334 -0.8091194216 -1.4002929891
O 2.5082436175 -1.6988754203 -1.1355146495
O -4.7533282111 2.0143169011 -1.4790525702
O 3.303191402 -0.0479284095 -2.6106284645
O 3.1046585809 -2.3685523509 1.4579061731
C 2.1241932391 -0.4435492534 -3.4148154399
C 4.1165500464 1.3676013443 1.083293701
C 5.5623628032 1.9514832141 1.308480863
C 6.2209262942 1.6117667027 -0.0813694511
C 4.9719312024 1.1112180754 -0.9133446748
O 3.8114230874 1.8086384559 -0.2994114831
H 5.1688302603 -0.5172977568 1.5639563551
H 5.4395844129 -1.1177111824 -0.7263083541
H 3.3295860643 1.7003671039 1.7871735112
H 5.513944421 3.039995546 1.4733286362
H 6.0842471691 1.4840657119 2.1587516586
H 6.6705634871 2.5009137593 -0.5505138485
H 6.9930443343 0.8295915747 0.000800557
H 5.0144819706 1.3161853951 -1.9992650274
O -3.0135153139 1.9452523882 0.8428767439
C -5.4515105487 3.2717646611 -1.130760912
C -4.899014372 -1.5605380053 -0.2998161626
C -4.2471035725 -2.8245932434 -0.9900468567
C -2.8908826465 -2.9409832301 -0.1994612965
C -3.0058299788 -1.705700499 0.7761750197
O -4.4460731646 -1.656944343 1.1076155323
H -4.0232795043 -0.2706150966 -1.9233817045
H -1.9497341294 -0.5236536257 -0.7933891263
H -5.040685056 3.7121554766 -0.1991492471
H -6.004130734 -1.5116421207 -0.3444686902
H -4.8794229835 -3.714222273 -0.8410072186
H -4.0973527069 -2.6747168918 -2.071272664
H -2.8365521276 -3.8794911395 0.3747943438
H -2.0061497187 -2.875174165 -0.8526538134
H -2.388883716 -1.7537922614 1.6943199165
H -6.5406511809 3.1115303573 -0.9948744822
H -5.2798880311 3.9638328987 -1.9756217909
H 2.1716835444 0.1610640398 -4.3390874211
H 1.1766922331 -0.2284098466 -2.8798990742
H 2.1468402563 -1.5222235309 -3.6719256406
H 0.1513499383 -1.3758453741 1.9272192122
H 0.9757936425 -1.0839455738 0.3494684579
H 0.4927997869 1.4850638481 1.8002811756
H -0.1002032625 1.0289398792 0.1682485453
$end

$rem
JOBTYPE                   OPT
METHOD                    B3LYP
DFT_D                     d3_op
BASIS                     STO-3G
GEOM_OPT_MAX_CYCLES       100
GEOM_OPT_TOL_GRADIENT     300
GEOM_OPT_TOL_DISPLACEMENT 1200
GEOM_OPT_TOL_ENERGY       100
SYMMETRY                  False
THRESH                    12
SCF_CONVERGENCE           8
MAX_SUB_FILE_NUM          128
MEM_STATIC                400
MEM_TOTAL                 4000
$end
--------------------------------------------------------------

   16   -1510.2375812953      5.07E-09 Convergence criterion met
 Total energy in the final basis set = -1510.23758130
   14   -1510.2419525041      1.99E-09 Convergence criterion met
 Total energy in the final basis set = -1510.24195250
   14   -1510.2464312354      6.05E-09 Convergence criterion met
 Total energy in the final basis set = -1510.24643124
   14   -1510.2508922868      5.06E-09 Convergence criterion met
 Total energy in the final basis set = -1510.25089229
   13   -1510.2551069916      5.72E-09 Convergence criterion met
 Total energy in the final basis set = -1510.25510699
   13   -1510.2588001544      6.78E-09 Convergence criterion met
 Total energy in the final basis set = -1510.25880015
   13   -1510.2620200049      5.09E-09 Convergence criterion met
 Total energy in the final basis set = -1510.26202000
   13   -1510.2648882028      4.94E-09 Convergence criterion met
   13   -1510.2849637082      4.86E-09 Convergence criterion met
 Total energy in the final basis set = -1510.28496371
   13   -1510.2846061314      7.89E-09 Convergence criterion met
 Total energy in the final basis set = -1510.28460613
   13   -1510.2851265511      3.94E-09 Convergence criterion met
 Total energy in the final basis set = -1510.28512655
   12   -1510.2851545394      9.27E-09 Convergence criterion met
 Total energy in the final basis set = -1510.28515454
   12   -1510.2851693198      4.94E-09 Convergence criterion met
 Total energy in the final basis set = -1510.28516932
   11   -1510.2851862519      8.68E-09 Convergence criterion met
 Total energy in the final basis set = -1510.28518625

             Standard Nuclear Orientation (Angstroms)
    I     Atom           X                Y                Z
 ----------------------------------------------------------------
    1      O      -5.8528344361    -0.3704925367     0.1941110232
    2      C      -4.9303037121     0.1947216872    -0.4301829791
    3      C      -3.5742400249    -0.4461155256    -0.9092728585
    4      C      -2.2608515896     0.2002839465    -0.2984169989
    5      C      -2.6365607646     1.2475645932     0.8218197727
    6      O      -1.7295080898     2.2876467305     1.2069707896
    7      C      -0.3096233812     2.1223774498     0.8342161510
    8      C       0.5170817706     1.6698511114     2.0988258826
    9      O       1.8669315416     1.2258701329     1.6755550664
   10      C       1.8970988545    -0.1979228209     1.5329538184
   11      C       3.3225073787    -0.6465946656     1.0447833036
   12      C       3.4921941473    -0.7090855679    -0.5299642407
   13      C       2.2346902044    -0.2115038815    -1.3165237625
   14      O       1.1223591000     0.1199377833    -0.8456319506
   15      O      -5.0277793017     1.5052711514    -1.0165960671
   16      O       2.5459561094    -0.1822886081    -2.7067598490
   17      O       0.9639409802    -0.9647453911     1.8705765371
   18      C       1.3792169513     0.2965159423    -3.4863093776
   19      C       4.4695336461     0.3883908770     1.4221966355
   20      C       5.8594112036    -0.3554158131     1.3190276754
   21      C       6.0346052752    -0.4557576807    -0.2420678164
   22      C       4.7258061698     0.2713783157    -0.7426098393
   23      O       4.4913355695     1.3218153031     0.2722334165
   24      H       3.5122354152    -1.6410641183     1.4859097292
   25      H       3.7294820203    -1.7326188131    -0.8741153027
   26      H       4.2948054020     0.9410127439     2.3650184808
   27      H       6.6549946492     0.2546692556     1.7754639586
   28      H       5.8418460488    -1.3401628713     1.8122915420
   29      H       6.9299861883     0.0862807346    -0.5852335980
   30      H       6.0920370470    -1.4964450626    -0.5991257392
   31      H       4.7803025288     0.7080176172    -1.7588577902
   32      O      -3.7623597775     1.2706117966     1.3752203740
   33      C      -6.2738342562     2.1593276023    -0.5627652170
   34      C      -3.4420618462    -1.9477381970    -0.4209752424
   35      C      -2.4075105993    -2.6749419099    -1.3617545561
   36      C      -1.0662430730    -2.0044264419    -0.8878540942
   37      C      -1.5649628644    -1.0976567885     0.3102028185
   38      O      -2.7143579733    -1.8440655539     0.8658287390
   39      H      -3.5453021151    -0.3803091641    -2.0121097514
   40      H      -1.6469682417     0.6702305590    -1.0850029990
   41      H      -6.2656164007     2.3204059994     0.5349256676
   42      H      -4.4147587479    -2.4566800127    -0.2749301808
   43      H      -2.4068001007    -3.7596354905    -1.1688314212
   44      H      -2.6185005960    -2.5052165396    -2.4298292743
   45      H      -0.3407750457    -2.7493419426    -0.5245997529
   46      H      -0.5867836900    -1.4022110777    -1.6748627502
   47      H      -0.7823212933    -0.9168728769     1.0809177786
   48      H      -7.1713127723     1.5615184301    -0.8236923970
   49      H      -6.3162097700     3.1361346504    -1.0789658691
   50      H       1.7356351739     0.4130392719    -4.5261353557
   51      H       1.0061164667     1.2690667204    -3.1063045778
   52      H       0.5477560786    -0.4376989624    -3.4616439168
   53      H       0.6576891979     2.5118848907     2.8050448893
   54      H      -0.0080672529     0.8329187361     2.6076764738
   55      H       0.0443352541     3.1179564041     0.4949705901
   56      H      -0.1216970935     1.3874372522     0.0247713297
 ----------------------------------------------------------------

   10   -1510.2851869801      9.18E-09 Convergence criterion met
 Total energy in the final basis set = -1510.28518698
 Final energy is   -1510.28518698012
 **  OPTIMIZATION CONVERGED  **

                    Orbital Energies (a.u.)
 --------------------------------------------------------------

 Alpha MOs
 -- Occupied --
-18.962 -18.939 -18.931 -18.907 -18.905 -18.898 -18.881 -18.874
-18.873 -18.849 -10.127 -10.110 -10.097 -10.085 -10.080 -10.072
-10.069 -10.069 -10.066 -10.055 -10.048 -10.045 -10.045 -10.041
-10.030 -10.030 -10.028 -10.022 -10.011 -10.009  -1.039  -1.017
 -1.004  -0.986  -0.981  -0.962  -0.957  -0.943  -0.932  -0.913
 -0.775  -0.751  -0.734  -0.723  -0.712  -0.700  -0.692  -0.681
 -0.645  -0.619  -0.593  -0.589  -0.557  -0.547  -0.534  -0.529
 -0.527  -0.502  -0.494  -0.479  -0.473  -0.462  -0.450  -0.445
 -0.443  -0.437  -0.432  -0.424  -0.419  -0.407  -0.399  -0.396
 -0.394  -0.390  -0.382  -0.375  -0.371  -0.360  -0.353  -0.349
 -0.345  -0.339  -0.338  -0.331  -0.325  -0.319  -0.317  -0.315
 -0.312  -0.310  -0.299  -0.296  -0.293  -0.290  -0.285  -0.278
 -0.267  -0.264  -0.254  -0.244  -0.238  -0.232  -0.221  -0.202
 -0.188  -0.180  -0.163  -0.162  -0.154  -0.153  -0.144  -0.133
 -0.130

          Ground-State Mulliken Net Atomic Charges

     Atom                 Charge (a.u.)
  ----------------------------------------
      1 O                    -0.219604
      2 C                     0.216968
      3 C                    -0.080476
      4 C                    -0.083546
      5 C                     0.215296
      6 O                    -0.170998
      7 C                    -0.059254
      8 C                    -0.053214
      9 O                    -0.169407
     10 C                     0.218220
     11 C                    -0.080913
     12 C                    -0.077703
     13 C                     0.221346
     14 O                    -0.214818
     15 O                    -0.181246
     16 O                    -0.164480
     17 O                    -0.218946
     18 C                    -0.127854
     19 C                     0.026750
     20 C                    -0.144047
     21 C                    -0.143763
     22 C                     0.025123
     23 O                    -0.187654
     24 H                     0.087235
     25 H                     0.090102
     26 H                     0.089784
     27 H                     0.079935
     28 H                     0.075139
     29 H                     0.080166
     30 H                     0.074873
     31 H                     0.088221
     32 O                    -0.195284
     33 C                    -0.128809
     34 C                     0.024309
     35 C                    -0.144726
     36 C                    -0.144448
     37 C                     0.013552
     38 O                    -0.189956
     39 H                     0.078524
     40 H                     0.079665
     41 H                     0.091827
     42 H                     0.089206
     43 H                     0.075664
     44 H                     0.068632
     45 H                     0.075115
     46 H                     0.066006
     47 H                     0.100828
     48 H                     0.084960
     49 H                     0.083884
     50 H                     0.097048
     51 H                     0.093554
     52 H                     0.089493
     53 H                     0.089847
     54 H                     0.098131
     55 H                     0.085644
     56 H                     0.106101
  ----------------------------------------
  Sum of atomic charges =    -0.000000

                    Cartesian Multipole Moments
 -----------------------------------------------------------------
    Charge (ESU x 10^10)
                 0.0000
    Dipole Moment (Debye)
         X       5.8944      Y      -0.2611      Z      -3.8319
       Tot       7.0354
    Quadrupole Moments (Debye-Ang)
        XX    -165.8635     XY      -8.6411     YY    -161.4419
        XZ      11.7634     YZ       1.6476     ZZ    -154.2204

 Total job time:  104.29s(wall), 4973.68s(cpu)
        *  Thank you very much for using Q-Chem.  Have a nice day.  *
