 Q-Chem 5.0, Q-Chem, Inc., Pleasanton, CA (2017)
 Q-Chem 5.0.1 for Intel X86 EM64T Linux

User input:
--------------------------------------------------------------
$molecule
0  1
O -3.94934 -3.66094 2.70899
C -3.26408 -4.56952 2.26188
C -3.36658 -6.02376 2.66595
C -2.57813 -6.46456 3.91009
C -1.91791 -5.36653 4.71416
O -1.62819 -5.82061 5.96927
C -0.37412 -6.50686 6.0443
C -0.5781 -7.91642 6.58987
O 0.2301 -8.10949 7.76137
C 0.78825 -9.33889 7.8886
C 2.29278 -9.29225 8.01053
C 3.05337 -10.10817 6.95504
C 2.24582 -10.54477 5.74924
O 1.13969 -11.06399 5.78719
O -2.40013 -4.29667 1.24888
O 2.74068 -10.22225 4.52241
O 0.11699 -10.35089 8.03093
C 2.10326 -10.48307 3.32716
C 2.97912 -7.91313 7.82842
C 4.31116 -7.90442 8.57585
C 5.12343 -8.85183 7.7189
C 4.14207 -9.08865 6.56428
O 3.40253 -7.89397 6.48602
H 2.51378 -9.65334 9.04063
H 3.45175 -11.04632 7.39978
H 2.37053 -7.0464 8.16363
H 4.73124 -6.87848 8.46563
H 4.26597 -8.16242 9.65575
H 6.03498 -8.31615 7.37241
H 5.40497 -9.8103 8.20664
H 4.7057 -9.38093 5.65215
O -1.82195 -4.18459 4.4268
C -2.19465 -3.03964 0.72007
C -4.80413 -6.40176 3.05803
C -5.00726 -7.90973 2.92235
C -4.20806 -8.4048 4.1061
C -3.76045 -7.07284 4.7165
O -4.83134 -6.20311 4.44634
H -3.06705 -6.6192 1.77344
H -1.80738 -7.23682 3.69347
H -1.81834 -2.35104 1.50663
H -5.57471 -5.85766 2.46839
H -6.08431 -8.12421 3.10669
H -4.70998 -8.33067 1.93775
H -4.9033 -8.92417 4.80324
H -3.3517 -9.07007 3.86221
H -3.54315 -7.23242 5.79226
H -3.14153 -2.64335 0.29492
H -1.43916 -3.10458 -0.08955
H 2.73276 -10.11462 2.49147
H 1.12333 -9.96018 3.2944
H 1.95076 -11.57679 3.2056
H -1.62424 -7.98861 6.95547
H -0.46832 -8.69625 5.80162
H 0.23611 -5.92824 6.77115
H 0.21761 -6.53454 5.09893
$end

$opt
CONSTRAINT
tors           1           2           3           4     -85.263
tors           3           4           5           6    +161.053
tors           4           5           6           7     +85.263
tors           5           6           7           8    -123.158
tors           6           7           8           9    -123.158
tors           7           8           9          10    -142.105
tors           8           9          10          11    +123.158
tors           9          10          11          12    -123.158
tors          11          12          13          14     -47.368
ENDCONSTRAINT
$end

$rem
JOBTYPE                   OPT
METHOD                    B3LYP
DFT_D                     d3_op
BASIS                     STO-3G
GEOM_OPT_MAX_CYCLES       100
GEOM_OPT_TOL_GRADIENT     300
GEOM_OPT_TOL_DISPLACEMENT 1200
GEOM_OPT_TOL_ENERGY       100
SYMMETRY                  False
THRESH                    12
SCF_CONVERGENCE           8
MAX_SUB_FILE_NUM          128
MEM_STATIC                400
MEM_TOTAL                 4000
$end
--------------------------------------------------------------

   15   -1510.1038079983      6.46E-09 Convergence criterion met
 Total energy in the final basis set = -1510.10380800
   14   -1510.1757519130      4.62E-09 Convergence criterion met
 Total energy in the final basis set = -1510.17575191
   14   -1510.2140635065      5.73E-09 Convergence criterion met
 Total energy in the final basis set = -1510.21406351
   14   -1510.2304185344      1.95E-09 Convergence criterion met
 Total energy in the final basis set = -1510.23041853
   13   -1510.2352349252      7.41E-09 Convergence criterion met
 Total energy in the final basis set = -1510.23523493
   13   -1510.2365529423      2.89E-09 Convergence criterion met
 Total energy in the final basis set = -1510.23655294
   12   -1510.2369731598      5.17E-09 Convergence criterion met
 Total energy in the final basis set = -1510.23697316
   12   -1510.2371493399      4.74E-09 Convergence criterion met
   12   -1510.2376219848      9.65E-09 Convergence criterion met
 Total energy in the final basis set = -1510.23762198
   11   -1510.2376461733      4.80E-09 Convergence criterion met
 Total energy in the final basis set = -1510.23764617
   10   -1510.2376532308      7.13E-09 Convergence criterion met
 Total energy in the final basis set = -1510.23765323
   11   -1510.2376583121      5.09E-09 Convergence criterion met
 Total energy in the final basis set = -1510.23765831
    9   -1510.2376609947      7.74E-09 Convergence criterion met
 Total energy in the final basis set = -1510.23766099
    9   -1510.2376622503      3.47E-09 Convergence criterion met
 Total energy in the final basis set = -1510.23766225

             Standard Nuclear Orientation (Angstroms)
    I     Atom           X                Y                Z
 ----------------------------------------------------------------
    1      O      -5.7660244169     1.1890174165     0.5065902913
    2      C      -4.9865001540     1.0344221051    -0.4571217852
    3      C      -4.1663850552    -0.2554578815    -0.8286686160
    4      C      -2.7788607889    -0.3812198870    -0.0755801852
    5      C      -2.4177205630     0.8483091153     0.8423885160
    6      O      -1.3980857573     0.5351710982     1.8343295545
    7      C      -0.0541479334     0.7022652954     1.2275140009
    8      C       0.7644666284    -0.6463729850     1.3500186342
    9      O       2.0264245030    -0.3406716883     2.0733518469
   10      C       3.0985117730    -1.1202395805     1.4856682929
   11      C       4.2800062781    -0.2085278699     0.9816170355
   12      C       4.6220078051    -0.3936278566    -0.5570442416
   13      C       3.3481240334    -0.8091194216    -1.4002929891
   14      O       2.5082436175    -1.6988754203    -1.1355146495
   15      O      -4.7533282111     2.0143169011    -1.4790525702
   16      O       3.3031914020    -0.0479284095    -2.6106284645
   17      O       3.1046585809    -2.3685523509     1.4579061731
   18      C       2.1241932391    -0.4435492534    -3.4148154399
   19      C       4.1165500464     1.3676013443     1.0832937010
   20      C       5.5623628032     1.9514832141     1.3084808630
   21      C       6.2209262942     1.6117667027    -0.0813694511
   22      C       4.9719312024     1.1112180754    -0.9133446748
   23      O       3.8114230874     1.8086384559    -0.2994114831
   24      H       5.1688302603    -0.5172977568     1.5639563551
   25      H       5.4395844129    -1.1177111824    -0.7263083541
   26      H       3.3295860643     1.7003671039     1.7871735112
   27      H       5.5139444210     3.0399955460     1.4733286362
   28      H       6.0842471691     1.4840657119     2.1587516586
   29      H       6.6705634871     2.5009137593    -0.5505138485
   30      H       6.9930443343     0.8295915747     0.0008005570
   31      H       5.0144819706     1.3161853951    -1.9992650274
   32      O      -3.0135153139     1.9452523882     0.8428767439
   33      C      -5.4515105487     3.2717646611    -1.1307609120
   34      C      -4.8990143720    -1.5605380053    -0.2998161626
   35      C      -4.2471035725    -2.8245932434    -0.9900468567
   36      C      -2.8908826465    -2.9409832301    -0.1994612965
   37      C      -3.0058299788    -1.7057004990     0.7761750197
   38      O      -4.4460731646    -1.6569443430     1.1076155323
   39      H      -4.0232795043    -0.2706150966    -1.9233817045
   40      H      -1.9497341294    -0.5236536257    -0.7933891263
   41      H      -5.0406850560     3.7121554766    -0.1991492471
   42      H      -6.0041307340    -1.5116421207    -0.3444686902
   43      H      -4.8794229835    -3.7142222730    -0.8410072186
   44      H      -4.0973527069    -2.6747168918    -2.0712726640
   45      H      -2.8365521276    -3.8794911395     0.3747943438
   46      H      -2.0061497187    -2.8751741650    -0.8526538134
   47      H      -2.3888837160    -1.7537922614     1.6943199165
   48      H      -6.5406511809     3.1115303573    -0.9948744822
   49      H      -5.2798880311     3.9638328987    -1.9756217909
   50      H       2.1716835444     0.1610640398    -4.3390874211
   51      H       1.1766922331    -0.2284098466    -2.8798990742
   52      H       2.1468402563    -1.5222235309    -3.6719256406
   53      H       0.1513499383    -1.3758453741     1.9272192122
   54      H       0.9757936425    -1.0839455738     0.3494684579
   55      H       0.4927997869     1.4850638481     1.8002811756
   56      H      -0.1002032625     1.0289398792     0.1682485453
 ----------------------------------------------------------------

    8   -1510.2376629193      4.88E-09 Convergence criterion met
 Total energy in the final basis set = -1510.23766292
 Final energy is   -1510.23766291928
 **  OPTIMIZATION CONVERGED  **

                    Orbital Energies (a.u.)
 --------------------------------------------------------------

 Alpha MOs
 -- Occupied --
-18.949 -18.921 -18.915 -18.909 -18.906 -18.894 -18.889 -18.888
-18.887 -18.861 -10.115 -10.111 -10.106 -10.090 -10.076 -10.074
-10.067 -10.063 -10.062 -10.060 -10.058 -10.054 -10.049 -10.040
-10.039 -10.034 -10.025 -10.023 -10.021 -10.020  -1.026  -1.015
 -1.006  -0.997  -0.974  -0.970  -0.948  -0.945  -0.934  -0.924
 -0.768  -0.763  -0.729  -0.722  -0.714  -0.706  -0.696  -0.671
 -0.655  -0.609  -0.600  -0.584  -0.550  -0.546  -0.542  -0.538
 -0.519  -0.512  -0.490  -0.480  -0.472  -0.457  -0.455  -0.452
 -0.438  -0.433  -0.425  -0.418  -0.416  -0.407  -0.405  -0.400
 -0.390  -0.387  -0.384  -0.378  -0.362  -0.359  -0.354  -0.349
 -0.344  -0.343  -0.340  -0.335  -0.330  -0.329  -0.325  -0.318
 -0.313  -0.311  -0.308  -0.305  -0.297  -0.288  -0.282  -0.278
 -0.277  -0.265  -0.249  -0.247  -0.245  -0.238  -0.233  -0.191
 -0.168  -0.166  -0.165  -0.163  -0.160  -0.154  -0.147  -0.144
 -0.140

          Ground-State Mulliken Net Atomic Charges

     Atom                 Charge (a.u.)
  ----------------------------------------
      1 O                    -0.214215
      2 C                     0.212456
      3 C                    -0.081935
      4 C                    -0.083203
      5 C                     0.226327
      6 O                    -0.193362
      7 C                    -0.048951
      8 C                    -0.053841
      9 O                    -0.192013
     10 C                     0.217677
     11 C                    -0.083944
     12 C                    -0.074997
     13 C                     0.210422
     14 O                    -0.217615
     15 O                    -0.174383
     16 O                    -0.165884
     17 O                    -0.184841
     18 C                    -0.126758
     19 C                     0.020331
     20 C                    -0.141189
     21 C                    -0.146092
     22 C                     0.022363
     23 O                    -0.194891
     24 H                     0.083641
     25 H                     0.089868
     26 H                     0.091202
     27 H                     0.078679
     28 H                     0.074500
     29 H                     0.078839
     30 H                     0.073604
     31 H                     0.092632
     32 O                    -0.170554
     33 C                    -0.128659
     34 C                     0.026120
     35 C                    -0.144468
     36 C                    -0.143862
     37 C                     0.023630
     38 O                    -0.185816
     39 H                     0.083319
     40 H                     0.079157
     41 H                     0.092846
     42 H                     0.086442
     43 H                     0.078641
     44 H                     0.072702
     45 H                     0.079757
     46 H                     0.072709
     47 H                     0.089517
     48 H                     0.087278
     49 H                     0.086231
     50 H                     0.093736
     51 H                     0.086609
     52 H                     0.091688
     53 H                     0.085773
     54 H                     0.090131
     55 H                     0.092790
     56 H                     0.079857
  ----------------------------------------
  Sum of atomic charges =    -0.000000

                    Cartesian Multipole Moments
 -----------------------------------------------------------------
    Charge (ESU x 10^10)
                -0.0000
    Dipole Moment (Debye)
         X       3.4958      Y       0.0793      Z      -4.0253
       Tot       5.3320
    Quadrupole Moments (Debye-Ang)
        XX    -155.5003     XY       6.7353     YY    -163.8539
        XZ      11.5113     YZ       2.8942     ZZ    -160.0038

 Total job time:  82.17s(wall), 3912.03s(cpu)
        *  Thank you very much for using Q-Chem.  Have a nice day.  *
