 Q-Chem 5.0, Q-Chem, Inc., Pleasanton, CA (2017)
 Q-Chem 5.0.1 for Intel X86 EM64T Linux

User input:
--------------------------------------------------------------
$molecule
0  1
O -2.5377500365 1.9584159649 1.2652076372
C -2.4341082824 1.4066119944 0.1512272343
C -3.3609468336 0.3205742376 -0.4885534321
C -3.3366807932 -1.08059885 0.2654776986
C -2.2925492339 -1.2256962854 1.4496027288
O -1.1280660104 -2.016495027 1.1041890367
C -0.3027613827 -1.3440982315 0.0696274239
C 1.1701839845 -1.1579616089 0.6175164169
O 2.0311829818 -2.1657936148 -0.0339086551
C 3.1888002069 -1.7699383949 -0.7775528769
C 4.0508458203 -0.453855794 -0.5056617155
C 3.4811877773 1.0081281058 -0.7265261878
C 2.2077677054 1.2227526095 -1.6130877276
O 1.8789997185 2.3211355158 -2.1246548688
O -1.3565065858 1.6769873164 -0.7689420968
O 1.5508647257 -0.0037190208 -1.9104524838
O 3.6215188038 -2.623853123 -1.5882375016
C 0.3847954623 0.2409489078 -2.7987097766
C 4.4302234679 -0.3468868391 1.0414316936
C 5.6429214109 0.6533347169 1.2231011354
C 4.9192959741 2.0482691394 1.1021334866
C 3.4500090012 1.5864749869 0.7611720477
O 3.2844304233 0.395785478 1.6193826597
H 4.9509881562 -0.6013280159 -1.1273802992
H 4.2550706076 1.5782179007 -1.2745377988
H 4.5475408696 -1.3233932609 1.5504713998
H 6.1059208331 0.5218530428 2.2137364072
H 6.4147122729 0.5067354928 0.4506731554
H 4.9333489595 2.5921128744 2.0603663318
H 5.3519054078 2.6932763538 0.3210066969
H 2.6544746011 2.3311225557 0.9596464907
O -2.5172019755 -0.9253424224 2.6398837506
C -0.479817633 2.74721874 -0.2345664144
C -4.8888926693 0.7233862992 -0.3072589809
C -5.7673389821 -0.2037676109 -1.2376688175
C -5.7594507463 -1.5507164095 -0.4231898571
C -4.8349684489 -1.1585562028 0.7954400919
O -5.1948623066 0.2518107394 1.0602221118
H -3.0819925465 0.2066256209 -1.550748192
H -3.1295273076 -1.8901442726 -0.4566802257
H -0.0566416521 2.4616801149 0.7499018204
H -5.0880106436 1.808884708 -0.3967997973
H -6.7855397987 0.2049197923 -1.3353350767
H -5.3314796417 -0.3118066689 -2.2436812147
H -6.7689491232 -1.8145011798 -0.0696505376
H -5.3533113813 -2.3974644821 -0.9990239039
H -4.9639933162 -1.7673700424 1.7110505283
H -1.0367272015 3.6977366846 -0.1167093629
H 0.3356179005 2.8659313606 -0.9778327716
H -0.4250195674 0.7605122823 -2.2356074821
H 0.0434939696 -0.7575860801 -3.1261559515
H 0.6736469014 0.8486713202 -3.6786857594
H 1.5346898165 -0.1259903258 0.4911211334
H 1.1594633639 -1.3794011154 1.7082578236
H -0.7126079044 -0.3585699262 -0.2306715937
H -0.2525532835 -1.9947620097 -0.8311955059
$end

$rem
JOBTYPE                   OPT
METHOD                    B3LYP
DFT_D                     d3_op
BASIS                     STO-3G
GEOM_OPT_MAX_CYCLES       100
GEOM_OPT_TOL_GRADIENT     300
GEOM_OPT_TOL_DISPLACEMENT 1200
GEOM_OPT_TOL_ENERGY       100
SYMMETRY                  False
THRESH                    12
SCF_CONVERGENCE           8
MAX_SUB_FILE_NUM          128
MEM_STATIC                400
MEM_TOTAL                 4000
$end
--------------------------------------------------------------

   16   -1510.2461550576      6.22E-09 Convergence criterion met
 Total energy in the final basis set = -1510.24615506
   14   -1510.2460338373      6.99E-09 Convergence criterion met
 Total energy in the final basis set = -1510.24603384
   13   -1510.2487338174      7.93E-09 Convergence criterion met
 Total energy in the final basis set = -1510.24873382
   15   -1510.2321038038      4.93E-09 Convergence criterion met
 Total energy in the final basis set = -1510.23210380
   14   -1510.2213201832      5.76E-09 Convergence criterion met
 Total energy in the final basis set = -1510.22132018
   15   -1510.2406193585      4.46E-09 Convergence criterion met
 Total energy in the final basis set = -1510.24061936
   15   -1510.2457509223      1.98E-09 Convergence criterion met
 Total energy in the final basis set = -1510.24575092
   14   -1510.2533494957      3.45E-09 Convergence criterion met
   12   -1510.2730509344      5.01E-09 Convergence criterion met
 Total energy in the final basis set = -1510.27305093
   12   -1510.2731056959      7.89E-09 Convergence criterion met
 Total energy in the final basis set = -1510.27310570
   11   -1510.2731327803      8.60E-09 Convergence criterion met
 Total energy in the final basis set = -1510.27313278
   11   -1510.2731336218      5.24E-09 Convergence criterion met
 Total energy in the final basis set = -1510.27313362
   11   -1510.2731488777      5.18E-09 Convergence criterion met
 Total energy in the final basis set = -1510.27314888
   11   -1510.2731391382      3.72E-09 Convergence criterion met
 Total energy in the final basis set = -1510.27313914

             Standard Nuclear Orientation (Angstroms)
    I     Atom           X                Y                Z
 ----------------------------------------------------------------
    1      O      -2.7457593564     1.9399153990     1.9524690916
    2      C      -2.5210229700     1.5008786188     0.8062096694
    3      C      -3.4548255562     0.6462498423    -0.1173324418
    4      C      -3.3764604391    -0.9180883388     0.1746326691
    5      C      -2.4623219928    -1.3186855839     1.4045882672
    6      O      -1.0414958463    -1.4225100796     1.2399700508
    7      C      -0.4996479712    -1.0736183357    -0.0987902714
    8      C       1.0427047678    -1.2995002633     0.0488365737
    9      O       1.6022062073    -1.4420953239    -1.3183533248
   10      C       3.0353182785    -1.5569460777    -1.3599425090
   11      C       3.9730856605    -0.6646891999    -0.4303532314
   12      C       3.7936223722     0.9027534975    -0.6365087674
   13      C       2.5787504714     1.2844148584    -1.5512490349
   14      O       1.6029259579     2.0162683339    -1.2708949941
   15      O      -1.2933171668     1.7047646550     0.0904307577
   16      O       2.7811525613     0.6752639919    -2.8235216219
   17      O       3.5313353255    -2.2806956310    -2.2533216323
   18      C       1.5920308058     0.8730603702    -3.6854399947
   19      C       3.8443806126    -0.7647734214     1.1523652502
   20      C       5.1775039193    -0.2116599656     1.7881716729
   21      C       5.0037350230     1.3402719709     1.5792013527
   22      C       3.6069644026     1.3981795890     0.8531513866
   23      O       2.8552282886     0.2900845592     1.4976059157
   24      H       4.9928059960    -0.9617932952    -0.7330034372
   25      H       4.7040489035     1.3330972438    -1.0923527605
   26      H       3.5122465993    -1.7476427145     1.5374821747
   27      H       5.2275003934    -0.4713329001     2.8576101029
   28      H       6.0718225489    -0.6113187875     1.2841314038
   29      H       4.9588981605     1.8744566703     2.5415003681
   30      H       5.8070781195     1.7802015705     0.9667869447
   31      H       3.0466100112     2.3480162453     0.9516174870
   32      O      -2.9163550609    -1.5924255117     2.5379272458
   33      C      -0.2809698494     2.3796545094     0.9385543313
   34      C      -4.9907646634     0.9272635318     0.1650140977
   35      C      -5.8265094984     0.3701302853    -1.0543178650
   36      C      -5.7479315477    -1.1797463864    -0.7900164511
   37      C      -4.8921730150    -1.2202987654     0.5374286189
   38      O      -5.3184955190    -0.0042739642     1.2660277273
   39      H      -3.1815361830     0.8583131770    -1.1662916808
   40      H      -3.0614231358    -1.4688998094    -0.7285435215
   41      H      -0.0814061413     1.7974023571     1.8606978949
   42      H      -5.2158300467     1.9700861164     0.4610374347
   43      H      -6.8646487732     0.7355216072    -1.0073242607
   44      H      -5.3927370377     0.6597449097    -2.0246764014
   45      H      -6.7464696001    -1.6114354125    -0.6168658204
   46      H      -5.2644822819    -1.7286987697    -1.6139804260
   47      H      -5.0308957284    -2.1157058730     1.1734044640
   48      H      -0.6107690456     3.3990766383     1.2210217914
   49      H       0.6257058090     2.4178530602     0.2968453276
   50      H       0.7172142193     0.3303438266    -3.2724603507
   51      H       1.8587072921     0.4519143785    -4.6719048110
   52      H       1.3362549189     1.9469849819    -3.7883828592
   53      H       1.5322662923    -0.4679592419     0.6199640291
   54      H       1.1950949076    -2.2470123509     0.6126236851
   55      H      -0.7304694915    -0.0069645867    -0.3400410936
   56      H      -0.8975724102    -1.7460841134    -0.8900415228
 ----------------------------------------------------------------

    9   -1510.2731394690      5.15E-09 Convergence criterion met
 Total energy in the final basis set = -1510.27313947
 Final energy is   -1510.27313946904
 **  OPTIMIZATION CONVERGED  **

                    Orbital Energies (a.u.)
 --------------------------------------------------------------

 Alpha MOs
 -- Occupied --
-18.953 -18.936 -18.921 -18.921 -18.920 -18.898 -18.885 -18.880
-18.878 -18.864 -10.120 -10.102 -10.099 -10.090 -10.080 -10.079
-10.073 -10.058 -10.055 -10.055 -10.054 -10.049 -10.047 -10.047
-10.038 -10.037 -10.036 -10.035 -10.019 -10.017  -1.030  -1.011
 -1.003  -0.996  -0.995  -0.967  -0.954  -0.937  -0.935  -0.925
 -0.780  -0.761  -0.737  -0.721  -0.720  -0.702  -0.697  -0.673
 -0.656  -0.611  -0.596  -0.581  -0.566  -0.553  -0.546  -0.536
 -0.526  -0.507  -0.494  -0.481  -0.472  -0.459  -0.454  -0.451
 -0.446  -0.437  -0.428  -0.424  -0.419  -0.417  -0.411  -0.405
 -0.394  -0.386  -0.376  -0.375  -0.367  -0.361  -0.359  -0.356
 -0.349  -0.342  -0.336  -0.332  -0.328  -0.327  -0.325  -0.319
 -0.312  -0.307  -0.305  -0.302  -0.298  -0.293  -0.288  -0.281
 -0.274  -0.267  -0.260  -0.252  -0.238  -0.234  -0.230  -0.192
 -0.182  -0.180  -0.174  -0.159  -0.158  -0.153  -0.149  -0.140
 -0.137

          Ground-State Mulliken Net Atomic Charges

     Atom                 Charge (a.u.)
  ----------------------------------------
      1 O                    -0.200032
      2 C                     0.206964
      3 C                    -0.081509
      4 C                    -0.084046
      5 C                     0.202557
      6 O                    -0.175333
      7 C                    -0.065308
      8 C                    -0.070185
      9 O                    -0.185464
     10 C                     0.208265
     11 C                    -0.085288
     12 C                    -0.082052
     13 C                     0.217030
     14 O                    -0.211838
     15 O                    -0.173447
     16 O                    -0.163189
     17 O                    -0.196769
     18 C                    -0.126711
     19 C                     0.022999
     20 C                    -0.142149
     21 C                    -0.142465
     22 C                     0.024324
     23 O                    -0.183689
     24 H                     0.089874
     25 H                     0.091136
     26 H                     0.089746
     27 H                     0.083231
     28 H                     0.078719
     29 H                     0.082959
     30 H                     0.077509
     31 H                     0.091827
     32 O                    -0.200006
     33 C                    -0.143967
     34 C                     0.026122
     35 C                    -0.144021
     36 C                    -0.144795
     37 C                     0.026643
     38 O                    -0.183369
     39 H                     0.083440
     40 H                     0.078409
     41 H                     0.087559
     42 H                     0.085668
     43 H                     0.078193
     44 H                     0.071936
     45 H                     0.078414
     46 H                     0.071641
     47 H                     0.090320
     48 H                     0.083499
     49 H                     0.111437
     50 H                     0.096073
     51 H                     0.096479
     52 H                     0.092183
     53 H                     0.107945
     54 H                     0.074519
     55 H                     0.103765
     56 H                     0.074250
  ----------------------------------------
  Sum of atomic charges =    -0.000000

                    Cartesian Multipole Moments
 -----------------------------------------------------------------
    Charge (ESU x 10^10)
                -0.0000
    Dipole Moment (Debye)
         X       3.4075      Y       1.9062      Z      -3.1652
       Tot       5.0263
    Quadrupole Moments (Debye-Ang)
        XX    -148.5664     XY       8.6632     YY    -161.5761
        XZ      24.7463     YZ      -4.2640     ZZ    -171.1145

 Total job time:  172.70s(wall), 8240.77s(cpu)
        *  Thank you very much for using Q-Chem.  Have a nice day.  *
