 Q-Chem 5.0, Q-Chem, Inc., Pleasanton, CA (2017)
 Q-Chem 5.0.1 for Intel X86 EM64T Linux

User input:
--------------------------------------------------------------
$molecule
0  1
O -3.94934 -3.66094 2.70899
C -3.26408 -4.56952 2.26188
C -3.36658 -6.02376 2.66595
C -2.97353 -6.38153 4.10864
C -2.69204 -5.22192 5.03825
O -1.34516 -5.09296 5.22456
C -0.64647 -4.70859 4.03572
C 0.13651 -3.42251 4.27877
O 1.5338 -3.7206 4.4258
C 2.3608 -3.07886 3.56359
C 1.81799 -1.74433 3.1108
C 0.54838 -1.8202 2.25022
C -0.18225 -3.14784 2.26602
O -0.99277 -3.52083 1.43027
O -3.08579 -4.53121 0.90418
O 0.85122 -4.05511 1.9854
O 3.48885 -3.47995 3.32123
C 0.87221 -5.29566 1.34312
C 1.47399 -0.54663 4.03879
C 1.70421 0.76155 3.27245
C 0.55033 0.71475 2.27163
C -0.18675 -0.54769 2.74826
O 0.07022 -0.51473 4.13257
H 2.65545 -1.37495 2.47399
H 0.82917 -1.69861 1.17763
H 2.03756 -0.55952 4.9961
H 1.51742 1.59379 3.98866
H 2.71303 0.89533 2.82716
H -0.07963 1.61871 2.42476
H 0.84976 0.64257 1.20429
H -1.25402 -0.53839 2.43883
O -3.46841 -4.86968 5.91402
C -3.43703 -3.50319 0.03992
C -4.82136 -6.52497 2.62375
C -4.84767 -8.04518 2.47445
C -4.39764 -8.46957 3.85542
C -4.27148 -7.10413 4.54019
O -5.283 -6.33416 3.93758
H -2.74371 -6.61449 1.95461
H -2.12126 -7.09884 4.15844
H -3.85157 -2.61901 0.56703
H -5.42251 -6.04919 1.8177
H -5.90932 -8.35202 2.33784
H -4.23846 -8.4398 1.63296
H -5.2193 -9.0538 4.32685
H -3.452 -9.05234 3.89089
H -4.34357 -7.23201 5.64286
H -4.19524 -3.87812 -0.67673
H -2.54667 -3.17999 -0.53714
H 1.31345 -6.05224 2.02264
H 1.51525 -5.22378 0.44235
H -0.13335 -5.65008 1.03378
H -0.45593 -2.52818 4.49061
H 0.01393 -3.32753 5.37975
H -1.12479 -5.04537 3.12869
H 0.13294 -5.49829 3.98167
$end

$opt
CONSTRAINT
tors           1           2           3           4     -66.316
tors           3           4           5           6    -104.211
tors           4           5           6           7     +66.316
tors           5           6           7           8    +123.158
tors           6           7           8           9    +104.211
tors           7           8           9          10    +123.158
tors           8           9          10          11     +28.421
tors           9          10          11          12     -66.316
tors          11          12          13          14    -161.053
ENDCONSTRAINT
$end

$rem
JOBTYPE                   OPT
METHOD                    B3LYP
DFT_D                     d3_op
BASIS                     STO-3G
GEOM_OPT_MAX_CYCLES       100
GEOM_OPT_TOL_GRADIENT     300
GEOM_OPT_TOL_DISPLACEMENT 1200
GEOM_OPT_TOL_ENERGY       100
SYMMETRY                  False
THRESH                    12
SCF_CONVERGENCE           8
MAX_SUB_FILE_NUM          128
MEM_STATIC                400
MEM_TOTAL                 4000
$end
--------------------------------------------------------------

   16   -1509.8597608296      6.92E-09 Convergence criterion met
 Total energy in the final basis set = -1509.85976083
   16   -1509.9558368891      2.33E-09 Convergence criterion met
 Total energy in the final basis set = -1509.95583689
   14   -1510.0274814673      4.06E-09 Convergence criterion met
 Total energy in the final basis set = -1510.02748147
    2   -1510.0274814670      5.56E-09 Convergence criterion met
 Total energy in the final basis set = -1510.02748147
   15   -1510.0810680251      1.88E-09 Convergence criterion met
 Total energy in the final basis set = -1510.08106803
   15   -1510.1187693298      2.04E-09 Convergence criterion met
 Total energy in the final basis set = -1510.11876933
   14   -1510.1456657905      7.43E-09 Convergence criterion met
 Total energy in the final basis set = -1510.14566579
   14   -1510.1659824201      4.78E-09 Convergence criterion met
   11   -1510.2462482260      3.43E-09 Convergence criterion met
 Total energy in the final basis set = -1510.24624823
   11   -1510.2462584838      3.24E-09 Convergence criterion met
 Total energy in the final basis set = -1510.24625848
   10   -1510.2462640070      9.92E-09 Convergence criterion met
 Total energy in the final basis set = -1510.24626401
    9   -1510.2462672840      6.77E-09 Convergence criterion met
 Total energy in the final basis set = -1510.24626728
    9   -1510.2462691526      3.64E-09 Convergence criterion met
 Total energy in the final basis set = -1510.24626915
    9   -1510.2462703598      3.17E-09 Convergence criterion met
 Total energy in the final basis set = -1510.24627036

             Standard Nuclear Orientation (Angstroms)
    I     Atom           X                Y                Z
 ----------------------------------------------------------------
    1      O      -2.5377500365     1.9584159649     1.2652076372
    2      C      -2.4341082824     1.4066119944     0.1512272343
    3      C      -3.3609468336     0.3205742376    -0.4885534321
    4      C      -3.3366807932    -1.0805988500     0.2654776986
    5      C      -2.2925492339    -1.2256962854     1.4496027288
    6      O      -1.1280660104    -2.0164950270     1.1041890367
    7      C      -0.3027613827    -1.3440982315     0.0696274239
    8      C       1.1701839845    -1.1579616089     0.6175164169
    9      O       2.0311829818    -2.1657936148    -0.0339086551
   10      C       3.1888002069    -1.7699383949    -0.7775528769
   11      C       4.0508458203    -0.4538557940    -0.5056617155
   12      C       3.4811877773     1.0081281058    -0.7265261878
   13      C       2.2077677054     1.2227526095    -1.6130877276
   14      O       1.8789997185     2.3211355158    -2.1246548688
   15      O      -1.3565065858     1.6769873164    -0.7689420968
   16      O       1.5508647257    -0.0037190208    -1.9104524838
   17      O       3.6215188038    -2.6238531230    -1.5882375016
   18      C       0.3847954623     0.2409489078    -2.7987097766
   19      C       4.4302234679    -0.3468868391     1.0414316936
   20      C       5.6429214109     0.6533347169     1.2231011354
   21      C       4.9192959741     2.0482691394     1.1021334866
   22      C       3.4500090012     1.5864749869     0.7611720477
   23      O       3.2844304233     0.3957854780     1.6193826597
   24      H       4.9509881562    -0.6013280159    -1.1273802992
   25      H       4.2550706076     1.5782179007    -1.2745377988
   26      H       4.5475408696    -1.3233932609     1.5504713998
   27      H       6.1059208331     0.5218530428     2.2137364072
   28      H       6.4147122729     0.5067354928     0.4506731554
   29      H       4.9333489595     2.5921128744     2.0603663318
   30      H       5.3519054078     2.6932763538     0.3210066969
   31      H       2.6544746011     2.3311225557     0.9596464907
   32      O      -2.5172019755    -0.9253424224     2.6398837506
   33      C      -0.4798176330     2.7472187400    -0.2345664144
   34      C      -4.8888926693     0.7233862992    -0.3072589809
   35      C      -5.7673389821    -0.2037676109    -1.2376688175
   36      C      -5.7594507463    -1.5507164095    -0.4231898571
   37      C      -4.8349684489    -1.1585562028     0.7954400919
   38      O      -5.1948623066     0.2518107394     1.0602221118
   39      H      -3.0819925465     0.2066256209    -1.5507481920
   40      H      -3.1295273076    -1.8901442726    -0.4566802257
   41      H      -0.0566416521     2.4616801149     0.7499018204
   42      H      -5.0880106436     1.8088847080    -0.3967997973
   43      H      -6.7855397987     0.2049197923    -1.3353350767
   44      H      -5.3314796417    -0.3118066689    -2.2436812147
   45      H      -6.7689491232    -1.8145011798    -0.0696505376
   46      H      -5.3533113813    -2.3974644821    -0.9990239039
   47      H      -4.9639933162    -1.7673700424     1.7110505283
   48      H      -1.0367272015     3.6977366846    -0.1167093629
   49      H       0.3356179005     2.8659313606    -0.9778327716
   50      H      -0.4250195674     0.7605122823    -2.2356074821
   51      H       0.0434939696    -0.7575860801    -3.1261559515
   52      H       0.6736469014     0.8486713202    -3.6786857594
   53      H       1.5346898165    -0.1259903258     0.4911211334
   54      H       1.1594633639    -1.3794011154     1.7082578236
   55      H      -0.7126079044    -0.3585699262    -0.2306715937
   56      H      -0.2525532835    -1.9947620097    -0.8311955059
 ----------------------------------------------------------------

    9   -1510.2462709932      3.04E-09 Convergence criterion met
 Total energy in the final basis set = -1510.24627099
 Final energy is   -1510.24627099317
 **  OPTIMIZATION CONVERGED  **

                    Orbital Energies (a.u.)
 --------------------------------------------------------------

 Alpha MOs
 -- Occupied --
-18.954 -18.950 -18.921 -18.908 -18.903 -18.897 -18.895 -18.895
-18.887 -18.862 -10.117 -10.112 -10.104 -10.097 -10.076 -10.070
-10.067 -10.066 -10.066 -10.066 -10.065 -10.064 -10.050 -10.048
-10.043 -10.041 -10.031 -10.029 -10.026 -10.024  -1.029  -1.025
 -1.004  -0.997  -0.986  -0.976  -0.951  -0.950  -0.938  -0.925
 -0.773  -0.769  -0.730  -0.728  -0.716  -0.712  -0.700  -0.672
 -0.670  -0.610  -0.605  -0.590  -0.557  -0.555  -0.548  -0.544
 -0.527  -0.520  -0.494  -0.486  -0.476  -0.466  -0.459  -0.445
 -0.444  -0.437  -0.432  -0.424  -0.419  -0.415  -0.411  -0.404
 -0.399  -0.390  -0.385  -0.376  -0.370  -0.367  -0.361  -0.355
 -0.348  -0.347  -0.345  -0.338  -0.336  -0.330  -0.326  -0.320
 -0.317  -0.315  -0.312  -0.309  -0.304  -0.294  -0.288  -0.283
 -0.279  -0.269  -0.257  -0.248  -0.241  -0.238  -0.231  -0.195
 -0.191  -0.173  -0.169  -0.166  -0.159  -0.154  -0.152  -0.149
 -0.140

          Ground-State Mulliken Net Atomic Charges

     Atom                 Charge (a.u.)
  ----------------------------------------
      1 O                    -0.194427
      2 C                     0.205192
      3 C                    -0.081693
      4 C                    -0.084712
      5 C                     0.211504
      6 O                    -0.187797
      7 C                    -0.054682
      8 C                    -0.044058
      9 O                    -0.175112
     10 C                     0.211477
     11 C                    -0.083669
     12 C                    -0.087257
     13 C                     0.206957
     14 O                    -0.220133
     15 O                    -0.178468
     16 O                    -0.167368
     17 O                    -0.208284
     18 C                    -0.140852
     19 C                     0.022339
     20 C                    -0.144404
     21 C                    -0.141209
     22 C                     0.023088
     23 O                    -0.191305
     24 H                     0.090459
     25 H                     0.089242
     26 H                     0.087500
     27 H                     0.081213
     28 H                     0.076495
     29 H                     0.080816
     30 H                     0.076421
     31 H                     0.083918
     32 O                    -0.176129
     33 C                    -0.140980
     34 C                     0.027059
     35 C                    -0.144342
     36 C                    -0.143618
     37 C                     0.026875
     38 O                    -0.181766
     39 H                     0.083820
     40 H                     0.082438
     41 H                     0.085493
     42 H                     0.084749
     43 H                     0.079795
     44 H                     0.073370
     45 H                     0.080079
     46 H                     0.074379
     47 H                     0.089813
     48 H                     0.089595
     49 H                     0.104544
     50 H                     0.104861
     51 H                     0.089748
     52 H                     0.091675
     53 H                     0.093043
     54 H                     0.094838
     55 H                     0.083180
     56 H                     0.086293
  ----------------------------------------
  Sum of atomic charges =     0.000000

                    Cartesian Multipole Moments
 -----------------------------------------------------------------
    Charge (ESU x 10^10)
                -0.0000
    Dipole Moment (Debye)
         X       0.6443      Y       2.2010      Z      -2.9778
       Tot       3.7585
    Quadrupole Moments (Debye-Ang)
        XX    -146.4031     XY      14.4943     YY    -168.8603
        XZ      18.7067     YZ      -1.8300     ZZ    -170.0637

 Total job time:  133.83s(wall), 6385.83s(cpu)
        *  Thank you very much for using Q-Chem.  Have a nice day.  *
