 Q-Chem 5.0, Q-Chem, Inc., Pleasanton, CA (2017)
 Q-Chem 5.0.1 for Intel X86 EM64T Linux

User input:
--------------------------------------------------------------
$molecule
0  1
O -3.6716207262 -0.1323309225 2.0533241886
C -4.5738876811 0.225644598 1.2691611609
C -4.5806013249 0.2132152203 -0.3015394358
C -3.1690074317 0.3656075049 -0.991219252
C -2.0169071353 1.043331716 -0.1707320762
O -0.859268655 1.0490695813 -1.0344324007
C -0.0913244999 2.29652856 -0.8679896809
C 1.380020016 2.138113489 -1.4052418557
O 2.2537389672 1.1959150374 -0.6639920267
C 1.8381932435 -0.1656166642 -0.7629920198
C 2.7917267461 -1.1250823437 0.0363330329
C 4.3724226096 -1.0213918601 -0.1034604152
C 5.0486170848 0.3096251586 -0.5912471433
O 6.0473442571 0.3770681163 -1.3447253927
O -5.8587016962 0.7071758318 1.6934923989
O 4.5557653975 1.420990276 0.158319631
O 0.9032059184 -0.578408323 -1.4849009789
C 5.2778552576 2.6526994044 -0.2320122727
C 2.6114516345 -1.0775355001 1.6251818487
C 2.8626461132 -2.5401989737 2.1609080069
C 4.4098100529 -2.6756313732 1.9063056519
C 4.7783107941 -1.2125105984 1.4301488132
O 3.7973860079 -0.3454692937 2.1194360455
H 2.4916107713 -2.1287472436 -0.3159289732
H 4.7613154829 -1.8341540979 -0.7420757974
H 1.6792838488 -0.5930037774 1.9748684959
H 2.6255024482 -2.5979871384 3.2355687624
H 2.2689416718 -3.2973527625 1.6245435998
H 4.954812143 -2.9305105372 2.8288427335
H 4.6478623559 -3.4278231838 1.137158748
H 5.8116374901 -0.8917454573 1.6662935122
O -2.0703193032 1.6377342612 0.9255578363
C -5.936185551 0.6968445153 3.1720950397
C -4.9303501869 -1.2777489218 -0.7490839681
C -5.1397922935 -1.3392536704 -2.3152722401
C -3.6517888261 -1.3384443625 -2.8284503905
C -2.8757298295 -1.1270262952 -1.472203653
O -3.6396113616 -1.9708046277 -0.5253250393
H -5.3141591226 0.9523726989 -0.6673933088
H -3.2770858313 1.008392027 -1.8854124424
H -5.1496951996 1.3334324327 3.6264408255
H -5.7340330339 -1.7518781419 -0.1525518473
H -5.6686391737 -2.2629254149 -2.5985833105
H -5.7170802864 -0.4764668592 -2.6847053576
H -3.3808132473 -2.3089043066 -3.2743045215
H -3.447257608 -0.5415125135 -3.5607075906
H -1.8025171456 -1.4027020849 -1.4824805351
H -5.834453203 -0.3297191205 3.5800281802
H -6.9333760952 1.0990982053 3.4292716656
H 4.8941449504 3.4499511073 0.4305655299
H 5.0797568502 2.9231440872 -1.2895011774
H 6.3736952102 2.5477697679 -0.0958138046
H 1.3369302787 1.8530813803 -2.4804327096
H 1.888987669 3.1192328711 -1.3150110793
H -0.0752122753 2.6010068418 0.2022612998
H -0.5737856056 3.1141837071 -1.4520549685
$end

$rem
JOBTYPE                   OPT
METHOD                    B3LYP
DFT_D                     d3_op
BASIS                     STO-3G
GEOM_OPT_MAX_CYCLES       100
GEOM_OPT_TOL_GRADIENT     300
GEOM_OPT_TOL_DISPLACEMENT 1200
GEOM_OPT_TOL_ENERGY       100
SYMMETRY                  False
THRESH                    12
SCF_CONVERGENCE           8
MAX_SUB_FILE_NUM          128
MEM_STATIC                400
MEM_TOTAL                 4000
$end
--------------------------------------------------------------

   16   -1510.2550574485      6.50E-09 Convergence criterion met
 Total energy in the final basis set = -1510.25505745
   14   -1510.2616049345      9.10E-09 Convergence criterion met
 Total energy in the final basis set = -1510.26160493
   15   -1510.2675003258      2.22E-09 Convergence criterion met
 Total energy in the final basis set = -1510.26750033
   15   -1510.2728272519      2.78E-09 Convergence criterion met
 Total energy in the final basis set = -1510.27282725
   15   -1510.2766593303      3.40E-09 Convergence criterion met
 Total energy in the final basis set = -1510.27665933
   15   -1510.2703372075      3.37E-09 Convergence criterion met
 Total energy in the final basis set = -1510.27033721
   14   -1510.2808967512      5.81E-09 Convergence criterion met
 Total energy in the final basis set = -1510.28089675
   15   -1510.2802699776      7.18E-09 Convergence criterion met
   12   -1510.3062596732      8.49E-09 Convergence criterion met
 Total energy in the final basis set = -1510.30625967
   12   -1510.3064177418      6.52E-09 Convergence criterion met
 Total energy in the final basis set = -1510.30641774
   12   -1510.3064900348      7.05E-09 Convergence criterion met
 Total energy in the final basis set = -1510.30649003
   11   -1510.3065267194      5.61E-09 Convergence criterion met
 Total energy in the final basis set = -1510.30652672
   11   -1510.3065268574      6.42E-09 Convergence criterion met
 Total energy in the final basis set = -1510.30652686
    9   -1510.3065293261      8.34E-09 Convergence criterion met
 Total energy in the final basis set = -1510.30652933

             Standard Nuclear Orientation (Angstroms)
    I     Atom           X                Y                Z
 ----------------------------------------------------------------
    1      O       2.3039200013    -2.3511514109     0.0768905514
    2      C       3.0537612803    -1.3522623502     0.0023948647
    3      C       3.1498906025    -0.1684956325     1.0325008494
    4      C       2.5101033329     1.1911130729     0.5329138057
    5      C       1.9237245946     1.1015109964    -0.9156838153
    6      O       1.6700572932     2.4291669759    -1.3801282141
    7      C       1.0071514771     2.4218396290    -2.7091092019
    8      C      -0.5613521782     2.4940898198    -2.5655661322
    9      O      -1.0792676407     1.2027855443    -2.0653432205
   10      C      -1.0981100020     1.2046515713    -0.6287203732
   11      C      -1.1654092389    -0.2668288452    -0.0829158955
   12      C      -2.5096326799    -0.6175451990     0.6648671053
   13      C      -3.6120364414     0.4521340042     0.3801712935
   14      O      -3.5362986986     1.3957101928    -0.4414402472
   15      O       4.0841896462    -1.1882940035    -0.9783197740
   16      O      -4.7637802294     0.1750591757     1.1769959996
   17      O      -0.8896716847     2.2403473185     0.0535539271
   18      C      -5.8368930471     1.1521833449     0.8774226778
   19      C      -1.1329579322    -1.3910084770    -1.2057212804
   20      C      -0.6141983712    -2.7202225283    -0.5421058064
   21      C      -1.8367148003    -3.0850262321     0.3777858974
   22      C      -2.8885631033    -1.9829438894    -0.0532507897
   23      O      -2.5641523529    -1.6903751208    -1.4668564349
   24      H      -0.3025585783    -0.3668479987     0.6206951877
   25      H      -2.3779336324    -0.7388992518     1.7550095867
   26      H      -0.6166349140    -1.0845906563    -2.1344252071
   27      H      -0.4665995749    -3.4878545705    -1.3184815185
   28      H       0.3429284431    -2.5763169807    -0.0065893478
   29      H      -2.2224160450    -4.0949211472     0.1663672294
   30      H      -1.5973148158    -3.0172221559     1.4511635604
   31      H      -3.9520940841    -2.2728097632     0.0556632652
   32      O       1.6973690357     0.0590769943    -1.5731290225
   33      C       3.9660939022    -2.2470674321    -2.0062061713
   34      C       2.2599203140    -0.4768523699     2.3055892803
   35      C       2.6714740237     0.5103559407     3.4650321024
   36      C       2.0281670969     1.8594653359     2.9640934514
   37      C       1.3579863751     1.4031484853     1.6137511555
   38      O       0.9202240368     0.0170400303     1.9078238842
   39      H       4.2134213657    -0.0246615745     1.2939003311
   40      H       3.2356404006     2.0231776224     0.5625632415
   41      H       3.0096123399    -2.1568936205    -2.5609667919
   42      H       2.2111606304    -1.5499280924     2.5740417748
   43      H       2.2337726957     0.1848005216     4.4220692683
   44      H       3.7650368943     0.5775158044     3.5810331855
   45      H       1.2639374740     2.2268095116     3.6674612565
   46      H       2.7750127566     2.6536567317     2.8070742664
   47      H       0.4827379568     1.9877627993     1.2363154407
   48      H       4.0226050707    -3.2605353349    -1.5592170706
   49      H       4.8137788027    -2.0979761785    -2.6999801043
   50      H      -6.6801579647     0.8927187856     1.5435189861
   51      H      -6.1646235065     1.0847252689    -0.1801736729
   52      H      -5.5091112595     2.1923188078     1.0789508321
   53      H      -0.8372910077     3.3158671506    -1.8708895201
   54      H      -1.0155518823     2.6621644595    -3.5630891433
   55      H       1.2855843246     1.5021902891    -3.2670471137
   56      H       1.3758355188     3.3198283080    -3.2460702560
 ----------------------------------------------------------------

    9   -1510.3065291716      3.65E-09 Convergence criterion met
 Total energy in the final basis set = -1510.30652917
 Final energy is   -1510.30652917158
 **  OPTIMIZATION CONVERGED  **

                    Orbital Energies (a.u.)
 --------------------------------------------------------------

 Alpha MOs
 -- Occupied --
-18.941 -18.935 -18.928 -18.922 -18.897 -18.885 -18.876 -18.869
-18.866 -18.856 -10.107 -10.098 -10.095 -10.089 -10.073 -10.066
-10.063 -10.062 -10.058 -10.048 -10.045 -10.039 -10.037 -10.033
-10.024 -10.022 -10.019 -10.004 -10.001  -9.987  -1.021  -1.010
 -1.005  -0.997  -0.976  -0.951  -0.944  -0.934  -0.931  -0.924
 -0.765  -0.745  -0.725  -0.714  -0.703  -0.700  -0.683  -0.658
 -0.657  -0.615  -0.590  -0.572  -0.545  -0.539  -0.528  -0.517
 -0.511  -0.500  -0.485  -0.470  -0.463  -0.455  -0.449  -0.438
 -0.430  -0.427  -0.417  -0.414  -0.408  -0.406  -0.402  -0.395
 -0.391  -0.379  -0.368  -0.366  -0.358  -0.355  -0.351  -0.345
 -0.343  -0.340  -0.333  -0.328  -0.324  -0.316  -0.313  -0.306
 -0.305  -0.302  -0.293  -0.287  -0.282  -0.276  -0.273  -0.271
 -0.260  -0.255  -0.250  -0.248  -0.234  -0.233  -0.213  -0.191
 -0.176  -0.171  -0.164  -0.154  -0.152  -0.149  -0.149  -0.140
 -0.125

          Ground-State Mulliken Net Atomic Charges

     Atom                 Charge (a.u.)
  ----------------------------------------
      1 O                    -0.219032
      2 C                     0.219439
      3 C                    -0.082233
      4 C                    -0.080081
      5 C                     0.211714
      6 O                    -0.168744
      7 C                    -0.053496
      8 C                    -0.052229
      9 O                    -0.169128
     10 C                     0.216700
     11 C                    -0.099229
     12 C                    -0.078217
     13 C                     0.214628
     14 O                    -0.207466
     15 O                    -0.172937
     16 O                    -0.168240
     17 O                    -0.234663
     18 C                    -0.128126
     19 C                     0.021899
     20 C                    -0.152519
     21 C                    -0.144871
     22 C                     0.024145
     23 O                    -0.196608
     24 H                     0.112637
     25 H                     0.086676
     26 H                     0.090721
     27 H                     0.069536
     28 H                     0.096136
     29 H                     0.072461
     30 H                     0.071325
     31 H                     0.079219
     32 O                    -0.211270
     33 C                    -0.128252
     34 C                     0.025972
     35 C                    -0.143775
     36 C                    -0.143917
     37 C                     0.010694
     38 O                    -0.192373
     39 H                     0.085556
     40 H                     0.088273
     41 H                     0.093715
     42 H                     0.088768
     43 H                     0.078320
     44 H                     0.073780
     45 H                     0.079613
     46 H                     0.074379
     47 H                     0.114300
     48 H                     0.088492
     49 H                     0.087686
     50 H                     0.090719
     51 H                     0.090281
     52 H                     0.090481
     53 H                     0.102141
     54 H                     0.089818
     55 H                     0.097886
     56 H                     0.089296
  ----------------------------------------
  Sum of atomic charges =    -0.000000

                    Cartesian Multipole Moments
 -----------------------------------------------------------------
    Charge (ESU x 10^10)
                -0.0000
    Dipole Moment (Debye)
         X       1.8931      Y       1.1578      Z       0.8381
       Tot       2.3721
    Quadrupole Moments (Debye-Ang)
        XX    -145.7244     XY      -1.3477     YY    -159.1556
        XZ      -3.6779     YZ      -3.3974     ZZ    -151.7329

 Total job time:  226.04s(wall), 10781.63s(cpu)
        *  Thank you very much for using Q-Chem.  Have a nice day.  *
