 Q-Chem 5.0, Q-Chem, Inc., Pleasanton, CA (2017)
 Q-Chem 5.0.1 for Intel X86 EM64T Linux

User input:
--------------------------------------------------------------
$molecule
0  1
O -3.94934 -3.66094 2.70899
C -3.26408 -4.56952 2.26188
C -3.36658 -6.02376 2.66595
C -3.85957 -6.32399 4.09097
C -4.36389 -5.14454 4.89263
O -4.76543 -5.56188 6.12957
C -4.44273 -4.63268 7.16962
C -5.29738 -4.90642 8.40282
O -6.6766 -4.62867 8.1139
C -7.25801 -5.44799 7.20296
C -8.70562 -5.10535 6.94279
C -9.55484 -4.88337 8.20288
C -8.78413 -4.68266 9.49223
O -9.11008 -5.11651 10.58772
O -2.23314 -4.25854 1.4329
O -8.0719 -3.51512 9.56916
O -6.8306 -6.55413 6.89894
C -7.49403 -3.00096 10.71389
C -8.91888 -3.76701 6.20872
C -10.26321 -3.79491 5.48229
C -11.22119 -3.74377 6.65811
C -10.22877 -3.55064 7.8121
O -9.16702 -2.8322 7.22835
H -9.12317 -5.91986 6.30642
H -10.28658 -5.70323 8.37595
H -8.09661 -3.51845 5.50252
H -10.34174 -2.83816 4.91741
H -10.41825 -4.64352 4.78181
H -11.87486 -2.85153 6.53845
H -11.83979 -4.65516 6.80746
H -10.7251 -3.06629 8.68199
O -3.67218 -4.13138 4.8888
C -1.94682 -2.98309 0.99308
C -4.4886 -6.71478 1.85854
C -4.24736 -8.22277 1.81297
C -4.56763 -8.60065 3.24283
C -5.04914 -7.2495 3.78262
O -5.63266 -6.62048 2.67041
H -2.40863 -6.52758 2.40252
H -3.05855 -6.80929 4.69304
H -1.72204 -2.32128 1.8567
H -4.59233 -6.31763 0.82428
H -5.0303 -8.65524 1.14915
H -3.2462 -8.53965 1.44964
H -5.39748 -9.34187 3.23267
H -3.71212 -8.99338 3.8341
H -5.71626 -7.40668 4.65617
H -2.80657 -2.57447 0.42008
H -1.059 -3.01796 0.32896
H -6.97199 -2.05503 10.46303
H -6.75462 -3.72103 11.12447
H -8.27387 -2.78642 11.4753
H -5.1587 -5.94629 8.77386
H -4.97233 -4.21341 9.20744
H -4.68501 -3.57803 6.89387
H -3.36388 -4.72157 7.42686
$end

$opt
CONSTRAINT
tors           1           2           3           4     -28.421
tors           3           4           5           6    -180.000
tors           4           5           6           7    +142.105
tors           5           6           7           8    +161.053
tors           6           7           8           9     -66.316
tors           7           8           9          10     +66.316
tors           8           9          10          11    -180.000
tors           9          10          11          12     -47.368
tors          11          12          13          14    -142.105
ENDCONSTRAINT
$end

$rem
JOBTYPE                   OPT
METHOD                    B3LYP
DFT_D                     d3_op
BASIS                     STO-3G
GEOM_OPT_MAX_CYCLES       100
GEOM_OPT_TOL_GRADIENT     300
GEOM_OPT_TOL_DISPLACEMENT 1200
GEOM_OPT_TOL_ENERGY       100
SYMMETRY                  False
THRESH                    12
SCF_CONVERGENCE           8
MAX_SUB_FILE_NUM          128
MEM_STATIC                400
MEM_TOTAL                 4000
$end
--------------------------------------------------------------

   15   -1510.0811085354      8.61E-09 Convergence criterion met
 Total energy in the final basis set = -1510.08110854
   14   -1510.1581067062      5.23E-09 Convergence criterion met
 Total energy in the final basis set = -1510.15810671
   14   -1510.1998807876      7.85E-09 Convergence criterion met
 Total energy in the final basis set = -1510.19988079
   14   -1510.2243929587      8.12E-09 Convergence criterion met
 Total energy in the final basis set = -1510.22439296
   14   -1510.2364205268      8.50E-09 Convergence criterion met
 Total energy in the final basis set = -1510.23642053
   14   -1510.2434469263      4.00E-09 Convergence criterion met
 Total energy in the final basis set = -1510.24344693
   13   -1510.2479379196      4.43E-09 Convergence criterion met
 Total energy in the final basis set = -1510.24793792
   13   -1510.2506526245      9.43E-09 Convergence criterion met
   11   -1510.2550392401      9.01E-09 Convergence criterion met
 Total energy in the final basis set = -1510.25503924
   11   -1510.2550564416      4.28E-09 Convergence criterion met
 Total energy in the final basis set = -1510.25505644
   10   -1510.2550651743      9.02E-09 Convergence criterion met
 Total energy in the final basis set = -1510.25506517
    9   -1510.2550692863      7.34E-09 Convergence criterion met
 Total energy in the final basis set = -1510.25506929
    9   -1510.2550724411      8.81E-09 Convergence criterion met
 Total energy in the final basis set = -1510.25507244
   10   -1510.2550746866      2.68E-09 Convergence criterion met
 Total energy in the final basis set = -1510.25507469

             Standard Nuclear Orientation (Angstroms)
    I     Atom           X                Y                Z
 ----------------------------------------------------------------
    1      O      -3.6716207262    -0.1323309225     2.0533241886
    2      C      -4.5738876811     0.2256445980     1.2691611609
    3      C      -4.5806013249     0.2132152203    -0.3015394358
    4      C      -3.1690074317     0.3656075049    -0.9912192520
    5      C      -2.0169071353     1.0433317160    -0.1707320762
    6      O      -0.8592686550     1.0490695813    -1.0344324007
    7      C      -0.0913244999     2.2965285600    -0.8679896809
    8      C       1.3800200160     2.1381134890    -1.4052418557
    9      O       2.2537389672     1.1959150374    -0.6639920267
   10      C       1.8381932435    -0.1656166642    -0.7629920198
   11      C       2.7917267461    -1.1250823437     0.0363330329
   12      C       4.3724226096    -1.0213918601    -0.1034604152
   13      C       5.0486170848     0.3096251586    -0.5912471433
   14      O       6.0473442571     0.3770681163    -1.3447253927
   15      O      -5.8587016962     0.7071758318     1.6934923989
   16      O       4.5557653975     1.4209902760     0.1583196310
   17      O       0.9032059184    -0.5784083230    -1.4849009789
   18      C       5.2778552576     2.6526994044    -0.2320122727
   19      C       2.6114516345    -1.0775355001     1.6251818487
   20      C       2.8626461132    -2.5401989737     2.1609080069
   21      C       4.4098100529    -2.6756313732     1.9063056519
   22      C       4.7783107941    -1.2125105984     1.4301488132
   23      O       3.7973860079    -0.3454692937     2.1194360455
   24      H       2.4916107713    -2.1287472436    -0.3159289732
   25      H       4.7613154829    -1.8341540979    -0.7420757974
   26      H       1.6792838488    -0.5930037774     1.9748684959
   27      H       2.6255024482    -2.5979871384     3.2355687624
   28      H       2.2689416718    -3.2973527625     1.6245435998
   29      H       4.9548121430    -2.9305105372     2.8288427335
   30      H       4.6478623559    -3.4278231838     1.1371587480
   31      H       5.8116374901    -0.8917454573     1.6662935122
   32      O      -2.0703193032     1.6377342612     0.9255578363
   33      C      -5.9361855510     0.6968445153     3.1720950397
   34      C      -4.9303501869    -1.2777489218    -0.7490839681
   35      C      -5.1397922935    -1.3392536704    -2.3152722401
   36      C      -3.6517888261    -1.3384443625    -2.8284503905
   37      C      -2.8757298295    -1.1270262952    -1.4722036530
   38      O      -3.6396113616    -1.9708046277    -0.5253250393
   39      H      -5.3141591226     0.9523726989    -0.6673933088
   40      H      -3.2770858313     1.0083920270    -1.8854124424
   41      H      -5.1496951996     1.3334324327     3.6264408255
   42      H      -5.7340330339    -1.7518781419    -0.1525518473
   43      H      -5.6686391737    -2.2629254149    -2.5985833105
   44      H      -5.7170802864    -0.4764668592    -2.6847053576
   45      H      -3.3808132473    -2.3089043066    -3.2743045215
   46      H      -3.4472576080    -0.5415125135    -3.5607075906
   47      H      -1.8025171456    -1.4027020849    -1.4824805351
   48      H      -5.8344532030    -0.3297191205     3.5800281802
   49      H      -6.9333760952     1.0990982053     3.4292716656
   50      H       4.8941449504     3.4499511073     0.4305655299
   51      H       5.0797568502     2.9231440872    -1.2895011774
   52      H       6.3736952102     2.5477697679    -0.0958138046
   53      H       1.3369302787     1.8530813803    -2.4804327096
   54      H       1.8889876690     3.1192328711    -1.3150110793
   55      H      -0.0752122753     2.6010068418     0.2022612998
   56      H      -0.5737856056     3.1141837071    -1.4520549685
 ----------------------------------------------------------------

   10   -1510.2550757877      2.72E-09 Convergence criterion met
 Total energy in the final basis set = -1510.25507579
 Final energy is   -1510.25507578767
 **  OPTIMIZATION CONVERGED  **

                    Orbital Energies (a.u.)
 --------------------------------------------------------------

 Alpha MOs
 -- Occupied --
-18.933 -18.930 -18.925 -18.919 -18.886 -18.885 -18.882 -18.870
-18.869 -18.863 -10.099 -10.096 -10.091 -10.091 -10.078 -10.073
-10.059 -10.058 -10.058 -10.058 -10.056 -10.055 -10.035 -10.035
-10.034 -10.032 -10.019 -10.018 -10.016 -10.016  -1.012  -1.006
 -1.002  -0.999  -0.968  -0.968  -0.936  -0.934  -0.926  -0.926
 -0.760  -0.758  -0.724  -0.719  -0.714  -0.702  -0.695  -0.657
 -0.656  -0.615  -0.596  -0.580  -0.542  -0.539  -0.535  -0.534
 -0.514  -0.509  -0.481  -0.472  -0.463  -0.455  -0.448  -0.432
 -0.431  -0.426  -0.422  -0.410  -0.407  -0.406  -0.405  -0.402
 -0.394  -0.380  -0.367  -0.364  -0.358  -0.355  -0.345  -0.342
 -0.341  -0.337  -0.333  -0.331  -0.326  -0.325  -0.317  -0.311
 -0.308  -0.305  -0.301  -0.295  -0.294  -0.286  -0.281  -0.274
 -0.270  -0.252  -0.249  -0.240  -0.232  -0.231  -0.230  -0.181
 -0.171  -0.167  -0.163  -0.158  -0.146  -0.143  -0.141  -0.140
 -0.132

          Ground-State Mulliken Net Atomic Charges

     Atom                 Charge (a.u.)
  ----------------------------------------
      1 O                    -0.204067
      2 C                     0.211668
      3 C                    -0.079509
      4 C                    -0.078068
      5 C                     0.213819
      6 O                    -0.177295
      7 C                    -0.050596
      8 C                    -0.045945
      9 O                    -0.163440
     10 C                     0.206236
     11 C                    -0.080661
     12 C                    -0.078077
     13 C                     0.205792
     14 O                    -0.220383
     15 O                    -0.174401
     16 O                    -0.153456
     17 O                    -0.207262
     18 C                    -0.126534
     19 C                     0.026536
     20 C                    -0.141897
     21 C                    -0.145353
     22 C                     0.026372
     23 O                    -0.183981
     24 H                     0.084445
     25 H                     0.084661
     26 H                     0.086325
     27 H                     0.078488
     28 H                     0.075330
     29 H                     0.077873
     30 H                     0.073916
     31 H                     0.081804
     32 O                    -0.199893
     33 C                    -0.129193
     34 C                     0.025296
     35 C                    -0.145448
     36 C                    -0.141745
     37 C                     0.025639
     38 O                    -0.188910
     39 H                     0.085609
     40 H                     0.083278
     41 H                     0.090644
     42 H                     0.081838
     43 H                     0.077650
     44 H                     0.072987
     45 H                     0.078253
     46 H                     0.073702
     47 H                     0.097401
     48 H                     0.087041
     49 H                     0.087875
     50 H                     0.089880
     51 H                     0.084364
     52 H                     0.088641
     53 H                     0.087887
     54 H                     0.091403
     55 H                     0.094684
     56 H                     0.078777
  ----------------------------------------
  Sum of atomic charges =    -0.000000

                    Cartesian Multipole Moments
 -----------------------------------------------------------------
    Charge (ESU x 10^10)
                -0.0000
    Dipole Moment (Debye)
         X      -1.2900      Y       1.1722      Z      -1.4181
       Tot       2.2470
    Quadrupole Moments (Debye-Ang)
        XX    -152.6988     XY      -2.7193     YY    -149.5680
        XZ       6.2467     YZ      -5.6645     ZZ    -158.5686

 Total job time:  64.40s(wall), 3068.49s(cpu)
        *  Thank you very much for using Q-Chem.  Have a nice day.  *
