 Q-Chem 5.0, Q-Chem, Inc., Pleasanton, CA (2017)
 Q-Chem 5.0.1 for Intel X86 EM64T Linux

User input:
--------------------------------------------------------------
$molecule
0  1
O 1.523816099 -0.0039283169 -2.0809174118
C 1.7920000871 -0.9803654039 -1.3472442696
C 2.9202948858 -1.0250678768 -0.2639877684
C 3.8802563318 0.2229899323 -0.3248326668
C 3.241723256 1.5643073615 -0.8562009429
O 1.982074621 1.8142485265 -0.2151409056
C 1.1943102429 2.7849744148 -1.0168910405
C -0.1760634943 3.0111307748 -0.2519141608
O -0.3181778728 2.0359311803 0.8551466031
C -1.5341912687 1.2493009786 0.7349128333
C -1.5234880077 -0.0493883841 -0.1638374813
C -2.7341442588 -1.0139015404 0.1987632979
C -3.6787273628 -0.5136600408 1.3615534169
O -3.6900417766 -0.9494396577 2.5345705246
O 1.0230305123 -2.1756177897 -1.5952328231
O -4.7185297516 0.3088183802 0.8028994295
O -2.4683557228 1.5049351671 1.5315283098
C -5.6122403665 0.7758281257 1.8828178204
C -1.8422924846 0.2387325588 -1.7042300859
C -1.5166489126 -1.0534527907 -2.552351882
C -2.7331713102 -1.9771747715 -2.1867732759
C -3.5199444838 -1.0529199334 -1.1828279146
O -3.3195297745 0.3108739356 -1.727746947
H -0.540876283 -0.5408238378 -0.0472179763
H -2.3587409448 -2.01128208 0.4890009063
H -1.3983648856 1.1701765243 -2.1023160287
H -1.5076592875 -0.8009823296 -3.6238934793
H -0.5478855019 -1.5069343136 -2.2741294699
H -3.3535783765 -2.209805753 -3.0670576736
H -2.4205536349 -2.9230048335 -1.7160358655
H -4.5998948722 -1.270178363 -1.0801021743
O 3.7515628552 2.3112965119 -1.7204119611
C 1.2687214503 -3.3286172052 -0.7076831785
C 2.5317653958 -1.0564698148 1.2905526706
C 3.6834438739 -1.8699909855 1.999489914
C 4.8826863654 -0.8624430179 1.8287487712
C 4.1487146409 0.4082977191 1.2342387122
O 2.7714099732 0.315632404 1.7768734845
H 3.5225467303 -1.9250211086 -0.4853405105
H 4.7963909173 0.0216739507 -0.9067617505
H 0.6342895005 -4.1428000086 -1.1062626126
H 1.4967902758 -1.3699833884 1.5261471006
H 3.4391155897 -2.0269990244 3.0624577249
H 3.8710457263 -2.8480045466 1.5281354644
H 5.3530989327 -0.6220274567 2.7949368171
H 5.6586101441 -1.2424679373 1.144431162
H 4.6040653593 1.3805606866 1.5045064097
H 0.9693840867 -3.127988917 0.3404679309
H 2.3259897695 -3.661276835 -0.7256237796
H -6.4147351604 1.3537875078 1.3884218443
H -5.0720705377 1.4301174627 2.5976016741
H -6.0562294087 -0.0708634742 2.4460971454
H -0.1725212681 4.0240503312 0.2079154081
H -1.0171092061 2.9738291716 -0.973172126
H 1.0169945586 2.3570066008 -2.0273036645
H 1.7390057447 3.7463686777 -1.1352166674
$end

$rem
JOBTYPE                   OPT
METHOD                    B3LYP
DFT_D                     d3_op
BASIS                     STO-3G
GEOM_OPT_MAX_CYCLES       100
GEOM_OPT_TOL_GRADIENT     300
GEOM_OPT_TOL_DISPLACEMENT 1200
GEOM_OPT_TOL_ENERGY       100
SYMMETRY                  False
THRESH                    12
SCF_CONVERGENCE           8
MAX_SUB_FILE_NUM          128
MEM_STATIC                400
MEM_TOTAL                 4000
$end
--------------------------------------------------------------

   16   -1510.2436481652      6.03E-09 Convergence criterion met
 Total energy in the final basis set = -1510.24364817
   14   -1510.2399926735      4.87E-09 Convergence criterion met
 Total energy in the final basis set = -1510.23999267
   14   -1510.2447970336      5.92E-09 Convergence criterion met
 Total energy in the final basis set = -1510.24479703
   14   -1510.2492687303      6.39E-09 Convergence criterion met
 Total energy in the final basis set = -1510.24926873
   14   -1510.2480227088      7.09E-09 Convergence criterion met
 Total energy in the final basis set = -1510.24802271
   13   -1510.2566548434      7.27E-09 Convergence criterion met
 Total energy in the final basis set = -1510.25665484
   14   -1510.2607469930      6.86E-09 Convergence criterion met
 Total energy in the final basis set = -1510.26074699
   14   -1510.2646398650      6.06E-09 Convergence criterion met
   12   -1510.2864638797      4.31E-09 Convergence criterion met
 Total energy in the final basis set = -1510.28646388
   11   -1510.2864636929      6.31E-09 Convergence criterion met
 Total energy in the final basis set = -1510.28646369
   10   -1510.2864699838      9.79E-09 Convergence criterion met
 Total energy in the final basis set = -1510.28646998
    9   -1510.2864696514      5.15E-09 Convergence criterion met
 Total energy in the final basis set = -1510.28646965
    9   -1510.2864627644      4.01E-09 Convergence criterion met
 Total energy in the final basis set = -1510.28646276
    9   -1510.2864632354      4.71E-09 Convergence criterion met
 Total energy in the final basis set = -1510.28646324

             Standard Nuclear Orientation (Angstroms)
    I     Atom           X                Y                Z
 ----------------------------------------------------------------
    1      O       1.3571213552    -1.0604464798    -1.5985514326
    2      C       1.4042413051    -1.6576267521    -0.4920814980
    3      C       2.3620584840    -1.2473716733     0.6770397696
    4      C       3.3890697247    -0.1257073997     0.2438714468
    5      C       3.0204088711     0.6348431965    -1.0876226524
    6      O       1.9045726938     1.5063337862    -0.8233618192
    7      C       1.6656620930     2.4120021994    -1.9677878106
    8      C       0.1145287016     2.5086616066    -2.2049990109
    9      O      -0.5871182847     2.6784176213    -0.9107167356
   10      C      -0.9332954490     1.4475938685    -0.2587667215
   11      C      -1.2842792259     0.1920654707    -1.1401756384
   12      C      -1.8649293071    -0.9972949508    -0.2702468251
   13      C      -1.9681678295    -0.7030299297     1.2712659920
   14      O      -1.1946427293    -1.1545556981     2.1635269631
   15      O       0.5478286783    -2.7981515441    -0.3553595598
   16      O      -3.2050808013    -0.0628294566     1.5695143373
   17      O      -1.0643482574     1.4634595469     0.9893793945
   18      C      -3.2815249806     0.2387779757     3.0170712811
   19      C      -2.4960618325     0.4509578477    -2.1403319261
   20      C      -2.4878336691    -0.7115972613    -3.2096951232
   21      C      -3.0441876929    -1.9093787787    -2.3539975174
   22      C      -3.2778705231    -1.2078167032    -0.9569049391
   23      O      -3.6944559739     0.1656188697    -1.3221887557
   24      H      -0.3724135797    -0.1599471461    -1.6620143348
   25      H      -1.2086451717    -1.8799093717    -0.3907463544
   26      H      -2.5536482098     1.4768003721    -2.5523399684
   27      H      -3.1577198318    -0.4682159313    -4.0498244190
   28      H      -1.4773788312    -0.9045436962    -3.6042832826
   29      H      -3.9960508169    -2.2880348900    -2.7593610053
   30      H      -2.3311568658    -2.7461586954    -2.2818624443
   31      H      -4.0405603903    -1.6835300113    -0.3111510801
   32      O       3.6701287803     0.6295539274    -2.1560871164
   33      C       0.4137550394    -3.3443238195     1.0193843283
   34      C       1.6641855267    -0.5542148506     1.9481078192
   35      C       2.6363148539    -0.7983910595     3.1657155733
   36      C       3.8364439424     0.1449458838     2.7779926314
   37      C       3.2700158315     0.8566111307     1.4825835645
   38      O       1.8080603661     0.8937943250     1.7047576493
   39      H       2.9109426105    -2.1501204649     0.9982696029
   40      H       4.4045172998    -0.5407536350     0.1181760961
   41      H      -0.1318663981    -4.2982335918     0.8962086562
   42      H       0.5867483796    -0.8008017710     2.1049693779
   43      H       2.1584450267    -0.4735090793     4.1037414071
   44      H       2.9359930431    -1.8536918538     3.2686000296
   45      H       4.0429127199     0.8859561979     3.5659818412
   46      H       4.7630805068    -0.4132391977     2.5678646957
   47      H       3.6626327455     1.8746946381     1.2965684233
   48      H      -0.1912590050    -2.6366709690     1.6409062324
   49      H       1.3915910522    -3.5497050143     1.4934096323
   50      H      -4.2731743596     0.6992959749     3.1793202696
   51      H      -2.4849318287     0.9509451995     3.3141914877
   52      H      -3.1882532696    -0.6800198327     3.6312867651
   53      H      -0.1084962236     3.4216792048    -2.7952178002
   54      H      -0.2398417130     1.6292802347    -2.7739018891
   55      H       2.1916836376     2.0281147629    -2.8696454620
   56      H       2.0676368427     3.4166525441    -1.7144820823
 ----------------------------------------------------------------

    9   -1510.2864638125      2.93E-09 Convergence criterion met
 Total energy in the final basis set = -1510.28646381
 Final energy is   -1510.28646381248
 **  OPTIMIZATION CONVERGED  **

                    Orbital Energies (a.u.)
 --------------------------------------------------------------

 Alpha MOs
 -- Occupied --
-18.948 -18.934 -18.931 -18.920 -18.890 -18.884 -18.884 -18.882
-18.866 -18.862 -10.114 -10.103 -10.102 -10.093 -10.076 -10.064
-10.058 -10.058 -10.057 -10.056 -10.055 -10.043 -10.039 -10.035
-10.025 -10.023 -10.017 -10.017 -10.015 -10.015  -1.020  -1.011
 -1.005  -0.997  -0.967  -0.965  -0.948  -0.939  -0.931  -0.924
 -0.761  -0.757  -0.722  -0.717  -0.708  -0.702  -0.696  -0.665
 -0.655  -0.612  -0.596  -0.585  -0.543  -0.542  -0.535  -0.535
 -0.516  -0.513  -0.488  -0.483  -0.465  -0.460  -0.448  -0.446
 -0.431  -0.429  -0.424  -0.418  -0.413  -0.407  -0.404  -0.400
 -0.397  -0.394  -0.382  -0.371  -0.362  -0.357  -0.343  -0.342
 -0.337  -0.335  -0.334  -0.329  -0.326  -0.322  -0.317  -0.314
 -0.308  -0.305  -0.301  -0.299  -0.295  -0.282  -0.277  -0.275
 -0.267  -0.255  -0.248  -0.245  -0.234  -0.230  -0.225  -0.184
 -0.177  -0.170  -0.163  -0.159  -0.151  -0.147  -0.146  -0.140
 -0.136

          Ground-State Mulliken Net Atomic Charges

     Atom                 Charge (a.u.)
  ----------------------------------------
      1 O                    -0.206489
      2 C                     0.217769
      3 C                    -0.087250
      4 C                    -0.079179
      5 C                     0.215980
      6 O                    -0.174098
      7 C                    -0.054133
      8 C                    -0.047588
      9 O                    -0.167313
     10 C                     0.225468
     11 C                    -0.096375
     12 C                    -0.093743
     13 C                     0.227898
     14 O                    -0.240118
     15 O                    -0.168748
     16 O                    -0.161253
     17 O                    -0.189193
     18 C                    -0.126484
     19 C                     0.020775
     20 C                    -0.144247
     21 C                    -0.143959
     22 C                     0.025827
     23 O                    -0.187580
     24 H                     0.101531
     25 H                     0.096750
     26 H                     0.080490
     27 H                     0.076270
     28 H                     0.076392
     29 H                     0.076201
     30 H                     0.076917
     31 H                     0.084010
     32 O                    -0.222181
     33 C                    -0.145679
     34 C                     0.007917
     35 C                    -0.143273
     36 C                    -0.145739
     37 C                     0.027144
     38 O                    -0.181822
     39 H                     0.080185
     40 H                     0.083104
     41 H                     0.087749
     42 H                     0.110051
     43 H                     0.078803
     44 H                     0.067734
     45 H                     0.077602
     46 H                     0.071108
     47 H                     0.082777
     48 H                     0.114466
     49 H                     0.079514
     50 H                     0.090816
     51 H                     0.097513
     52 H                     0.086954
     53 H                     0.089980
     54 H                     0.088230
     55 H                     0.099976
     56 H                     0.082545
  ----------------------------------------
  Sum of atomic charges =    -0.000000

                    Cartesian Multipole Moments
 -----------------------------------------------------------------
    Charge (ESU x 10^10)
                -0.0000
    Dipole Moment (Debye)
         X       0.7038      Y      -2.1324      Z       0.4889
       Tot       2.2981
    Quadrupole Moments (Debye-Ang)
        XX    -160.2426     XY       2.3318     YY    -154.3472
        XZ       7.1775     YZ      -8.5873     ZZ    -155.3129

 Total job time:  208.39s(wall), 9777.70s(cpu)
        *  Thank you very much for using Q-Chem.  Have a nice day.  *
