 Q-Chem 5.0, Q-Chem, Inc., Pleasanton, CA (2017)
 Q-Chem 5.0.1 for Intel X86 EM64T Linux

User input:
--------------------------------------------------------------
$molecule
0  1
O -3.94934 -3.66094 2.70899
C -3.26408 -4.56952 2.26188
C -3.36658 -6.02376 2.66595
C -4.25419 -6.35572 3.87665
C -5.08044 -5.22016 4.4387
O -5.71835 -4.56431 3.42462
C -6.15997 -3.25311 3.792
C -6.86048 -2.58497 2.61344
O -6.67795 -3.37158 1.42567
C -6.10545 -2.72478 0.38019
C -4.59639 -2.73396 0.43766
C -3.89597 -2.43851 -0.89666
C -4.76704 -1.83719 -1.98125
O -5.20461 -2.43677 -2.95264
O -2.32714 -4.26628 1.31536
O -5.25238 -0.57142 -1.79906
O -6.79642 -2.48297 -0.59498
C -6.0904 0.08914 -2.67414
C -4.00936 -1.48313 1.25569
C -2.53301 -1.53156 1.69613
C -1.82771 -1.52978 0.36642
C -3.00935 -1.20923 -0.52955
O -3.88331 -0.47465 0.29478
H -4.48348 -3.80732 0.52874
H -3.31606 -3.29287 -1.31161
H -4.6019 -1.18947 2.13721
H -2.36242 -0.5325 2.16548
H -2.11507 -2.21489 2.45558
H -1.06175 -0.72269 0.38286
H -1.35437 -2.46689 0.02237
H -2.62725 -0.67396 -1.43055
O -5.04943 -4.8581 5.60853
C -1.41741 -5.08051 0.65624
C -4.03745 -6.88699 1.57825
C -3.64071 -8.35175 1.75948
C -4.45238 -8.71362 2.98662
C -5.19193 -7.39514 3.23155
O -5.39711 -6.88764 1.93514
H -2.33574 -6.36614 2.90377
H -3.68713 -6.8044 4.72339
H -0.39126 -4.71552 0.86639
H -3.81264 -6.5508 0.54313
H -4.03956 -8.92368 0.89144
H -2.54591 -8.5226 1.84436
H -5.1841 -9.50284 2.70303
H -3.86233 -9.04526 3.86817
H -6.10802 -7.57076 3.83788
H -1.5987 -5.01119 -0.43564
H -1.46338 -6.14758 0.93718
H -6.31604 1.09705 -2.26979
H -7.04269 -0.47084 -2.79041
H -5.59675 0.20215 -3.6629
H -7.95131 -2.64737 2.81688
H -6.66873 -1.49489 2.52887
H -5.32266 -2.60271 4.13137
H -6.86065 -3.28344 4.65793
$end

$opt
CONSTRAINT
tors           1           2           3           4      -9.474
tors           3           4           5           6     +47.368
tors           4           5           6           7    -161.053
tors           5           6           7           8    -180.000
tors           6           7           8           9      -9.474
tors           7           8           9          10    -123.158
tors           8           9          10          11     +85.263
tors           9          10          11          12    +161.053
tors          11          12          13          14    -104.211
ENDCONSTRAINT
$end

$rem
JOBTYPE                   OPT
METHOD                    B3LYP
DFT_D                     d3_op
BASIS                     STO-3G
GEOM_OPT_MAX_CYCLES       100
GEOM_OPT_TOL_GRADIENT     300
GEOM_OPT_TOL_DISPLACEMENT 1200
GEOM_OPT_TOL_ENERGY       100
SYMMETRY                  False
THRESH                    12
SCF_CONVERGENCE           8
MAX_SUB_FILE_NUM          128
MEM_STATIC                400
MEM_TOTAL                 4000
$end
--------------------------------------------------------------

   15   -1510.0447309786      8.18E-09 Convergence criterion met
 Total energy in the final basis set = -1510.04473098
   15   -1510.1196921334      2.97E-09 Convergence criterion met
 Total energy in the final basis set = -1510.11969213
   14   -1510.1729371574      6.58E-09 Convergence criterion met
 Total energy in the final basis set = -1510.17293716
   14   -1510.2001766312      6.03E-09 Convergence criterion met
 Total energy in the final basis set = -1510.20017663
   14   -1510.2156933056      7.66E-09 Convergence criterion met
 Total energy in the final basis set = -1510.21569331
   14   -1510.2257949311      4.08E-09 Convergence criterion met
 Total energy in the final basis set = -1510.22579493
   13   -1510.2314788913      5.48E-09 Convergence criterion met
 Total energy in the final basis set = -1510.23147889
   13   -1510.2351183958      3.86E-09 Convergence criterion met
   11   -1510.2435858656      3.01E-09 Convergence criterion met
 Total energy in the final basis set = -1510.24358587
    9   -1510.2435907361      8.32E-09 Convergence criterion met
 Total energy in the final basis set = -1510.24359074
    9   -1510.2435945642      7.71E-09 Convergence criterion met
 Total energy in the final basis set = -1510.24359456
    9   -1510.2435984075      6.39E-09 Convergence criterion met
 Total energy in the final basis set = -1510.24359841
    9   -1510.2436010254      7.58E-09 Convergence criterion met
 Total energy in the final basis set = -1510.24360103
    9   -1510.2436020764      6.37E-09 Convergence criterion met
 Total energy in the final basis set = -1510.24360208

             Standard Nuclear Orientation (Angstroms)
    I     Atom           X                Y                Z
 ----------------------------------------------------------------
    1      O       1.5238160990    -0.0039283169    -2.0809174118
    2      C       1.7920000871    -0.9803654039    -1.3472442696
    3      C       2.9202948858    -1.0250678768    -0.2639877684
    4      C       3.8802563318     0.2229899323    -0.3248326668
    5      C       3.2417232560     1.5643073615    -0.8562009429
    6      O       1.9820746210     1.8142485265    -0.2151409056
    7      C       1.1943102429     2.7849744148    -1.0168910405
    8      C      -0.1760634943     3.0111307748    -0.2519141608
    9      O      -0.3181778728     2.0359311803     0.8551466031
   10      C      -1.5341912687     1.2493009786     0.7349128333
   11      C      -1.5234880077    -0.0493883841    -0.1638374813
   12      C      -2.7341442588    -1.0139015404     0.1987632979
   13      C      -3.6787273628    -0.5136600408     1.3615534169
   14      O      -3.6900417766    -0.9494396577     2.5345705246
   15      O       1.0230305123    -2.1756177897    -1.5952328231
   16      O      -4.7185297516     0.3088183802     0.8028994295
   17      O      -2.4683557228     1.5049351671     1.5315283098
   18      C      -5.6122403665     0.7758281257     1.8828178204
   19      C      -1.8422924846     0.2387325588    -1.7042300859
   20      C      -1.5166489126    -1.0534527907    -2.5523518820
   21      C      -2.7331713102    -1.9771747715    -2.1867732759
   22      C      -3.5199444838    -1.0529199334    -1.1828279146
   23      O      -3.3195297745     0.3108739356    -1.7277469470
   24      H      -0.5408762830    -0.5408238378    -0.0472179763
   25      H      -2.3587409448    -2.0112820800     0.4890009063
   26      H      -1.3983648856     1.1701765243    -2.1023160287
   27      H      -1.5076592875    -0.8009823296    -3.6238934793
   28      H      -0.5478855019    -1.5069343136    -2.2741294699
   29      H      -3.3535783765    -2.2098057530    -3.0670576736
   30      H      -2.4205536349    -2.9230048335    -1.7160358655
   31      H      -4.5998948722    -1.2701783630    -1.0801021743
   32      O       3.7515628552     2.3112965119    -1.7204119611
   33      C       1.2687214503    -3.3286172052    -0.7076831785
   34      C       2.5317653958    -1.0564698148     1.2905526706
   35      C       3.6834438739    -1.8699909855     1.9994899140
   36      C       4.8826863654    -0.8624430179     1.8287487712
   37      C       4.1487146409     0.4082977191     1.2342387122
   38      O       2.7714099732     0.3156324040     1.7768734845
   39      H       3.5225467303    -1.9250211086    -0.4853405105
   40      H       4.7963909173     0.0216739507    -0.9067617505
   41      H       0.6342895005    -4.1428000086    -1.1062626126
   42      H       1.4967902758    -1.3699833884     1.5261471006
   43      H       3.4391155897    -2.0269990244     3.0624577249
   44      H       3.8710457263    -2.8480045466     1.5281354644
   45      H       5.3530989327    -0.6220274567     2.7949368171
   46      H       5.6586101441    -1.2424679373     1.1444311620
   47      H       4.6040653593     1.3805606866     1.5045064097
   48      H       0.9693840867    -3.1279889170     0.3404679309
   49      H       2.3259897695    -3.6612768350    -0.7256237796
   50      H      -6.4147351604     1.3537875078     1.3884218443
   51      H      -5.0720705377     1.4301174627     2.5976016741
   52      H      -6.0562294087    -0.0708634742     2.4460971454
   53      H      -0.1725212681     4.0240503312     0.2079154081
   54      H      -1.0171092061     2.9738291716    -0.9731721260
   55      H       1.0169945586     2.3570066008    -2.0273036645
   56      H       1.7390057447     3.7463686777    -1.1352166674
 ----------------------------------------------------------------

    8   -1510.2436019822      9.23E-09 Convergence criterion met
 Total energy in the final basis set = -1510.24360198
 Final energy is   -1510.24360198225
 **  OPTIMIZATION CONVERGED  **

                    Orbital Energies (a.u.)
 --------------------------------------------------------------

 Alpha MOs
 -- Occupied --
-18.961 -18.924 -18.909 -18.908 -18.906 -18.901 -18.900 -18.879
-18.869 -18.846 -10.123 -10.107 -10.096 -10.092 -10.082 -10.076
-10.074 -10.069 -10.064 -10.054 -10.053 -10.050 -10.045 -10.045
-10.035 -10.033 -10.030 -10.026 -10.008  -9.995  -1.029  -1.010
 -1.003  -0.986  -0.981  -0.962  -0.959  -0.939  -0.924  -0.913
 -0.775  -0.752  -0.734  -0.716  -0.711  -0.701  -0.696  -0.687
 -0.643  -0.620  -0.596  -0.580  -0.559  -0.548  -0.536  -0.527
 -0.526  -0.511  -0.495  -0.480  -0.469  -0.458  -0.451  -0.446
 -0.442  -0.438  -0.431  -0.429  -0.414  -0.410  -0.410  -0.398
 -0.394  -0.386  -0.376  -0.370  -0.358  -0.356  -0.352  -0.345
 -0.343  -0.339  -0.338  -0.331  -0.330  -0.325  -0.323  -0.320
 -0.317  -0.313  -0.302  -0.295  -0.294  -0.289  -0.282  -0.272
 -0.267  -0.258  -0.249  -0.244  -0.236  -0.232  -0.225  -0.196
 -0.173  -0.165  -0.160  -0.155  -0.153  -0.151  -0.145  -0.137
 -0.130

          Ground-State Mulliken Net Atomic Charges

     Atom                 Charge (a.u.)
  ----------------------------------------
      1 O                    -0.194182
      2 C                     0.215379
      3 C                    -0.086386
      4 C                    -0.077078
      5 C                     0.212840
      6 O                    -0.163518
      7 C                    -0.049146
      8 C                    -0.044639
      9 O                    -0.180242
     10 C                     0.222304
     11 C                    -0.081505
     12 C                    -0.082080
     13 C                     0.212951
     14 O                    -0.228670
     15 O                    -0.166440
     16 O                    -0.172686
     17 O                    -0.170229
     18 C                    -0.127421
     19 C                     0.024035
     20 C                    -0.160172
     21 C                    -0.145661
     22 C                     0.026104
     23 O                    -0.189854
     24 H                     0.081644
     25 H                     0.078147
     26 H                     0.076376
     27 H                     0.071891
     28 H                     0.097822
     29 H                     0.074016
     30 H                     0.066851
     31 H                     0.086215
     32 O                    -0.214561
     33 C                    -0.127094
     34 C                     0.026782
     35 C                    -0.141898
     36 C                    -0.145613
     37 C                     0.025491
     38 O                    -0.176128
     39 H                     0.080544
     40 H                     0.086690
     41 H                     0.100211
     42 H                     0.082093
     43 H                     0.081592
     44 H                     0.070199
     45 H                     0.081289
     46 H                     0.074297
     47 H                     0.086476
     48 H                     0.088012
     49 H                     0.086659
     50 H                     0.085360
     51 H                     0.089727
     52 H                     0.084198
     53 H                     0.086004
     54 H                     0.085019
     55 H                     0.090615
     56 H                     0.087370
  ----------------------------------------
  Sum of atomic charges =    -0.000000

                    Cartesian Multipole Moments
 -----------------------------------------------------------------
    Charge (ESU x 10^10)
                 0.0000
    Dipole Moment (Debye)
         X       3.2287      Y      -3.6320      Z      -0.4517
       Tot       4.8806
    Quadrupole Moments (Debye-Ang)
        XX    -155.8646     XY     -10.3810     YY    -147.9937
        XZ       8.0481     YZ       1.1583     ZZ    -173.2602

 Total job time:  93.71s(wall), 4471.17s(cpu)
        *  Thank you very much for using Q-Chem.  Have a nice day.  *
