 Q-Chem 5.0, Q-Chem, Inc., Pleasanton, CA (2017)
 Q-Chem 5.0.1 for Intel X86 EM64T Linux

User input:
--------------------------------------------------------------
$molecule
0  1
O 1.1739280321 -1.230990247 -2.1271289247
C 1.6333732639 -1.695875787 -1.0796143556
C 2.9788863874 -1.3485138393 -0.3163050001
C 3.6450378565 0.0938363767 -0.4168534427
C 2.826314772 1.3809659063 -0.8527376519
O 1.7239053412 1.1253411329 -1.7196799795
C 1.0029132162 2.3776359739 -2.0868047066
C -0.4001377379 1.8445824357 -2.5883603982
O -0.5910534588 0.5775592446 -1.8329637495
C -1.944392146 0.2711917883 -1.3710195361
C -2.5355606106 1.2414674639 -0.2704644811
C -3.389745855 0.5464907198 0.8683448209
C -3.48057295 -1.0322659116 0.8463800674
O -3.1578656292 -1.8138873116 1.7646536714
O 0.9005392725 -2.6947512007 -0.3368215495
O -4.218208884 -1.4339475041 -0.3144543023
O -2.4052628973 -0.8517439531 -1.6413659022
C -4.3318220551 -2.9152067365 -0.3186901818
C -1.3757154592 1.9191571625 0.5882118396
C -1.9496235926 3.232804065 1.2438370266
C -2.9212590968 2.6122788599 2.3262523727
C -2.6333435287 1.0646289123 2.1622196297
O -1.2137794925 1.0069147393 1.7438981546
H -3.1470502427 2.0255230098 -0.7585499917
H -4.4277598057 0.9205306412 0.8300352722
H -0.4096216417 1.9962057173 0.0511546982
H -1.1375207214 3.8104066368 1.7130737384
H -2.4739630202 3.8773229086 0.5217083609
H -2.6766433102 2.9518835203 3.3442492294
H -3.9767022754 2.8498420461 2.1214031556
H -2.7880583486 0.4340039824 3.0590036118
O 3.1026674581 2.5307517238 -0.4386462882
C -0.3929591619 -2.9699208736 -1.0331367627
C 2.9285454164 -1.5566589199 1.268022036
C 4.3668155124 -2.0079701195 1.733593959
C 5.1704662408 -0.6652433775 1.5511290419
C 4.0248342701 0.3268904289 1.114666728
O 2.8186471074 -0.1836160628 1.8129493275
H 3.7146905238 -2.0616435056 -0.7366568573
H 4.5488568968 0.037248039 -1.0519705222
H -0.2269091586 -3.3360819251 -2.0649508024
H 2.0785861434 -2.1793985962 1.6029915996
H 4.351837347 -2.3346431358 2.7854863176
H 4.7652943559 -2.8274238525 1.1143325448
H 5.6297459006 -0.3312625838 2.4950171171
H 5.959983862 -0.7479272606 0.7879779593
H 4.1779353789 1.3972239213 1.3549956896
H -1.0457210622 -2.063131231 -1.0895414664
H -0.8996032137 -3.7538609433 -0.4393636228
H -4.9286592053 -3.1570555532 -1.2157524399
H -4.8507834283 -3.2870061433 0.587904084
H -3.3389393423 -3.4095171226 -0.3882374156
H -1.1906095276 2.600780939 -2.3945593393
H -0.3845268903 1.635250074 -3.679877077
H 1.5394714132 2.9277946251 -2.8904516775
H 0.9051540152 3.0546346607 -1.2121469323
$end

$rem
JOBTYPE                   OPT
METHOD                    B3LYP
DFT_D                     d3_op
BASIS                     STO-3G
GEOM_OPT_MAX_CYCLES       100
GEOM_OPT_TOL_GRADIENT     300
GEOM_OPT_TOL_DISPLACEMENT 1200
GEOM_OPT_TOL_ENERGY       100
SYMMETRY                  False
THRESH                    12
SCF_CONVERGENCE           8
MAX_SUB_FILE_NUM          128
MEM_STATIC                400
MEM_TOTAL                 4000
$end
--------------------------------------------------------------

   16   -1510.2341572614      5.06E-09 Convergence criterion met
 Total energy in the final basis set = -1510.23415726
   15   -1510.2377336977      5.18E-09 Convergence criterion met
 Total energy in the final basis set = -1510.23773370
   13   -1510.2443801732      9.67E-09 Convergence criterion met
 Total energy in the final basis set = -1510.24438017
   14   -1510.2489757690      3.73E-09 Convergence criterion met
 Total energy in the final basis set = -1510.24897577
   14   -1510.2506746136      8.74E-09 Convergence criterion met
 Total energy in the final basis set = -1510.25067461
   13   -1510.2547877394      6.10E-09 Convergence criterion met
 Total energy in the final basis set = -1510.25478774
   14   -1510.2577017470      3.58E-09 Convergence criterion met
 Total energy in the final basis set = -1510.25770175
   13   -1510.2597322995      4.83E-09 Convergence criterion met
   12   -1510.2816573889      3.75E-09 Convergence criterion met
 Total energy in the final basis set = -1510.28165739
   12   -1510.2816521923      3.59E-09 Convergence criterion met
 Total energy in the final basis set = -1510.28165219
   11   -1510.2816571067      5.75E-09 Convergence criterion met
 Total energy in the final basis set = -1510.28165711
   11   -1510.2816536874      4.67E-09 Convergence criterion met
 Total energy in the final basis set = -1510.28165369
    9   -1510.2816508586      9.62E-09 Convergence criterion met
 Total energy in the final basis set = -1510.28165086
    9   -1510.2816498282      5.60E-09 Convergence criterion met
 Total energy in the final basis set = -1510.28164983

             Standard Nuclear Orientation (Angstroms)
    I     Atom           X                Y                Z
 ----------------------------------------------------------------
    1      O       0.8267686881    -0.4408752828    -0.7187907381
    2      C       1.6124088083    -1.3973914461    -0.5305007041
    3      C       3.1516308837    -1.4077036910    -0.8592214959
    4      C       3.9026517565    -0.0864019181    -0.3931556718
    5      C       2.9909505595     0.9078554055     0.4046748027
    6      O       2.6054660856     1.9703016611    -0.4856982397
    7      C       1.6862631200     2.9052596748     0.1979516555
    8      C       0.1881276441     2.4745870225     0.0161412192
    9      O      -0.0715263821     1.4013026986     1.0047631852
   10      C      -1.3425047715     0.7592065034     0.8881799069
   11      C      -2.4688050383     1.4341263222     0.0235424716
   12      C      -3.7794979511     0.5529149399    -0.0831403160
   13      C      -3.8171452414    -0.7131304228     0.8576288730
   14      O      -4.3190236720    -0.7827845026     1.9995288862
   15      O       1.2246309827    -2.6641817767    -0.0125664371
   16      O      -3.3641249259    -1.8525660624     0.1060200152
   17      O      -1.5074255366    -0.3073640040     1.5323338712
   18      C      -3.4736777312    -3.0650382090     0.9478879544
   19      C      -3.0555149382     2.7634123394     0.6905864426
   20      C      -3.7660392827     3.5918696386    -0.4501937227
   21      C      -5.0533019972     2.7168856464    -0.6901652970
   22      C      -4.8719918311     1.5905380786     0.4037635827
   23      O      -4.1809888518     2.2825936825     1.5164059237
   24      H      -2.0717834148     1.6456809734    -0.9839024603
   25      H      -3.9417902985     0.2181868067    -1.1229187452
   26      H      -2.3418070145     3.3293052177     1.3192739664
   27      H      -4.0250768064     4.5996709068    -0.0878713536
   28      H      -3.1401926330     3.6897571661    -1.3518060761
   29      H      -5.9739034425     3.2928049364    -0.5052617815
   30      H      -5.0967031035     2.2983984824    -1.7085651922
   31      H      -5.8082709725     1.1247418836     0.7666107074
   32      O       2.6805764994     0.8564621798     1.6128094829
   33      C      -0.2304887468    -2.6861190073     0.2726582723
   34      C       3.9711022596    -2.5164258634    -0.0754192654
   35      C       5.3614397090    -2.7089874534    -0.7994409449
   36      C       6.1147939386    -1.3985484185    -0.3623505685
   37      C       5.0227195949    -0.7066693456     0.5458388601
   38      O       4.3323773867    -1.8445030229     1.1939250974
   39      H       3.2539542584    -1.5384965078    -1.9529884637
   40      H       4.3279575276     0.4537063940    -1.2570627316
   41      H      -0.8195180435    -2.6876759460    -0.6672178001
   42      H       3.3964398455    -3.4411113947     0.1227598237
   43      H       5.8686329119    -3.6106064485    -0.4209095875
   44      H       5.2537704965    -2.7966879213    -1.8924213669
   45      H       7.0158495615    -1.6282063636     0.2282721614
   46      H       6.4051640397    -0.7683685586    -1.2182839401
   47      H       5.4150479073    -0.0084056408     1.3102193126
   48      H      -0.5565143210    -1.8147464284     0.8879043559
   49      H      -0.4121388284    -3.6291397097     0.8187201334
   50      H      -3.1397752257    -3.9097444118     0.3180893763
   51      H      -4.5181786858    -3.2395876528     1.2781406952
   52      H      -2.8297243393    -2.9944941272     1.8477700925
   53      H      -0.4673937351     3.3557854387     0.1864821398
   54      H       0.0399544386     2.1083928899    -1.0223223863
   55      H       1.8397197072     3.8967481936    -0.2748699022
   56      H       1.9196352120     2.9570573744     1.2833180510
 ----------------------------------------------------------------

    9   -1510.2816486477      3.28E-09 Convergence criterion met
 Total energy in the final basis set = -1510.28164865
 Final energy is   -1510.28164864765
 **  OPTIMIZATION CONVERGED  **

                    Orbital Energies (a.u.)
 --------------------------------------------------------------

 Alpha MOs
 -- Occupied --
-18.944 -18.930 -18.928 -18.916 -18.892 -18.887 -18.883 -18.872
-18.866 -18.855 -10.111 -10.095 -10.094 -10.087 -10.082 -10.076
-10.067 -10.060 -10.056 -10.053 -10.052 -10.042 -10.042 -10.035
-10.034 -10.033 -10.026 -10.023 -10.017 -10.016  -1.016  -1.006
 -1.003  -0.994  -0.974  -0.965  -0.944  -0.932  -0.929  -0.919
 -0.764  -0.759  -0.725  -0.723  -0.713  -0.708  -0.700  -0.655
 -0.648  -0.611  -0.601  -0.583  -0.550  -0.542  -0.540  -0.534
 -0.519  -0.507  -0.488  -0.472  -0.461  -0.456  -0.455  -0.447
 -0.438  -0.429  -0.425  -0.417  -0.409  -0.403  -0.402  -0.400
 -0.393  -0.387  -0.370  -0.362  -0.357  -0.351  -0.350  -0.346
 -0.344  -0.338  -0.332  -0.330  -0.327  -0.325  -0.320  -0.316
 -0.312  -0.307  -0.302  -0.301  -0.286  -0.281  -0.275  -0.273
 -0.271  -0.251  -0.250  -0.244  -0.241  -0.237  -0.229  -0.181
 -0.172  -0.169  -0.161  -0.155  -0.152  -0.147  -0.144  -0.138
 -0.136

          Ground-State Mulliken Net Atomic Charges

     Atom                 Charge (a.u.)
  ----------------------------------------
      1 O                    -0.224691
      2 C                     0.211538
      3 C                    -0.078008
      4 C                    -0.079597
      5 C                     0.211880
      6 O                    -0.173505
      7 C                    -0.048361
      8 C                    -0.044627
      9 O                    -0.156951
     10 C                     0.227681
     11 C                    -0.084925
     12 C                    -0.079840
     13 C                     0.215815
     14 O                    -0.217419
     15 O                    -0.169495
     16 O                    -0.177102
     17 O                    -0.197013
     18 C                    -0.128985
     19 C                     0.023014
     20 C                    -0.143696
     21 C                    -0.144867
     22 C                     0.026489
     23 O                    -0.183762
     24 H                     0.082534
     25 H                     0.083537
     26 H                     0.080847
     27 H                     0.078623
     28 H                     0.071085
     29 H                     0.079045
     30 H                     0.073828
     31 H                     0.088557
     32 O                    -0.203402
     33 C                    -0.139942
     34 C                     0.023186
     35 C                    -0.144221
     36 C                    -0.144444
     37 C                     0.025875
     38 O                    -0.186339
     39 H                     0.082209
     40 H                     0.083850
     41 H                     0.081798
     42 H                     0.093959
     43 H                     0.077482
     44 H                     0.071758
     45 H                     0.077516
     46 H                     0.072196
     47 H                     0.084172
     48 H                     0.113072
     49 H                     0.083870
     50 H                     0.084017
     51 H                     0.085703
     52 H                     0.092042
     53 H                     0.080394
     54 H                     0.093853
     55 H                     0.086944
     56 H                     0.102824
  ----------------------------------------
  Sum of atomic charges =    -0.000000

                    Cartesian Multipole Moments
 -----------------------------------------------------------------
    Charge (ESU x 10^10)
                -0.0000
    Dipole Moment (Debye)
         X       0.7094      Y       1.8911      Z      -5.0950
       Tot       5.4807
    Quadrupole Moments (Debye-Ang)
        XX    -152.6296     XY      -0.6543     YY    -144.3537
        XZ       3.7268     YZ       0.2319     ZZ    -170.6387

 Total job time:  145.04s(wall), 6921.26s(cpu)
        *  Thank you very much for using Q-Chem.  Have a nice day.  *
