 Q-Chem 5.0, Q-Chem, Inc., Pleasanton, CA (2017)
 Q-Chem 5.0.1 for Intel X86 EM64T Linux

User input:
--------------------------------------------------------------
$molecule
0  1
O -3.94934 -3.66094 2.70899
C -3.26408 -4.56952 2.26188
C -3.36658 -6.02376 2.66595
C -4.77372 -6.64113 2.71769
C -5.90468 -5.78727 2.1886
O -7.098 -6.2511 2.66429
C -8.02623 -6.58507 1.62694
C -9.44041 -6.19065 2.04003
O -9.67708 -4.8108 1.71927
C -8.70017 -3.94878 2.09572
C -9.17213 -2.5156 2.1583
C -10.21422 -2.22426 3.248
C -10.36292 -3.2846 4.3205
O -10.87139 -3.11499 5.41926
O -2.42566 -4.27748 1.23086
O -9.73742 -4.48725 4.29734
O -7.80022 -4.14164 2.88201
C -9.60724 -5.34765 5.3848
C -8.08362 -1.47759 2.51836
C -8.49556 -0.09656 2.01158
C -9.62673 0.22647 2.96483
C -9.55698 -0.98846 3.8969
O -8.19236 -1.33043 3.91153
H -9.55253 -2.27352 1.14021
H -11.23044 -2.00918 2.85187
H -7.07687 -1.74426 2.12784
H -7.64702 0.59396 2.2204
H -8.75412 -0.04226 0.93222
H -9.36567 1.15795 3.51476
H -10.6299 0.32795 2.49692
H -10.00369 -0.73603 4.88378
O -5.80239 -5.16938 1.13339
C -2.25627 -3.01869 0.69282
C -2.66199 -7.00135 1.70253
C -2.36371 -8.32385 2.41302
C -3.74702 -8.93377 2.46667
C -4.56101 -7.84176 1.77201
O -3.67654 -7.34787 0.79412
H -2.89644 -6.06945 3.6734
H -5.05052 -6.98631 3.74044
H -1.87976 -2.31843 1.46879
H -1.72186 -6.60199 1.26543
H -1.72919 -8.95005 1.74602
H -1.85968 -8.19893 3.39561
H -3.75395 -9.8458 1.82832
H -4.11981 -9.18515 3.48301
H -5.51698 -8.26526 1.39333
H -3.21928 -2.64472 0.28384
H -1.51523 -3.07206 -0.13086
H -8.98329 -6.22276 5.11549
H -10.60613 -5.70136 5.7181
H -9.09337 -4.82754 6.22151
H -10.14995 -6.76613 1.40799
H -9.68074 -6.48787 3.06715
H -8.0329 -7.69593 1.59022
H -7.78924 -6.24531 0.59294
$end

$opt
CONSTRAINT
tors           1           2           3           4     +47.368
tors           3           4           5           6    -161.053
tors           4           5           6           7    -123.158
tors           5           6           7           8    -142.105
tors           6           7           8           9     +85.263
tors           7           8           9          10     -47.368
tors           8           9          10          11    -161.053
tors           9          10          11          12     +66.316
tors          11          12          13          14    +161.053
ENDCONSTRAINT
$end

$rem
JOBTYPE                   OPT
METHOD                    B3LYP
DFT_D                     d3_op
BASIS                     STO-3G
GEOM_OPT_MAX_CYCLES       100
GEOM_OPT_TOL_GRADIENT     300
GEOM_OPT_TOL_DISPLACEMENT 1200
GEOM_OPT_TOL_ENERGY       100
SYMMETRY                  False
THRESH                    12
SCF_CONVERGENCE           8
MAX_SUB_FILE_NUM          128
MEM_STATIC                400
MEM_TOTAL                 4000
$end
--------------------------------------------------------------

   15   -1510.0701471509      7.75E-09 Convergence criterion met
 Total energy in the final basis set = -1510.07014715
   14   -1510.1505809370      4.77E-09 Convergence criterion met
 Total energy in the final basis set = -1510.15058094
   14   -1510.2016546892      9.32E-09 Convergence criterion met
 Total energy in the final basis set = -1510.20165469
   14   -1510.2284402353      7.44E-09 Convergence criterion met
 Total energy in the final basis set = -1510.22844024
   14   -1510.2419663500      4.03E-09 Convergence criterion met
 Total energy in the final basis set = -1510.24196635
   14   -1510.2484688163      3.57E-09 Convergence criterion met
 Total energy in the final basis set = -1510.24846882
   14   -1510.2525791671      2.79E-09 Convergence criterion met
 Total energy in the final basis set = -1510.25257917
   13   -1510.2545776627      6.60E-09 Convergence criterion met
   12   -1510.2558241942      3.19E-09 Convergence criterion met
 Total energy in the final basis set = -1510.25582419
   11   -1510.2558369511      7.63E-09 Convergence criterion met
 Total energy in the final basis set = -1510.25583695
   10   -1510.2558509883      9.97E-09 Convergence criterion met
 Total energy in the final basis set = -1510.25585099
   11   -1510.2558611306      4.01E-09 Convergence criterion met
 Total energy in the final basis set = -1510.25586113
    9   -1510.2558578402      8.94E-09 Convergence criterion met
 Total energy in the final basis set = -1510.25585784
    9   -1510.2558600966      5.11E-09 Convergence criterion met
 Total energy in the final basis set = -1510.25586010

             Standard Nuclear Orientation (Angstroms)
    I     Atom           X                Y                Z
 ----------------------------------------------------------------
    1      O      -2.2422569438    -1.9387495898     1.4150537255
    2      C      -3.3566157929    -1.6674625719     0.9185745139
    3      C      -4.0894424555    -0.2768547566     0.9739824043
    4      C      -3.1572241520     0.9452344669     0.5954180953
    5      C      -1.8497479345     0.5307802245    -0.1708423395
    6      O      -0.8754233033     1.5997211843    -0.0809185054
    7      C      -0.4626762259     2.0370943181    -1.4309602651
    8      C       1.0766956045     2.3850269672    -1.4814757416
    9      O       2.0767992153     1.3221427411    -1.7132343365
   10      C       1.9249366101     0.1310381288    -0.9226224793
   11      C       3.3131782938    -0.6074501774    -0.9639717255
   12      C       4.5372215517     0.1120744439    -0.2619766529
   13      C       4.1984061510     1.1520222293     0.8747438370
   14      O       4.9972441895     1.5556011421     1.7483278707
   15      O      -4.1756183804    -2.6172840662     0.2281978193
   16      O       2.8143917851     1.4989103042     0.8602527054
   17      O       0.8848594670    -0.2812665336    -0.3764314572
   18      C       2.4613987653     2.3233621140     2.0367196759
   19      C       3.3179221640    -2.0204776823    -0.2398476860
   20      C       4.3810473181    -2.9190874397    -0.9796186743
   21      C       5.7140493218    -2.1987512191    -0.5490441480
   22      C       5.1761775507    -1.1362310117     0.4901118507
   23      O       3.9661241127    -1.7693200750     1.0692796937
   24      H       3.5627737600    -0.7384936679    -2.0334518420
   25      H       5.2226668116     0.5766264941    -0.9938823979
   26      H       2.3112507161    -2.4607338731    -0.0993414862
   27      H       4.3425834519    -3.9520007944    -0.5975156056
   28      H       4.2355307621    -2.9377663458    -2.0714143275
   29      H       6.4147163364    -2.8945682650    -0.0612312894
   30      H       6.2289253451    -1.7193388669    -1.3973646192
   31      H       5.8876862307    -0.8503747536     1.2896575602
   32      O      -1.7391650113    -0.4628679757    -0.9190552626
   33      C      -3.4754262745    -3.9198471559     0.1547160949
   34      C      -5.2920713021    -0.0837548449    -0.0446648983
   35      C      -6.2272622697     1.0471244724     0.5365074871
   36      C      -5.3292161747     2.3196941399     0.3098045355
   37      C      -4.0932802703     1.6951887233    -0.4529826787
   38      O      -4.6721845857     0.5707386399    -1.2211469006
   39      H      -4.4526964295    -0.1542892229     2.0118131590
   40      H      -2.9044016732     1.5793845342     1.4628527225
   41      H      -3.2826478692    -4.3390138581     1.1635726077
   42      H      -5.7930980260    -1.0247423609    -0.3411229051
   43      H      -7.1627726958     1.1082364568    -0.0422829742
   44      H      -6.4764122283     0.8823473907     1.5967913467
   45      H      -5.8344705789     3.0674643542    -0.3217664816
   46      H      -5.0278970715     2.8010196617     1.2540077897
   47      H      -3.5599107166     2.3932218357    -1.1270462690
   48      H      -2.5076680982    -3.8282094195    -0.3792914870
   49      H      -4.1469886484    -4.5963502961    -0.4053738021
   50      H       1.3604342057     2.4256344281     2.0099366074
   51      H       2.9328839957     3.3265280599     1.9862150337
   52      H       2.7700849925     1.8330412348     2.9818818781
   53      H       1.2357639475     3.0917624958    -2.3225656394
   54      H       1.3309703640     2.9131971069    -0.5351566307
   55      H      -1.0153886817     2.9728987410    -1.6786732102
   56      H      -0.7053873814     1.2678968161    -2.1959970015
 ----------------------------------------------------------------

    9   -1510.2558612159      4.71E-09 Convergence criterion met
 Total energy in the final basis set = -1510.25586122
 Final energy is   -1510.25586121594
 **  OPTIMIZATION CONVERGED  **

                    Orbital Energies (a.u.)
 --------------------------------------------------------------

 Alpha MOs
 -- Occupied --
-18.939 -18.926 -18.914 -18.906 -18.886 -18.883 -18.879 -18.871
-18.865 -18.863 -10.098 -10.096 -10.092 -10.091 -10.070 -10.068
-10.064 -10.062 -10.056 -10.055 -10.053 -10.049 -10.035 -10.034
-10.032 -10.026 -10.021 -10.019 -10.016 -10.013  -1.013  -1.004
 -0.999  -0.989  -0.969  -0.963  -0.935  -0.931  -0.926  -0.924
 -0.760  -0.756  -0.722  -0.718  -0.709  -0.701  -0.692  -0.661
 -0.654  -0.612  -0.595  -0.579  -0.543  -0.537  -0.535  -0.530
 -0.511  -0.503  -0.484  -0.472  -0.460  -0.449  -0.443  -0.440
 -0.433  -0.423  -0.421  -0.413  -0.407  -0.406  -0.403  -0.398
 -0.389  -0.379  -0.375  -0.367  -0.356  -0.353  -0.346  -0.344
 -0.336  -0.335  -0.331  -0.328  -0.324  -0.319  -0.317  -0.309
 -0.305  -0.302  -0.300  -0.294  -0.290  -0.286  -0.280  -0.270
 -0.265  -0.245  -0.240  -0.239  -0.234  -0.231  -0.228  -0.178
 -0.169  -0.165  -0.159  -0.152  -0.151  -0.145  -0.139  -0.138
 -0.131

          Ground-State Mulliken Net Atomic Charges

     Atom                 Charge (a.u.)
  ----------------------------------------
      1 O                    -0.212120
      2 C                     0.213622
      3 C                    -0.080294
      4 C                    -0.077518
      5 C                     0.226789
      6 O                    -0.186512
      7 C                    -0.047658
      8 C                    -0.046423
      9 O                    -0.182443
     10 C                     0.223391
     11 C                    -0.080896
     12 C                    -0.075847
     13 C                     0.213568
     14 O                    -0.215982
     15 O                    -0.171100
     16 O                    -0.166935
     17 O                    -0.203841
     18 C                    -0.126533
     19 C                     0.022556
     20 C                    -0.142133
     21 C                    -0.145622
     22 C                     0.023602
     23 O                    -0.192741
     24 H                     0.081170
     25 H                     0.085363
     26 H                     0.092353
     27 H                     0.077128
     28 H                     0.072484
     29 H                     0.077576
     30 H                     0.072544
     31 H                     0.086904
     32 O                    -0.186995
     33 C                    -0.127392
     34 C                     0.023417
     35 C                    -0.143139
     36 C                    -0.144319
     37 C                     0.023973
     38 O                    -0.190047
     39 H                     0.081919
     40 H                     0.085585
     41 H                     0.086954
     42 H                     0.094136
     43 H                     0.077471
     44 H                     0.073266
     45 H                     0.077426
     46 H                     0.073885
     47 H                     0.078214
     48 H                     0.094361
     49 H                     0.088226
     50 H                     0.097226
     51 H                     0.086793
     52 H                     0.094971
     53 H                     0.084973
     54 H                     0.085626
     55 H                     0.075331
     56 H                     0.093688
  ----------------------------------------
  Sum of atomic charges =    -0.000000

                    Cartesian Multipole Moments
 -----------------------------------------------------------------
    Charge (ESU x 10^10)
                -0.0000
    Dipole Moment (Debye)
         X      -1.2618      Y       1.9460      Z      -0.9045
       Tot       2.4894
    Quadrupole Moments (Debye-Ang)
        XX    -150.8885     XY      -5.7155     YY    -146.3751
        XZ     -14.7008     YZ       1.6481     ZZ    -160.2447

 Total job time:  53.88s(wall), 2565.02s(cpu)
        *  Thank you very much for using Q-Chem.  Have a nice day.  *
