 Q-Chem 5.0, Q-Chem, Inc., Pleasanton, CA (2017)
 Q-Chem 5.0.1 for Intel X86 EM64T Linux

User input:
--------------------------------------------------------------
$molecule
0  1
O -2.2422569438 -1.9387495898 1.4150537255
C -3.3566157929 -1.6674625719 0.9185745139
C -4.0894424555 -0.2768547566 0.9739824043
C -3.157224152 0.9452344669 0.5954180953
C -1.8497479345 0.5307802245 -0.1708423395
O -0.8754233033 1.5997211843 -0.0809185054
C -0.4626762259 2.0370943181 -1.4309602651
C 1.0766956045 2.3850269672 -1.4814757416
O 2.0767992153 1.3221427411 -1.7132343365
C 1.9249366101 0.1310381288 -0.9226224793
C 3.3131782938 -0.6074501774 -0.9639717255
C 4.5372215517 0.1120744439 -0.2619766529
C 4.198406151 1.1520222293 0.874743837
O 4.9972441895 1.5556011421 1.7483278707
O -4.1756183804 -2.6172840662 0.2281978193
O 2.8143917851 1.4989103042 0.8602527054
O 0.884859467 -0.2812665336 -0.3764314572
C 2.4613987653 2.323362114 2.0367196759
C 3.317922164 -2.0204776823 -0.239847686
C 4.3810473181 -2.9190874397 -0.9796186743
C 5.7140493218 -2.1987512191 -0.549044148
C 5.1761775507 -1.1362310117 0.4901118507
O 3.9661241127 -1.769320075 1.0692796937
H 3.56277376 -0.7384936679 -2.033451842
H 5.2226668116 0.5766264941 -0.9938823979
H 2.3112507161 -2.4607338731 -0.0993414862
H 4.3425834519 -3.9520007944 -0.5975156056
H 4.2355307621 -2.9377663458 -2.0714143275
H 6.4147163364 -2.894568265 -0.0612312894
H 6.2289253451 -1.7193388669 -1.3973646192
H 5.8876862307 -0.8503747536 1.2896575602
O -1.7391650113 -0.4628679757 -0.9190552626
C -3.4754262745 -3.9198471559 0.1547160949
C -5.2920713021 -0.0837548449 -0.0446648983
C -6.2272622697 1.0471244724 0.5365074871
C -5.3292161747 2.3196941399 0.3098045355
C -4.0932802703 1.6951887233 -0.4529826787
O -4.6721845857 0.5707386399 -1.2211469006
H -4.4526964295 -0.1542892229 2.011813159
H -2.9044016732 1.5793845342 1.4628527225
H -3.2826478692 -4.3390138581 1.1635726077
H -5.793098026 -1.0247423609 -0.3411229051
H -7.1627726958 1.1082364568 -0.0422829742
H -6.4764122283 0.8823473907 1.5967913467
H -5.8344705789 3.0674643542 -0.3217664816
H -5.0278970715 2.8010196617 1.2540077897
H -3.5599107166 2.3932218357 -1.127046269
H -2.5076680982 -3.8282094195 -0.379291487
H -4.1469886484 -4.5963502961 -0.4053738021
H 1.3604342057 2.4256344281 2.0099366074
H 2.9328839957 3.3265280599 1.9862150337
H 2.7700849925 1.8330412348 2.9818818781
H 1.2357639475 3.0917624958 -2.3225656394
H 1.330970364 2.9131971069 -0.5351566307
H -1.0153886817 2.972898741 -1.6786732102
H -0.7053873814 1.2678968161 -2.1959970015
$end

$rem
JOBTYPE                   OPT
METHOD                    B3LYP
DFT_D                     d3_op
BASIS                     STO-3G
GEOM_OPT_MAX_CYCLES       100
GEOM_OPT_TOL_GRADIENT     300
GEOM_OPT_TOL_DISPLACEMENT 1200
GEOM_OPT_TOL_ENERGY       100
SYMMETRY                  False
THRESH                    12
SCF_CONVERGENCE           8
MAX_SUB_FILE_NUM          128
MEM_STATIC                400
MEM_TOTAL                 4000
$end
--------------------------------------------------------------

   16   -1510.2558302144      4.90E-09 Convergence criterion met
 Total energy in the final basis set = -1510.25583021
   14   -1510.2620206363      6.98E-09 Convergence criterion met
 Total energy in the final basis set = -1510.26202064
   15   -1510.2669787659      3.20E-09 Convergence criterion met
 Total energy in the final basis set = -1510.26697877
   13   -1510.2710993720      9.06E-09 Convergence criterion met
 Total energy in the final basis set = -1510.27109937
   14   -1510.2749450834      7.74E-09 Convergence criterion met
 Total energy in the final basis set = -1510.27494508
   15   -1510.2784350728      2.14E-09 Convergence criterion met
 Total energy in the final basis set = -1510.27843507
   14   -1510.2807137919      6.98E-09 Convergence criterion met
 Total energy in the final basis set = -1510.28071379
   14   -1510.2827699609      5.76E-09 Convergence criterion met
   12   -1510.3055017536      5.81E-09 Convergence criterion met
 Total energy in the final basis set = -1510.30550175
   12   -1510.3055017579      3.79E-09 Convergence criterion met
 Total energy in the final basis set = -1510.30550176
   11   -1510.3055245522      8.74E-09 Convergence criterion met
 Total energy in the final basis set = -1510.30552455
   11   -1510.3055287039      5.34E-09 Convergence criterion met
 Total energy in the final basis set = -1510.30552870
   11   -1510.3055304533      6.30E-09 Convergence criterion met
 Total energy in the final basis set = -1510.30553045
   10   -1510.3055446689      7.19E-09 Convergence criterion met
 Total energy in the final basis set = -1510.30554467

             Standard Nuclear Orientation (Angstroms)
    I     Atom           X                Y                Z
 ----------------------------------------------------------------
    1      O      -0.8958587934    -2.4401859379    -1.4938771805
    2      C      -1.8716363140    -1.9390659753    -0.8739855819
    3      C      -1.7896293699    -1.0030817763     0.3832938640
    4      C      -1.5749504733     0.5233918557     0.0188082216
    5      C      -1.5321044448     0.7518086594    -1.5160828367
    6      O      -0.9506824968     2.0311945186    -1.8065719686
    7      C      -0.6127050386     2.0940769418    -3.2463069996
    8      C       0.9140726237     1.7384497123    -3.4343862510
    9      O       1.3081491875     0.5554802007    -2.6222630994
   10      C       1.7248021607     0.9774656885    -1.3211828398
   11      C       2.3610127395    -0.2089840623    -0.5206640431
   12      C       2.7225032561     0.2376878023     0.9558838738
   13      C       1.9170340142     1.5112828417     1.4121548159
   14      O       0.6838043381     1.5966775385     1.6292471835
   15      O      -3.2279023464    -2.2653574658    -1.1700065859
   16      O       2.8457897241     2.5606069255     1.6939384709
   17      O       1.6935927385     2.1684645212    -0.9285922778
   18      C       2.1109560679     3.7844626998     2.0883642269
   19      C       1.5067309162    -1.5317956670    -0.2489529202
   20      C       2.5529946385    -2.6839936702     0.0111149065
   21      C       3.1336468900    -2.2690048555     1.4160260468
   22      C       2.2250117141    -1.0244944487     1.7706936523
   23      O       0.9417225470    -1.3260692486     1.1054170080
   24      H       3.2807824456    -0.4850943054    -1.0696936009
   25      H       3.8012126874     0.4370449915     1.0784667448
   26      H       0.6633817859    -1.7931581437    -0.9478878738
   27      H       2.0350683913    -3.6550401088     0.0654178565
   28      H       3.3262571644    -2.7413744029    -0.7714060994
   29      H       3.0061751157    -3.0679995406     2.1632843516
   30      H       4.1999810021    -1.9955958319     1.3700608728
   31      H       2.0704695143    -0.8418096103     2.8519303842
   32      O      -1.9282670382    -0.0406850141    -2.4041468827
   33      C      -3.2902808228    -3.0912308686    -2.3968580577
   34      C      -3.1284203356    -0.9251661792     1.2237655454
   35      C      -2.7810953884    -0.3002014001     2.6336207458
   36      C      -2.5741664758     1.2137923026     2.2574259695
   37      C      -2.8530050183     1.1774461996     0.7039757393
   38      O      -3.9030780339     0.1467825438     0.5523545126
   39      H      -0.9149671946    -1.3343341054     0.9813038927
   40      H      -0.6429958273     0.9142948987     0.4902473880
   41      H      -2.7115811989    -4.0313249610    -2.2886762430
   42      H      -3.7135658481    -1.8640328305     1.2506254937
   43      H      -3.6235488051    -0.4323392176     3.3312618993
   44      H      -1.8793812156    -0.7536040673     3.0753944865
   45      H      -3.3013602014     1.8633088370     2.7701269170
   46      H      -1.5529140999     1.5689988244     2.4719194570
   47      H      -3.1775417253     2.1371756314     0.2569278152
   48      H      -2.8998746344    -2.5322095170    -3.2716202004
   49      H      -4.3592513718    -3.3265209030    -2.5518526522
   50      H       2.8808911121     4.5464601844     2.3084705059
   51      H       1.4861825477     3.6133220908     2.9887770626
   52      H       1.4572559588     4.1393882275     1.2656023971
   53      H       1.1095507533     1.4638635986    -4.4907278273
   54      H       1.5367932227     2.6106551186    -3.1458479602
   55      H      -0.8049645162     3.1266928446    -3.6004669084
   56      H      -1.2481904803     1.3674233758    -3.7960763644
 ----------------------------------------------------------------

    9   -1510.3055311289      3.88E-09 Convergence criterion met
 Total energy in the final basis set = -1510.30553113
 Final energy is   -1510.30553112891
 **  OPTIMIZATION CONVERGED  **

                    Orbital Energies (a.u.)
 --------------------------------------------------------------

 Alpha MOs
 -- Occupied --
-18.945 -18.932 -18.931 -18.924 -18.887 -18.885 -18.875 -18.869
-18.867 -18.856 -10.107 -10.100 -10.094 -10.089 -10.076 -10.069
-10.061 -10.060 -10.051 -10.043 -10.041 -10.038 -10.037 -10.035
-10.018 -10.012 -10.009 -10.006 -10.002  -9.999  -1.024  -1.009
 -1.005  -0.996  -0.970  -0.952  -0.945  -0.934  -0.930  -0.920
 -0.762  -0.745  -0.722  -0.715  -0.702  -0.697  -0.686  -0.660
 -0.647  -0.616  -0.591  -0.569  -0.543  -0.535  -0.530  -0.520
 -0.508  -0.499  -0.486  -0.474  -0.458  -0.453  -0.448  -0.433
 -0.430  -0.422  -0.414  -0.413  -0.408  -0.405  -0.399  -0.398
 -0.392  -0.379  -0.368  -0.364  -0.359  -0.355  -0.351  -0.347
 -0.343  -0.340  -0.327  -0.322  -0.317  -0.315  -0.312  -0.308
 -0.300  -0.297  -0.294  -0.288  -0.285  -0.278  -0.273  -0.265
 -0.264  -0.255  -0.249  -0.245  -0.235  -0.227  -0.212  -0.196
 -0.174  -0.168  -0.162  -0.159  -0.154  -0.148  -0.143  -0.137
 -0.126

          Ground-State Mulliken Net Atomic Charges

     Atom                 Charge (a.u.)
  ----------------------------------------
      1 O                    -0.230291
      2 C                     0.221213
      3 C                    -0.096274
      4 C                    -0.094239
      5 C                     0.209365
      6 O                    -0.170401
      7 C                    -0.055562
      8 C                    -0.051621
      9 O                    -0.165466
     10 C                     0.212075
     11 C                    -0.081655
     12 C                    -0.080040
     13 C                     0.222336
     14 O                    -0.226652
     15 O                    -0.163536
     16 O                    -0.167476
     17 O                    -0.207369
     18 C                    -0.127709
     19 C                     0.005279
     20 C                    -0.143061
     21 C                    -0.145497
     22 C                     0.027052
     23 O                    -0.197103
     24 H                     0.085846
     25 H                     0.085785
     26 H                     0.121053
     27 H                     0.077996
     28 H                     0.071497
     29 H                     0.076686
     30 H                     0.072250
     31 H                     0.081486
     32 O                    -0.212802
     33 C                    -0.126218
     34 C                     0.024179
     35 C                    -0.143562
     36 C                    -0.146142
     37 C                     0.025446
     38 O                    -0.192650
     39 H                     0.111058
     40 H                     0.113301
     41 H                     0.086319
     42 H                     0.083423
     43 H                     0.072214
     44 H                     0.074127
     45 H                     0.071189
     46 H                     0.086342
     47 H                     0.078778
     48 H                     0.093452
     49 H                     0.088219
     50 H                     0.088787
     51 H                     0.087501
     52 H                     0.094497
     53 H                     0.091189
     54 H                     0.094776
     55 H                     0.088884
     56 H                     0.101727
  ----------------------------------------
  Sum of atomic charges =    -0.000000

                    Cartesian Multipole Moments
 -----------------------------------------------------------------
    Charge (ESU x 10^10)
                -0.0000
    Dipole Moment (Debye)
         X       2.8382      Y       0.6309      Z      -0.2759
       Tot       2.9206
    Quadrupole Moments (Debye-Ang)
        XX    -161.1031     XY       0.6520     YY    -152.2385
        XZ       0.9369     YZ      -3.6158     ZZ    -148.1808

 Total job time:  212.39s(wall), 10130.30s(cpu)
        *  Thank you very much for using Q-Chem.  Have a nice day.  *
