 Q-Chem 5.0, Q-Chem, Inc., Pleasanton, CA (2017)
 Q-Chem 5.0.1 for Intel X86 EM64T Linux

User input:
--------------------------------------------------------------
$molecule
0  1
O -4.534157238 -2.0994674309 0.5824613716
C -3.8174266996 -1.3783782749 -0.1436516422
C -4.0298396478 0.1394488789 -0.4773210459
C -3.4099597572 1.1172420813 0.6163773389
C -2.8527372212 0.3409162779 1.89844006
O -1.48737557 0.4903516947 2.3098324537
C -0.5276294152 0.3540137523 1.183483568
C 0.1744319598 -1.059526914 1.2555919616
O 1.3446469703 -1.0228453488 2.1568145533
C 2.6451850992 -0.9985070573 1.5398995891
C 2.7821312141 -1.2379736542 -0.0238175994
C 2.6031317057 0.001522041 -1.0000304227
C 2.4115710151 1.4320580123 -0.3770833469
O 2.2605114659 2.4888573096 -1.0281524587
O -2.5825015367 -1.8161961808 -0.7286701792
O 2.4333993007 1.3814634246 1.0506667623
O 3.6281472703 -0.9268853134 2.3089083092
C 2.3875217154 2.7448106488 1.6283482439
C 4.2841791131 -1.6567111694 -0.3534255307
C 4.2828407926 -2.4561760389 -1.7133998969
C 4.0065447569 -1.2947718397 -2.7386759265
C 3.9888056602 -0.0370334375 -1.7819580901
O 4.9489948251 -0.3835189246 -0.7117547324
H 2.1058845493 -2.0536360621 -0.3308739777
H 1.7557237823 -0.1639095437 -1.6915077448
H 4.808429176 -2.1374685018 0.4949259665
H 5.267341413 -2.9193595357 -1.8861769555
H 3.5123653825 -3.2437065045 -1.7385254853
H 4.8172302081 -1.2040230207 -3.4788012477
H 3.0516802509 -1.4183624843 -3.2742927291
H 4.2592949584 0.9247141273 -2.260114279
O -3.644288652 -0.244661909 2.6702686045
C -2.3352777322 -3.2347177541 -0.3832653405
C -3.2450120551 0.6243745549 -1.772653844
C -3.9075923952 1.9674029222 -2.2640155847
C -3.4105373177 2.9718260868 -1.1590844391
C -2.4922817177 2.0413474964 -0.2761082724
O -1.9241447227 1.0809999628 -1.2574215913
H -5.1158264119 0.3107816349 -0.576784748
H -4.2302031026 1.7291893327 1.0367608234
H -3.098988044 -3.9028484072 -0.831282416
H -3.1042536593 -0.1531629602 -2.5475011272
H -3.5259476191 2.2441834514 -3.2598286116
H -5.005625029 1.8937374067 -2.3127929444
H -2.8172357633 3.7918079465 -1.5937074681
H -4.2376937986 3.4049658205 -0.5744005807
H -1.6888592439 2.5723613546 0.2678705278
H -2.3317109798 -3.3941570111 0.7142490967
H -1.3412130351 -3.4818165204 -0.7990705103
H 2.2959740147 2.6057856818 2.7212507667
H 1.5204982536 3.3209376763 1.2458915189
H 3.3159159048 3.3064242006 1.3996229934
H -0.5366432353 -1.792437438 1.6930458054
H 0.4201156095 -1.3870279444 0.2288378433
H 0.2539052133 1.1314153649 1.2985763385
H -1.0142007018 0.4382811737 0.1811840392
$end

$rem
JOBTYPE                   OPT
METHOD                    B3LYP
DFT_D                     d3_op
BASIS                     STO-3G
GEOM_OPT_MAX_CYCLES       100
GEOM_OPT_TOL_GRADIENT     300
GEOM_OPT_TOL_DISPLACEMENT 1200
GEOM_OPT_TOL_ENERGY       100
SYMMETRY                  False
THRESH                    12
SCF_CONVERGENCE           8
MAX_SUB_FILE_NUM          128
MEM_STATIC                400
MEM_TOTAL                 4000
$end
--------------------------------------------------------------

   16   -1510.2529312002      5.89E-09 Convergence criterion met
 Total energy in the final basis set = -1510.25293120
   14   -1510.2546824819      3.09E-09 Convergence criterion met
 Total energy in the final basis set = -1510.25468248
   13   -1510.2554741688      6.72E-09 Convergence criterion met
 Total energy in the final basis set = -1510.25547417
   14   -1510.2553030053      8.95E-09 Convergence criterion met
 Total energy in the final basis set = -1510.25530301
   14   -1510.2563495685      5.79E-09 Convergence criterion met
 Total energy in the final basis set = -1510.25634957
   15   -1510.2545136943      3.09E-09 Convergence criterion met
 Total energy in the final basis set = -1510.25451369
   14   -1510.2543631917      6.72E-09 Convergence criterion met
 Total energy in the final basis set = -1510.25436319
   14   -1510.2579952244      6.27E-09 Convergence criterion met
   11   -1510.2761224858      6.28E-09 Convergence criterion met
 Total energy in the final basis set = -1510.27612249
   11   -1510.2761235446      3.51E-09 Convergence criterion met
 Total energy in the final basis set = -1510.27612354
   11   -1510.2761197862      4.74E-09 Convergence criterion met
 Total energy in the final basis set = -1510.27611979
   11   -1510.2761249276      4.66E-09 Convergence criterion met
 Total energy in the final basis set = -1510.27612493
   11   -1510.2761281315      2.38E-09 Convergence criterion met
 Total energy in the final basis set = -1510.27612813
    9   -1510.2761296145      5.38E-09 Convergence criterion met
 Total energy in the final basis set = -1510.27612961

             Standard Nuclear Orientation (Angstroms)
    I     Atom           X                Y                Z
 ----------------------------------------------------------------
    1      O      -4.0241261635    -2.3689778562    -0.1639182850
    2      C      -3.1191771584    -1.6628205610    -0.6573177799
    3      C      -3.1965956512    -0.1246351837    -0.9631928429
    4      C      -2.8450994134     0.7897836129     0.2988186398
    5      C      -2.8124173041     0.0049064899     1.6850997546
    6      O      -1.8007011427    -0.9559387825     2.0104283612
    7      C      -0.5055958201    -0.7640858277     1.3151929496
    8      C       0.4361653833    -1.9501925425     1.7430351013
    9      O       1.7235850807    -1.4844140557     2.3097861345
   10      C       2.5406050935    -0.6686674478     1.4479106807
   11      C       2.2461768828    -0.5902694932    -0.1006991530
   12      C       1.9084453585     0.8822611617    -0.5966228720
   13      C       2.0265550805     1.9649052777     0.5278161040
   14      O       2.8900431618     2.8546730668     0.6544518376
   15      O      -1.8300528503    -2.1664830755    -1.0316415365
   16      O       0.9137568502     1.8218200147     1.4457273885
   17      O       3.4974659664    -0.0695564037     1.9892863322
   18      C       1.0559878211     2.7536979805     2.5871410468
   19      C       3.5552042435    -0.8941728706    -0.9574402112
   20      C       3.0913977984    -1.2173637142    -2.4336328691
   21      C       2.6952186211     0.2174516455    -2.9452398151
   22      C       3.0396250176     1.0990917015    -1.6804621935
   23      O       4.2157867087     0.4214854348    -1.0858452441
   24      H       1.4419642205    -1.2799914996    -0.3943854644
   25      H       0.8803485122     0.8997716922    -1.0242273171
   26      H       4.2443182480    -1.6321400201    -0.5029736469
   27      H       3.9273683039    -1.6377898179    -3.0150373604
   28      H       2.2485509604    -1.9266727204    -2.4607059234
   29      H       3.3066111839     0.5220600229    -3.8093731272
   30      H       1.6306103936     0.2895957891    -3.2198126393
   31      H       3.2731727915     2.1616333079    -1.8856403458
   32      O      -3.7585688322     0.1275028779     2.4977298676
   33      C      -1.7378739728    -3.6062767219    -0.6969058560
   34      C      -2.1145716056     0.3683052844    -2.0071213379
   35      C      -2.4844872487     1.8274790373    -2.4806001659
   36      C      -2.0506683019     2.6807264858    -1.2292454718
   37      C      -1.5607442334     1.5588228122    -0.2372367134
   38      O      -0.9188558006     0.5817510718    -1.1552175306
   39      H      -4.2244389887     0.0871662325    -1.3080215723
   40      H      -3.6637238197     1.5167965506     0.4433483930
   41      H      -2.4971108212    -4.2016001043    -1.2437022042
   42      H      -1.8880329711    -0.3548445335    -2.8139194018
   43      H      -1.9065947442     2.1004285729    -3.3778741352
   44      H      -3.5577794017     1.9247422026    -2.7089742755
   45      H      -1.2192571532     3.3605795518    -1.4757748991
   46      H      -2.8784461153     3.2735267575    -0.8095361332
   47      H      -0.8161109075     1.8776839331     0.5255240933
   48      H      -1.8712148540    -3.7782636769     0.3906354505
   49      H      -0.7253619547    -3.9268716536    -1.0040069015
   50      H       0.1660328701     2.5944429947     3.2235572516
   51      H       1.0904506908     3.8085830078     2.2472843164
   52      H       1.9744472695     2.5350029312     3.1687203750
   53      H      -0.0463392871    -2.5040228905     2.5757503856
   54      H       0.5950924946    -2.6622951856     0.9053895390
   55      H      -0.0240709477     0.1921621656     1.6301782128
   56      H      -0.6473117023    -0.7208743793     0.2109201194
 ----------------------------------------------------------------

    9   -1510.2761303779      3.61E-09 Convergence criterion met
 Total energy in the final basis set = -1510.27613038
 Final energy is   -1510.27613037793
 **  OPTIMIZATION CONVERGED  **

                    Orbital Energies (a.u.)
 --------------------------------------------------------------

 Alpha MOs
 -- Occupied --
-18.949 -18.949 -18.928 -18.927 -18.922 -18.892 -18.890 -18.887
-18.873 -18.870 -10.112 -10.109 -10.100 -10.097 -10.082 -10.077
-10.073 -10.073 -10.070 -10.060 -10.058 -10.053 -10.046 -10.046
-10.038 -10.036 -10.035 -10.029 -10.022 -10.020  -1.025  -1.022
 -1.005  -1.000  -0.996  -0.970  -0.949  -0.948  -0.937  -0.930
 -0.779  -0.763  -0.737  -0.724  -0.721  -0.705  -0.702  -0.674
 -0.670  -0.610  -0.607  -0.592  -0.565  -0.554  -0.548  -0.539
 -0.529  -0.512  -0.497  -0.483  -0.474  -0.472  -0.458  -0.450
 -0.445  -0.431  -0.428  -0.425  -0.422  -0.419  -0.414  -0.414
 -0.396  -0.387  -0.384  -0.382  -0.373  -0.365  -0.360  -0.357
 -0.353  -0.351  -0.340  -0.339  -0.331  -0.327  -0.326  -0.318
 -0.315  -0.312  -0.308  -0.303  -0.301  -0.297  -0.289  -0.286
 -0.278  -0.269  -0.263  -0.254  -0.242  -0.238  -0.231  -0.193
 -0.191  -0.180  -0.172  -0.167  -0.165  -0.156  -0.146  -0.145
 -0.142

          Ground-State Mulliken Net Atomic Charges

     Atom                 Charge (a.u.)
  ----------------------------------------
      1 O                    -0.203598
      2 C                     0.206336
      3 C                    -0.081026
      4 C                    -0.086253
      5 C                     0.201620
      6 O                    -0.176393
      7 C                    -0.086035
      8 C                    -0.050968
      9 O                    -0.170097
     10 C                     0.200808
     11 C                    -0.085881
     12 C                    -0.095414
     13 C                     0.214547
     14 O                    -0.195474
     15 O                    -0.173176
     16 O                    -0.179682
     17 O                    -0.201879
     18 C                    -0.129031
     19 C                     0.026129
     20 C                    -0.143402
     21 C                    -0.144463
     22 C                     0.024642
     23 O                    -0.184374
     24 H                     0.079764
     25 H                     0.109613
     26 H                     0.084139
     27 H                     0.077825
     28 H                     0.070621
     29 H                     0.077198
     30 H                     0.073113
     31 H                     0.086725
     32 O                    -0.199970
     33 C                    -0.129447
     34 C                     0.026929
     35 C                    -0.144184
     36 C                    -0.143751
     37 C                     0.011057
     38 O                    -0.192903
     39 H                     0.090375
     40 H                     0.089286
     41 H                     0.092312
     42 H                     0.090577
     43 H                     0.080165
     44 H                     0.078540
     45 H                     0.079330
     46 H                     0.078882
     47 H                     0.103515
     48 H                     0.095058
     49 H                     0.088384
     50 H                     0.093410
     51 H                     0.091670
     52 H                     0.100075
     53 H                     0.098761
     54 H                     0.075770
     55 H                     0.098036
     56 H                     0.102186
  ----------------------------------------
  Sum of atomic charges =    -0.000000

                    Cartesian Multipole Moments
 -----------------------------------------------------------------
    Charge (ESU x 10^10)
                -0.0000
    Dipole Moment (Debye)
         X      -2.1058      Y       0.1716      Z      -4.8874
       Tot       5.3246
    Quadrupole Moments (Debye-Ang)
        XX    -189.9684     XY     -13.0080     YY    -150.2500
        XZ       5.3112     YZ       4.7271     ZZ    -163.3726

 Total job time:  161.03s(wall), 7680.92s(cpu)
        *  Thank you very much for using Q-Chem.  Have a nice day.  *
