 Q-Chem 5.0, Q-Chem, Inc., Pleasanton, CA (2017)
 Q-Chem 5.0.1 for Intel X86 EM64T Linux

User input:
--------------------------------------------------------------
$molecule
0  1
O -3.94934 -3.66094 2.70899
C -3.26408 -4.56952 2.26188
C -3.36658 -6.02376 2.66595
C -4.41631 -6.88207 1.94122
C -5.12384 -6.23632 0.77054
O -4.95227 -6.99578 -0.35161
C -3.59363 -7.3968 -0.55787
C -2.96297 -6.56465 -1.6696
O -3.26183 -7.14833 -2.94744
C -2.24148 -7.82253 -3.53352
C -0.92343 -7.62979 -2.822
C -0.67979 -8.58142 -1.64161
C -1.5919 -9.78944 -1.5676
O -1.55244 -10.65564 -0.70579
O -2.43055 -4.31422 1.22091
O -2.50986 -10.04489 -2.53854
O -2.36475 -8.3346 -4.63689
C -3.38012 -11.11723 -2.56869
C 0.28229 -8.0935 -3.70952
C 1.57365 -7.39995 -3.26242
C 1.7869 -8.05481 -1.91557
C 0.707 -9.14146 -1.97654
O 0.55463 -9.42207 -3.34321
H -0.65182 -6.55547 -2.75628
H -0.74372 -8.05558 -0.66538
H 0.13512 -7.91512 -4.79746
H 2.36948 -7.75048 -3.95937
H 1.57703 -6.2888 -3.25259
H 2.81439 -8.48006 -1.89066
H 1.61979 -7.39504 -1.03625
H 0.98287 -10.00535 -1.33139
O -5.91422 -5.30823 0.84273
C -2.2539 -3.07142 0.65137
C -2.20288 -7.00212 2.93986
C -2.54236 -7.87128 4.1545
C -3.66633 -8.73049 3.57987
C -3.66802 -8.26611 2.108
O -2.29605 -7.96748 1.92376
H -3.80649 -5.84213 3.67564
H -5.31068 -7.01162 2.5932
H -1.86617 -2.35565 1.40744
H -1.22132 -6.49469 3.05243
H -1.65916 -8.52134 4.3493
H -2.79524 -7.32239 5.08718
H -3.3524 -9.79586 3.64913
H -4.65676 -8.60643 4.06766
H -4.10829 -9.06655 1.47683
H -3.2162 -2.69971 0.23897
H -1.51895 -3.15254 -0.17559
H -4.0059 -11.0506 -3.48206
H -4.04411 -11.09483 -1.67821
H -2.81212 -12.07156 -2.59311
H -3.4806 -5.57975 -1.65589
H -1.98684 -6.11151 -1.41735
H -3.48231 -8.48642 -0.64623
H -2.91471 -6.96715 0.16293
$end

$opt
CONSTRAINT
tors           1           2           3           4     +85.263
tors           3           4           5           6    +123.158
tors           4           5           6           7     -47.368
tors           5           6           7           8    -104.211
tors           6           7           8           9     -85.263
tors           7           8           9          10    -104.211
tors           8           9          10          11      -9.474
tors           9          10          11          12     +85.263
tors          11          12          13          14    -180.000
ENDCONSTRAINT
$end

$rem
JOBTYPE                   OPT
METHOD                    B3LYP
DFT_D                     d3_op
BASIS                     STO-3G
GEOM_OPT_MAX_CYCLES       100
GEOM_OPT_TOL_GRADIENT     300
GEOM_OPT_TOL_DISPLACEMENT 1200
GEOM_OPT_TOL_ENERGY       100
SYMMETRY                  False
THRESH                    12
SCF_CONVERGENCE           8
MAX_SUB_FILE_NUM          128
MEM_STATIC                400
MEM_TOTAL                 4000
$end
--------------------------------------------------------------

   15   -1510.0497075064      9.14E-09 Convergence criterion met
 Total energy in the final basis set = -1510.04970751
   15   -1510.1318880114      2.59E-09 Convergence criterion met
 Total energy in the final basis set = -1510.13188801
   14   -1510.1797325354      7.51E-09 Convergence criterion met
 Total energy in the final basis set = -1510.17973254
   14   -1510.2106649434      6.70E-09 Convergence criterion met
 Total energy in the final basis set = -1510.21066494
   14   -1510.2284150345      4.43E-09 Convergence criterion met
 Total energy in the final basis set = -1510.22841503
   13   -1510.2391152082      7.08E-09 Convergence criterion met
 Total energy in the final basis set = -1510.23911521
   13   -1510.2461098707      9.87E-09 Convergence criterion met
 Total energy in the final basis set = -1510.24610987
   13   -1510.2497330032      5.53E-09 Convergence criterion met
   11   -1510.2530345961      2.61E-09 Convergence criterion met
 Total energy in the final basis set = -1510.25303460
    9   -1510.2530412449      8.19E-09 Convergence criterion met
 Total energy in the final basis set = -1510.25304124
    9   -1510.2530461008      8.52E-09 Convergence criterion met
 Total energy in the final basis set = -1510.25304610
    9   -1510.2530484978      9.76E-09 Convergence criterion met
 Total energy in the final basis set = -1510.25304850
    9   -1510.2530499398      9.19E-09 Convergence criterion met
 Total energy in the final basis set = -1510.25304994
    9   -1510.2530512209      4.39E-09 Convergence criterion met
 Total energy in the final basis set = -1510.25305122

             Standard Nuclear Orientation (Angstroms)
    I     Atom           X                Y                Z
 ----------------------------------------------------------------
    1      O      -4.5341572380    -2.0994674309     0.5824613716
    2      C      -3.8174266996    -1.3783782749    -0.1436516422
    3      C      -4.0298396478     0.1394488789    -0.4773210459
    4      C      -3.4099597572     1.1172420813     0.6163773389
    5      C      -2.8527372212     0.3409162779     1.8984400600
    6      O      -1.4873755700     0.4903516947     2.3098324537
    7      C      -0.5276294152     0.3540137523     1.1834835680
    8      C       0.1744319598    -1.0595269140     1.2555919616
    9      O       1.3446469703    -1.0228453488     2.1568145533
   10      C       2.6451850992    -0.9985070573     1.5398995891
   11      C       2.7821312141    -1.2379736542    -0.0238175994
   12      C       2.6031317057     0.0015220410    -1.0000304227
   13      C       2.4115710151     1.4320580123    -0.3770833469
   14      O       2.2605114659     2.4888573096    -1.0281524587
   15      O      -2.5825015367    -1.8161961808    -0.7286701792
   16      O       2.4333993007     1.3814634246     1.0506667623
   17      O       3.6281472703    -0.9268853134     2.3089083092
   18      C       2.3875217154     2.7448106488     1.6283482439
   19      C       4.2841791131    -1.6567111694    -0.3534255307
   20      C       4.2828407926    -2.4561760389    -1.7133998969
   21      C       4.0065447569    -1.2947718397    -2.7386759265
   22      C       3.9888056602    -0.0370334375    -1.7819580901
   23      O       4.9489948251    -0.3835189246    -0.7117547324
   24      H       2.1058845493    -2.0536360621    -0.3308739777
   25      H       1.7557237823    -0.1639095437    -1.6915077448
   26      H       4.8084291760    -2.1374685018     0.4949259665
   27      H       5.2673414130    -2.9193595357    -1.8861769555
   28      H       3.5123653825    -3.2437065045    -1.7385254853
   29      H       4.8172302081    -1.2040230207    -3.4788012477
   30      H       3.0516802509    -1.4183624843    -3.2742927291
   31      H       4.2592949584     0.9247141273    -2.2601142790
   32      O      -3.6442886520    -0.2446619090     2.6702686045
   33      C      -2.3352777322    -3.2347177541    -0.3832653405
   34      C      -3.2450120551     0.6243745549    -1.7726538440
   35      C      -3.9075923952     1.9674029222    -2.2640155847
   36      C      -3.4105373177     2.9718260868    -1.1590844391
   37      C      -2.4922817177     2.0413474964    -0.2761082724
   38      O      -1.9241447227     1.0809999628    -1.2574215913
   39      H      -5.1158264119     0.3107816349    -0.5767847480
   40      H      -4.2302031026     1.7291893327     1.0367608234
   41      H      -3.0989880440    -3.9028484072    -0.8312824160
   42      H      -3.1042536593    -0.1531629602    -2.5475011272
   43      H      -3.5259476191     2.2441834514    -3.2598286116
   44      H      -5.0056250290     1.8937374067    -2.3127929444
   45      H      -2.8172357633     3.7918079465    -1.5937074681
   46      H      -4.2376937986     3.4049658205    -0.5744005807
   47      H      -1.6888592439     2.5723613546     0.2678705278
   48      H      -2.3317109798    -3.3941570111     0.7142490967
   49      H      -1.3412130351    -3.4818165204    -0.7990705103
   50      H       2.2959740147     2.6057856818     2.7212507667
   51      H       1.5204982536     3.3209376763     1.2458915189
   52      H       3.3159159048     3.3064242006     1.3996229934
   53      H      -0.5366432353    -1.7924374380     1.6930458054
   54      H       0.4201156095    -1.3870279444     0.2288378433
   55      H       0.2539052133     1.1314153649     1.2985763385
   56      H      -1.0142007018     0.4382811737     0.1811840392
 ----------------------------------------------------------------

    9   -1510.2530518915      3.46E-09 Convergence criterion met
 Total energy in the final basis set = -1510.25305189
 Final energy is   -1510.25305189149
 **  OPTIMIZATION CONVERGED  **

                    Orbital Energies (a.u.)
 --------------------------------------------------------------

 Alpha MOs
 -- Occupied --
-18.949 -18.943 -18.925 -18.921 -18.914 -18.890 -18.886 -18.882
-18.882 -18.859 -10.108 -10.107 -10.103 -10.095 -10.076 -10.076
-10.074 -10.071 -10.068 -10.064 -10.058 -10.053 -10.049 -10.045
-10.045 -10.037 -10.034 -10.033 -10.023 -10.022  -1.022  -1.021
 -1.006  -0.994  -0.990  -0.973  -0.945  -0.945  -0.938  -0.924
 -0.776  -0.765  -0.734  -0.725  -0.720  -0.706  -0.703  -0.671
 -0.668  -0.608  -0.605  -0.595  -0.562  -0.551  -0.549  -0.541
 -0.527  -0.514  -0.494  -0.485  -0.476  -0.459  -0.455  -0.452
 -0.448  -0.435  -0.428  -0.422  -0.419  -0.417  -0.414  -0.406
 -0.396  -0.390  -0.383  -0.381  -0.370  -0.359  -0.358  -0.355
 -0.349  -0.347  -0.339  -0.335  -0.328  -0.327  -0.324  -0.320
 -0.315  -0.312  -0.311  -0.302  -0.298  -0.296  -0.293  -0.288
 -0.277  -0.267  -0.257  -0.248  -0.241  -0.236  -0.231  -0.188
 -0.187  -0.178  -0.169  -0.162  -0.161  -0.150  -0.148  -0.147
 -0.138

          Ground-State Mulliken Net Atomic Charges

     Atom                 Charge (a.u.)
  ----------------------------------------
      1 O                    -0.201111
      2 C                     0.204493
      3 C                    -0.081030
      4 C                    -0.084970
      5 C                     0.204870
      6 O                    -0.174574
      7 C                    -0.074025
      8 C                    -0.050301
      9 O                    -0.170900
     10 C                     0.217687
     11 C                    -0.087339
     12 C                    -0.080670
     13 C                     0.209987
     14 O                    -0.213416
     15 O                    -0.174724
     16 O                    -0.164458
     17 O                    -0.207957
     18 C                    -0.126360
     19 C                     0.026125
     20 C                    -0.144148
     21 C                    -0.144546
     22 C                     0.025521
     23 O                    -0.188076
     24 H                     0.075327
     25 H                     0.084416
     26 H                     0.092670
     27 H                     0.079077
     28 H                     0.071267
     29 H                     0.079128
     30 H                     0.072586
     31 H                     0.086517
     32 O                    -0.191840
     33 C                    -0.129768
     34 C                     0.025815
     35 C                    -0.142627
     36 C                    -0.143215
     37 C                     0.020529
     38 O                    -0.189788
     39 H                     0.089098
     40 H                     0.088168
     41 H                     0.090126
     42 H                     0.090494
     43 H                     0.080968
     44 H                     0.077378
     45 H                     0.082179
     46 H                     0.077833
     47 H                     0.087839
     48 H                     0.093184
     49 H                     0.087710
     50 H                     0.100782
     51 H                     0.089523
     52 H                     0.093392
     53 H                     0.087553
     54 H                     0.080040
     55 H                     0.086051
     56 H                     0.107511
  ----------------------------------------
  Sum of atomic charges =     0.000000

                    Cartesian Multipole Moments
 -----------------------------------------------------------------
    Charge (ESU x 10^10)
                -0.0000
    Dipole Moment (Debye)
         X      -1.9429      Y       0.6135      Z      -5.2325
       Tot       5.6152
    Quadrupole Moments (Debye-Ang)
        XX    -173.8974     XY     -10.4142     YY    -148.6466
        XZ       4.6546     YZ      10.3758     ZZ    -172.4107

 Total job time:  69.58s(wall), 3312.49s(cpu)
        *  Thank you very much for using Q-Chem.  Have a nice day.  *
