 Q-Chem 5.0, Q-Chem, Inc., Pleasanton, CA (2017)
 Q-Chem 5.0.1 for Intel X86 EM64T Linux

User input:
--------------------------------------------------------------
$molecule
0  1
O -3.94934 -3.66094 2.70899
C -3.26408 -4.56952 2.26188
C -3.36658 -6.02376 2.66595
C -4.06137 -6.97914 1.68189
C -4.41791 -6.40938 0.32677
O -5.62324 -6.90466 -0.08227
C -5.59537 -8.3125 -0.34005
C -6.89833 -8.95721 0.12121
O -7.29016 -9.98437 -0.80307
C -8.18055 -10.88927 -0.3261
C -7.54637 -12.21809 0.00963
C -8.10352 -12.90208 1.26661
C -9.41884 -12.35807 1.78691
O -10.49377 -12.42983 1.20905
O -2.35767 -4.27116 1.29232
O -9.38725 -11.83164 3.03939
O -9.3781 -10.73478 -0.50823
C -10.48691 -11.31921 3.69527
C -7.82562 -13.32095 -1.03584
C -6.72781 -14.38173 -0.9621
C -7.04792 -15.02809 0.37261
C -8.36119 -14.31281 0.71505
O -8.93538 -14.0293 -0.53861
H -6.44222 -12.07112 0.06203
H -7.36573 -12.86519 2.09917
H -7.91777 -12.93017 -2.07279
H -6.94126 -15.11553 -1.77254
H -5.68487 -14.01441 -1.07242
H -7.2103 -16.11587 0.20551
H -6.28948 -14.87085 1.17003
H -8.97834 -14.92601 1.4086
O -3.68074 -5.77962 -0.41506
C -2.13783 -3.00476 0.79215
C -1.99523 -6.65598 2.88428
C -2.12563 -7.92462 3.73061
C -2.70332 -8.87705 2.70819
C -2.83513 -7.94623 1.5024
O -1.69124 -7.13256 1.60759
H -3.94655 -6.00987 3.61653
H -4.91995 -7.53069 2.13004
H -1.8011 -2.32577 1.60449
H -1.26474 -5.95037 3.33781
H -1.11355 -8.28538 4.02101
H -2.74574 -7.77258 4.64047
H -1.92677 -9.6387 2.46855
H -3.64546 -9.38891 2.99995
H -2.8303 -8.55506 0.58103
H -3.06796 -2.60863 0.33144
H -1.34718 -3.05304 0.01565
H -10.17695 -10.95689 4.69685
H -11.25852 -12.1083 3.8234
H -10.9115 -10.46753 3.12185
H -6.7894 -9.31641 1.16969
H -7.71088 -8.1976 0.09624
H -4.72882 -8.91934 -0.05683
H -5.62175 -8.36396 -1.45055
$end

$opt
CONSTRAINT
tors           1           2           3           4    +104.211
tors           3           4           5           6    -142.105
tors           4           5           6           7     -66.316
tors           5           6           7           8    +142.105
tors           6           7           8           9    +142.105
tors           7           8           9          10    +161.053
tors           8           9          10          11    -104.211
tors           9          10          11          12    +142.105
tors          11          12          13          14     +66.316
ENDCONSTRAINT
$end

$rem
JOBTYPE                   OPT
METHOD                    B3LYP
DFT_D                     d3_op
BASIS                     STO-3G
GEOM_OPT_MAX_CYCLES       100
GEOM_OPT_TOL_GRADIENT     300
GEOM_OPT_TOL_DISPLACEMENT 1200
GEOM_OPT_TOL_ENERGY       100
SYMMETRY                  False
THRESH                    12
SCF_CONVERGENCE           8
MAX_SUB_FILE_NUM          128
MEM_STATIC                400
MEM_TOTAL                 4000
$end
--------------------------------------------------------------

   15   -1510.0873488270      5.99E-09 Convergence criterion met
 Total energy in the final basis set = -1510.08734883
   14   -1510.1608354717      3.42E-09 Convergence criterion met
 Total energy in the final basis set = -1510.16083547
   14   -1510.2003387892      5.44E-09 Convergence criterion met
 Total energy in the final basis set = -1510.20033879
   14   -1510.2186586820      4.54E-09 Convergence criterion met
 Total energy in the final basis set = -1510.21865868
   14   -1510.2260584370      4.12E-09 Convergence criterion met
 Total energy in the final basis set = -1510.22605844
    2   -1510.2260584370      1.41E-09 Convergence criterion met
 Total energy in the final basis set = -1510.22605844
   13   -1510.2299947267      9.93E-09 Convergence criterion met
 Total energy in the final basis set = -1510.22999473
   13   -1510.2324276520      8.81E-09 Convergence criterion met
   11   -1510.2351034369      5.41E-09 Convergence criterion met
 Total energy in the final basis set = -1510.23510344
   11   -1510.2351124549      5.77E-09 Convergence criterion met
 Total energy in the final basis set = -1510.23511245
   10   -1510.2351263719      9.91E-09 Convergence criterion met
 Total energy in the final basis set = -1510.23512637
   10   -1510.2351328500      7.59E-09 Convergence criterion met
 Total energy in the final basis set = -1510.23513285
   10   -1510.2351447505      9.39E-09 Convergence criterion met
 Total energy in the final basis set = -1510.23514475
   10   -1510.2351435182      5.88E-09 Convergence criterion met
 Total energy in the final basis set = -1510.23514352

             Standard Nuclear Orientation (Angstroms)
    I     Atom           X                Y                Z
 ----------------------------------------------------------------
    1      O       6.0248813093    -2.0548962748     0.2290112656
    2      C       5.5840427032    -0.9167349231    -0.0444969214
    3      C       4.4011585915    -0.5966704837    -1.0385892142
    4      C       3.0328375759    -0.2176719226    -0.3272120799
    5      C       3.0461891065    -0.5013854867     1.2264987110
    6      O       1.8007806356    -1.0095549966     1.7647065616
    7      C       0.7060090173    -0.0154044560     1.6905849384
    8      C      -0.6242465151    -0.7789607409     1.3331595519
    9      O      -1.7143666685    -0.1411329354     2.1031040968
   10      C      -2.9884557009    -0.5038651172     1.4704745681
   11      C      -3.5612128212     0.7075964954     0.6451367441
   12      C      -4.2775238419     0.3620158824    -0.7311635807
   13      C      -4.4132383686    -1.1632631111    -1.0671191598
   14      O      -5.0904033434    -2.0337093075    -0.4821443304
   15      O       6.1908223944     0.3082500032     0.3806886525
   16      O      -3.5712739939    -1.4347359933    -2.1996629512
   17      O      -3.5409346111    -1.6020490504     1.6747484273
   18      C      -3.6487563748    -2.8713165806    -2.5527781903
   19      C      -4.7512349782     1.4270189798     1.4303631314
   20      C      -4.9138272153     2.8833447511     0.8416560900
   21      C      -5.5921781480     2.5724965309    -0.5439468814
   22      C      -5.7145587568     0.9988942938    -0.4796647000
   23      O      -5.9583383524     0.7211344930     0.9535418014
   24      H      -2.7261130285     1.4102395063     0.4794651470
   25      H      -3.7524531575     0.8465336307    -1.5733289141
   26      H      -4.6759148009     1.3679982389     2.5336205109
   27      H      -5.5721734744     3.4860313214     1.4876322718
   28      H      -3.9469793532     3.4014884058     0.7398408089
   29      H      -6.5904509882     3.0324428324    -0.6181201024
   30      H      -4.9860717058     2.9066412665    -1.4011094353
   31      H      -6.5214603717     0.5618456440    -1.0990513090
   32      O       4.0793070101    -0.5664360353     1.9277404550
   33      C       7.2650350874     0.0182579132     1.3556776847
   34      C       4.6814733316     0.7300621641    -1.8587990311
   35      C       3.6235911694     0.8486792569    -3.0294844043
   36      C       2.3455562561     1.3270723507    -2.2449043181
   37      C       2.8887014579     1.3155915271    -0.7622597752
   38      O       4.2776495302     1.7924296910    -0.9079128056
   39      H       4.2691186864    -1.4771953977    -1.6919561138
   40      H       2.1993186827    -0.8059381018    -0.7514254871
   41      H       8.0311574234    -0.6638437964     0.9331048598
   42      H       5.7370051008     0.8653932567    -2.1624724158
   43      H       3.9474046187     1.5953635157    -3.7717824783
   44      H       3.4684992713    -0.1142160538    -3.5422320655
   45      H       2.0526825254     2.3486782797    -2.5360942036
   46      H       1.4818170498     0.6572263032    -2.3827872317
   47      H       2.3384258073     1.9626368529    -0.0524511803
   48      H       6.8523557538    -0.4394654228     2.2779151927
   49      H       7.7268051782     0.9925503384     1.5996208237
   50      H      -2.9425876022    -3.0198919076    -3.3903047409
   51      H      -4.6704599564    -3.1581504964    -2.8759216343
   52      H      -3.3579565380    -3.5179139476    -1.6998029665
   53      H      -0.8047696447    -0.7324481653     0.2360483611
   54      H      -0.5035141151    -1.8519651560     1.6133827359
   55      H       0.8990999673     0.7806571872     0.9454370515
   56      H       0.5809295023     0.4649816115     2.6879413195
 ----------------------------------------------------------------

   10   -1510.2351444475      4.03E-09 Convergence criterion met
 Total energy in the final basis set = -1510.23514445
 Final energy is   -1510.23514444750
 **  OPTIMIZATION CONVERGED  **

                    Orbital Energies (a.u.)
 --------------------------------------------------------------

 Alpha MOs
 -- Occupied --
-18.935 -18.923 -18.922 -18.913 -18.907 -18.903 -18.897 -18.897
-18.881 -18.860 -10.113 -10.111 -10.100 -10.091 -10.081 -10.077
-10.071 -10.068 -10.067 -10.067 -10.065 -10.053 -10.045 -10.044
-10.044 -10.039 -10.029 -10.027 -10.026 -10.026  -1.016  -1.015
 -1.009  -0.999  -0.978  -0.977  -0.949  -0.940  -0.936  -0.924
 -0.769  -0.768  -0.729  -0.727  -0.717  -0.712  -0.705  -0.667
 -0.652  -0.611  -0.604  -0.590  -0.553  -0.553  -0.545  -0.544
 -0.522  -0.520  -0.487  -0.478  -0.467  -0.465  -0.457  -0.447
 -0.440  -0.439  -0.426  -0.417  -0.415  -0.411  -0.408  -0.403
 -0.400  -0.391  -0.380  -0.371  -0.367  -0.363  -0.357  -0.350
 -0.347  -0.344  -0.339  -0.337  -0.336  -0.334  -0.328  -0.319
 -0.316  -0.314  -0.312  -0.308  -0.300  -0.291  -0.289  -0.279
 -0.279  -0.260  -0.252  -0.249  -0.242  -0.241  -0.240  -0.182
 -0.174  -0.169  -0.165  -0.162  -0.160  -0.152  -0.150  -0.149
 -0.141

          Ground-State Mulliken Net Atomic Charges

     Atom                 Charge (a.u.)
  ----------------------------------------
      1 O                    -0.219153
      2 C                     0.212048
      3 C                    -0.079719
      4 C                    -0.085605
      5 C                     0.217523
      6 O                    -0.183423
      7 C                    -0.046773
      8 C                    -0.047806
      9 O                    -0.198979
     10 C                     0.215460
     11 C                    -0.082530
     12 C                    -0.081023
     13 C                     0.204004
     14 O                    -0.197187
     15 O                    -0.166528
     16 O                    -0.175023
     17 O                    -0.166642
     18 C                    -0.130336
     19 C                     0.027369
     20 C                    -0.143120
     21 C                    -0.144346
     22 C                     0.027225
     23 O                    -0.181915
     24 H                     0.081746
     25 H                     0.084809
     26 H                     0.086730
     27 H                     0.080112
     28 H                     0.074078
     29 H                     0.079669
     30 H                     0.073809
     31 H                     0.085683
     32 O                    -0.176102
     33 C                    -0.127173
     34 C                     0.027216
     35 C                    -0.144934
     36 C                    -0.143465
     37 C                     0.023862
     38 O                    -0.181956
     39 H                     0.084352
     40 H                     0.080520
     41 H                     0.086295
     42 H                     0.088055
     43 H                     0.079028
     44 H                     0.074450
     45 H                     0.078192
     46 H                     0.071522
     47 H                     0.078177
     48 H                     0.093292
     49 H                     0.088065
     50 H                     0.088638
     51 H                     0.088983
     52 H                     0.091324
     53 H                     0.072073
     54 H                     0.088520
     55 H                     0.078512
     56 H                     0.092401
  ----------------------------------------
  Sum of atomic charges =    -0.000000

                    Cartesian Multipole Moments
 -----------------------------------------------------------------
    Charge (ESU x 10^10)
                -0.0000
    Dipole Moment (Debye)
         X      -0.6051      Y       3.1988      Z      -4.3312
       Tot       5.4183
    Quadrupole Moments (Debye-Ang)
        XX    -180.2570     XY      -6.7639     YY    -163.3075
        XZ       3.6024     YZ       8.7385     ZZ    -158.6280

 Total job time:  63.52s(wall), 3023.49s(cpu)
        *  Thank you very much for using Q-Chem.  Have a nice day.  *
