 Q-Chem 5.0, Q-Chem, Inc., Pleasanton, CA (2017)
 Q-Chem 5.0.1 for Intel X86 EM64T Linux

User input:
--------------------------------------------------------------
$molecule
0  1
O 6.0248813093 -2.0548962748 0.2290112656
C 5.5840427032 -0.9167349231 -0.0444969214
C 4.4011585915 -0.5966704837 -1.0385892142
C 3.0328375759 -0.2176719226 -0.3272120799
C 3.0461891065 -0.5013854867 1.226498711
O 1.8007806356 -1.0095549966 1.7647065616
C 0.7060090173 -0.015404456 1.6905849384
C -0.6242465151 -0.7789607409 1.3331595519
O -1.7143666685 -0.1411329354 2.1031040968
C -2.9884557009 -0.5038651172 1.4704745681
C -3.5612128212 0.7075964954 0.6451367441
C -4.2775238419 0.3620158824 -0.7311635807
C -4.4132383686 -1.1632631111 -1.0671191598
O -5.0904033434 -2.0337093075 -0.4821443304
O 6.1908223944 0.3082500032 0.3806886525
O -3.5712739939 -1.4347359933 -2.1996629512
O -3.5409346111 -1.6020490504 1.6747484273
C -3.6487563748 -2.8713165806 -2.5527781903
C -4.7512349782 1.4270189798 1.4303631314
C -4.9138272153 2.8833447511 0.84165609
C -5.592178148 2.5724965309 -0.5439468814
C -5.7145587568 0.9988942938 -0.4796647
O -5.9583383524 0.721134493 0.9535418014
H -2.7261130285 1.4102395063 0.479465147
H -3.7524531575 0.8465336307 -1.5733289141
H -4.6759148009 1.3679982389 2.5336205109
H -5.5721734744 3.4860313214 1.4876322718
H -3.9469793532 3.4014884058 0.7398408089
H -6.5904509882 3.0324428324 -0.6181201024
H -4.9860717058 2.9066412665 -1.4011094353
H -6.5214603717 0.561845644 -1.099051309
O 4.0793070101 -0.5664360353 1.927740455
C 7.2650350874 0.0182579132 1.3556776847
C 4.6814733316 0.7300621641 -1.8587990311
C 3.6235911694 0.8486792569 -3.0294844043
C 2.3455562561 1.3270723507 -2.2449043181
C 2.8887014579 1.3155915271 -0.7622597752
O 4.2776495302 1.792429691 -0.9079128056
H 4.2691186864 -1.4771953977 -1.6919561138
H 2.1993186827 -0.8059381018 -0.7514254871
H 8.0311574234 -0.6638437964 0.9331048598
H 5.7370051008 0.8653932567 -2.1624724158
H 3.9474046187 1.5953635157 -3.7717824783
H 3.4684992713 -0.1142160538 -3.5422320655
H 2.0526825254 2.3486782797 -2.5360942036
H 1.4818170498 0.6572263032 -2.3827872317
H 2.3384258073 1.9626368529 -0.0524511803
H 6.8523557538 -0.4394654228 2.2779151927
H 7.7268051782 0.9925503384 1.5996208237
H -2.9425876022 -3.0198919076 -3.3903047409
H -4.6704599564 -3.1581504964 -2.8759216343
H -3.357956538 -3.5179139476 -1.6998029665
H -0.8047696447 -0.7324481653 0.2360483611
H -0.5035141151 -1.851965156 1.6133827359
H 0.8990999673 0.7806571872 0.9454370515
H 0.5809295023 0.4649816115 2.6879413195
$end

$rem
JOBTYPE                   OPT
METHOD                    B3LYP
DFT_D                     d3_op
BASIS                     STO-3G
GEOM_OPT_MAX_CYCLES       100
GEOM_OPT_TOL_GRADIENT     300
GEOM_OPT_TOL_DISPLACEMENT 1200
GEOM_OPT_TOL_ENERGY       100
SYMMETRY                  False
THRESH                    12
SCF_CONVERGENCE           8
MAX_SUB_FILE_NUM          128
MEM_STATIC                400
MEM_TOTAL                 4000
$end
--------------------------------------------------------------

   16   -1510.2351954403      5.69E-09 Convergence criterion met
 Total energy in the final basis set = -1510.23519544
   14   -1510.2382877125      7.79E-09 Convergence criterion met
 Total energy in the final basis set = -1510.23828771
   14   -1510.2410342075      8.96E-09 Convergence criterion met
 Total energy in the final basis set = -1510.24103421
   14   -1510.2442390239      5.68E-09 Convergence criterion met
 Total energy in the final basis set = -1510.24423902
   15   -1510.2346251685      2.95E-09 Convergence criterion met
 Total energy in the final basis set = -1510.23462517
   14   -1510.2470602298      2.68E-09 Convergence criterion met
 Total energy in the final basis set = -1510.24706023
   13   -1510.2515819589      6.21E-09 Convergence criterion met
 Total energy in the final basis set = -1510.25158196
   13   -1510.2564510507      9.70E-09 Convergence criterion met
   13   -1510.2768621902      2.71E-09 Convergence criterion met
 Total energy in the final basis set = -1510.27686219
   13   -1510.2768811357      6.31E-09 Convergence criterion met
 Total energy in the final basis set = -1510.27688114
   13   -1510.2768978325      2.27E-09 Convergence criterion met
 Total energy in the final basis set = -1510.27689783
   11   -1510.2769159439      6.71E-09 Convergence criterion met
 Total energy in the final basis set = -1510.27691594
   10   -1510.2769143518      9.60E-09 Convergence criterion met
 Total energy in the final basis set = -1510.27691435
    9   -1510.2769129136      6.24E-09 Convergence criterion met
 Total energy in the final basis set = -1510.27691291

             Standard Nuclear Orientation (Angstroms)
    I     Atom           X                Y                Z
 ----------------------------------------------------------------
    1      O      -4.3699363234    -0.1096307744     2.9904215001
    2      C      -4.6142947467     0.1642130211     1.7948947974
    3      C      -3.7259538355     1.0644180602     0.8520207703
    4      C      -2.6449897995     0.2642621484     0.0130160126
    5      C      -2.6886457277    -1.2866783930     0.2741864192
    6      O      -1.6150045467    -2.1089411476    -0.2139315347
    7      C      -0.4424513574    -1.3665382534    -0.7281850335
    8      C       0.6663230184    -2.4391377530    -1.0252695301
    9      O       1.8790027128    -1.8001643634    -1.5964208107
   10      C       2.5691341397    -1.0509969567    -0.5885000875
   11      C       3.8210191778    -0.3725380214    -1.2287257449
   12      C       4.1913509102     0.9978633286    -0.5232617214
   13      C       3.1836282043     1.4346750410     0.6017958291
   14      O       3.4214540630     1.5848982448     1.8177575727
   15      O      -5.8256018588    -0.1823477595     1.1128817880
   16      O       1.9205484378     1.7323240449    -0.0184691244
   17      O       2.2052471605    -0.9800403925     0.6072374423
   18      C       0.9276472310     2.0870826330     1.0197318199
   19      C       5.1352899035    -1.2211913673    -0.9240711495
   20      C       6.3048022393    -0.6724197529    -1.8323992229
   21      C       6.6688767007     0.6657295861    -1.0882320080
   22      C       5.6137243950     0.6554153301     0.0858565564
   23      O       5.5038762296    -0.7807063538     0.4381348563
   24      H       3.6508150411    -0.2561881297    -2.3133493882
   25      H       4.2501615634     1.8114070639    -1.2692991548
   26      H       4.9889366723    -2.3185235842    -0.9552897148
   27      H       7.1506497081    -1.3781468803    -1.8353324686
   28      H       5.9789383722    -0.5082052621    -2.8719929409
   29      H       7.6940142272     0.6369652749    -0.6857655015
   30      H       6.5651730906     1.5537099633    -1.7318127748
   31      H       5.8742818724     1.2514445664     0.9819074600
   32      O      -3.6322175958    -1.8775636640     0.8477107665
   33      C      -6.6309219361    -1.0891130988     1.9594523204
   34      C      -4.5531781184     1.7553948182    -0.3108323378
   35      C      -3.6781605616     2.9188145064    -0.9301409195
   36      C      -2.6316959148     2.1007843075    -1.7741018253
   37      C      -3.0978553113     0.6211649482    -1.4756943836
   38      O      -4.5672548554     0.7275444636    -1.3781459939
   39      H      -3.2252415403     1.8115737290     1.4933208491
   40      H      -1.6358233711     0.6551361509     0.2181561419
   41      H      -6.8752143573    -0.6287983925     2.9388166784
   42      H      -5.5866638841     2.0363143603    -0.0326586670
   43      H      -4.2962037601     3.5667773731    -1.5717337018
   44      H      -3.2043199044     3.5395537317    -0.1527920012
   45      H      -2.7159908561     2.3225923609    -2.8499082937
   46      H      -1.5915136943     2.2786208152    -1.4570852614
   47      H      -2.8171064840    -0.1274013832    -2.2418186071
   48      H      -6.0964895270    -2.0442544465     2.1395842670
   49      H      -7.5625370934    -1.2855624014     1.3973699166
   50      H       0.0078116096     2.3796439480     0.4797623547
   51      H       1.2714276168     2.9327215666     1.6492754742
   52      H       0.7123121840     1.2230859105     1.6824391018
   53      H       0.9049026892    -2.9854535575    -0.0877765661
   54      H       0.3144389216    -3.1584946742    -1.7913883150
   55      H      -0.0389590465    -0.6598749058     0.0267323741
   56      H      -0.6791470692    -0.8043360464    -1.6569854219
 ----------------------------------------------------------------

    9   -1510.2769131143      5.50E-09 Convergence criterion met
 Total energy in the final basis set = -1510.27691311
 Final energy is   -1510.27691311426
 **  OPTIMIZATION CONVERGED  **

                    Orbital Energies (a.u.)
 --------------------------------------------------------------

 Alpha MOs
 -- Occupied --
-18.949 -18.943 -18.933 -18.918 -18.894 -18.893 -18.889 -18.887
-18.878 -18.854 -10.112 -10.109 -10.102 -10.088 -10.085 -10.084
-10.069 -10.069 -10.068 -10.062 -10.061 -10.050 -10.046 -10.044
-10.042 -10.035 -10.027 -10.026 -10.024 -10.024  -1.027  -1.015
 -1.011  -0.995  -0.976  -0.975  -0.951  -0.945  -0.938  -0.920
 -0.770  -0.767  -0.732  -0.725  -0.721  -0.710  -0.706  -0.668
 -0.649  -0.622  -0.603  -0.593  -0.552  -0.551  -0.543  -0.542
 -0.522  -0.513  -0.490  -0.482  -0.470  -0.465  -0.459  -0.455
 -0.443  -0.438  -0.435  -0.418  -0.416  -0.410  -0.407  -0.399
 -0.398  -0.394  -0.383  -0.368  -0.365  -0.362  -0.354  -0.351
 -0.348  -0.340  -0.338  -0.335  -0.332  -0.330  -0.324  -0.317
 -0.316  -0.313  -0.310  -0.304  -0.302  -0.289  -0.283  -0.280
 -0.274  -0.265  -0.257  -0.255  -0.243  -0.239  -0.236  -0.192
 -0.181  -0.179  -0.166  -0.160  -0.156  -0.155  -0.150  -0.149
 -0.136

          Ground-State Mulliken Net Atomic Charges

     Atom                 Charge (a.u.)
  ----------------------------------------
      1 O                    -0.222298
      2 C                     0.214754
      3 C                    -0.080444
      4 C                    -0.085643
      5 C                     0.213915
      6 O                    -0.168081
      7 C                    -0.050957
      8 C                    -0.046514
      9 O                    -0.169468
     10 C                     0.212288
     11 C                    -0.078791
     12 C                    -0.079766
     13 C                     0.215303
     14 O                    -0.207245
     15 O                    -0.169329
     16 O                    -0.179735
     17 O                    -0.211031
     18 C                    -0.130445
     19 C                     0.026138
     20 C                    -0.143741
     21 C                    -0.143795
     22 C                     0.024968
     23 O                    -0.186281
     24 H                     0.087517
     25 H                     0.084495
     26 H                     0.083893
     27 H                     0.079493
     28 H                     0.074194
     29 H                     0.079424
     30 H                     0.073581
     31 H                     0.091822
     32 O                    -0.191214
     33 C                    -0.126976
     34 C                     0.026752
     35 C                    -0.144685
     36 C                    -0.144075
     37 C                     0.023739
     38 O                    -0.183805
     39 H                     0.081348
     40 H                     0.079589
     41 H                     0.085486
     42 H                     0.090403
     43 H                     0.079035
     44 H                     0.073055
     45 H                     0.079014
     46 H                     0.070293
     47 H                     0.080357
     48 H                     0.094049
     49 H                     0.087141
     50 H                     0.080951
     51 H                     0.092275
     52 H                     0.091275
     53 H                     0.098585
     54 H                     0.095616
     55 H                     0.091898
     56 H                     0.081679
  ----------------------------------------
  Sum of atomic charges =     0.000000

                    Cartesian Multipole Moments
 -----------------------------------------------------------------
    Charge (ESU x 10^10)
                 0.0000
    Dipole Moment (Debye)
         X       2.0221      Y       2.4903      Z      -4.0703
       Tot       5.1825
    Quadrupole Moments (Debye-Ang)
        XX    -161.4425     XY      -5.2552     YY    -155.6872
        XZ     -11.1980     YZ       2.3637     ZZ    -168.0807

 Total job time:  190.67s(wall), 9088.03s(cpu)
        *  Thank you very much for using Q-Chem.  Have a nice day.  *
