 Q-Chem 5.0, Q-Chem, Inc., Pleasanton, CA (2017)
 Q-Chem 5.0.1 for Intel X86 EM64T Linux

User input:
--------------------------------------------------------------
$molecule
0  1
O 1.7000616501 0.8068481346 2.2889761315
C 2.605105281 0.97882827 1.4339188815
C 3.6810126757 -0.0763115775 0.9988686274
C 3.690387389 -0.3888002211 -0.5542767925
C 2.3633341166 -0.2272732434 -1.3841839749
O 1.5562535489 -1.4342583002 -1.3047784354
C 0.1801417743 -1.3230957811 -0.8044088429
C -0.0719571838 -0.9164840243 0.7070691165
O -1.4683464487 -0.4285235473 0.8575337984
C -1.6957151833 0.7980565727 0.1505512923
C -3.1206464152 0.8404757785 -0.5066471037
C -3.7419271139 -0.5591033695 -0.9065442601
C -3.1911939873 -1.8043923604 -0.1097768397
O -2.6617508563 -2.8185403344 -0.6204517785
O 2.7567778564 2.1648770461 0.6725128969
O -3.6646850973 -1.7572837256 1.2442264357
O -0.8410794944 1.705624394 0.024709973
C -3.2075499047 -2.960751518 1.971883907
C -4.3203316712 1.50221541 0.3152963057
C -5.2994692285 2.1240014478 -0.755483631
C -5.8899346692 0.8142911322 -1.4009622656
C -5.2533896961 -0.3051648233 -0.4803659167
O -5.0992608524 0.3601202366 0.8356146996
H -2.9629570492 1.4408383792 -1.4220877072
H -3.6212410114 -0.7653933446 -1.9844498698
H -4.0130284218 2.1775894511 1.1372586303
H -6.0844552411 2.7134455342 -0.2546581972
H -4.7802624329 2.7682808894 -1.4829862746
H -6.9891707678 0.7887415101 -1.335799976
H -5.5973585339 0.6933092918 -2.456525309
H -5.8580307417 -1.2269248506 -0.3777833904
O 2.0264568012 0.7715407555 -2.0550670913
C 1.6462861845 3.1058726085 0.9766328754
C 5.1247235937 0.5847774391 1.1296477883
C 6.2470095163 -0.4803167754 0.7926145154
C 6.2139203598 -0.4817645663 -0.7831381064
C 4.9598843335 0.4417724705 -1.0412759237
O 5.1453005989 1.5051362899 -0.0288685051
H 3.5514098431 -0.9876326005 1.6080179118
H 3.9264799661 -1.4658122542 -0.6522559919
H 1.640910655 3.3892356871 2.048082298
H 5.2783478228 1.1445516153 2.072939093
H 7.2225982492 -0.1459827226 1.1794722593
H 6.0182669107 -1.4693807098 1.221607593
H 7.1224141812 -0.0213421477 -1.2042986892
H 6.0947108132 -1.4907452353 -1.2092859785
H 4.8725753098 0.8785621811 -2.0548833817
H 0.6679713002 2.648097808 0.702041763
H 1.8384861532 3.9991717425 0.3557203757
H -3.7130801656 -2.9341401201 2.9545317736
H -2.1089789152 -2.947054397 2.1243935516
H -3.4763321927 -3.893585728 1.4352422792
H -0.0165451185 -1.8089310862 1.3603033161
H 0.6456906299 -0.1605753375 1.0931897875
H -0.2686602137 -2.3231403517 -0.9801892485
H -0.3907578194 -0.5959999363 -1.4295162723
$end

$rem
JOBTYPE                   OPT
METHOD                    B3LYP
DFT_D                     d3_op
BASIS                     STO-3G
GEOM_OPT_MAX_CYCLES       100
GEOM_OPT_TOL_GRADIENT     300
GEOM_OPT_TOL_DISPLACEMENT 1200
GEOM_OPT_TOL_ENERGY       100
SYMMETRY                  False
THRESH                    12
SCF_CONVERGENCE           8
MAX_SUB_FILE_NUM          128
MEM_STATIC                400
MEM_TOTAL                 4000
$end
--------------------------------------------------------------

   16   -1510.2504931437      5.82E-09 Convergence criterion met
 Total energy in the final basis set = -1510.25049314
   14   -1510.2530995581      4.76E-09 Convergence criterion met
 Total energy in the final basis set = -1510.25309956
   14   -1510.2624720117      3.41E-09 Convergence criterion met
 Total energy in the final basis set = -1510.26247201
   14   -1510.2689313676      5.17E-09 Convergence criterion met
 Total energy in the final basis set = -1510.26893137
   13   -1510.2732709161      6.92E-09 Convergence criterion met
 Total energy in the final basis set = -1510.27327092
   13   -1510.2774789467      2.97E-09 Convergence criterion met
 Total energy in the final basis set = -1510.27747895
   13   -1510.2804149358      5.14E-09 Convergence criterion met
 Total energy in the final basis set = -1510.28041494
   13   -1510.2828461774      4.51E-09 Convergence criterion met
   12   -1510.2996254764      7.48E-09 Convergence criterion met
 Total energy in the final basis set = -1510.29962548
   11   -1510.2996214552      8.69E-09 Convergence criterion met
 Total energy in the final basis set = -1510.29962146
   11   -1510.2996330322      3.59E-09 Convergence criterion met
 Total energy in the final basis set = -1510.29963303
   11   -1510.2996279110      3.88E-09 Convergence criterion met
 Total energy in the final basis set = -1510.29962791
   11   -1510.2996255394      2.28E-09 Convergence criterion met
 Total energy in the final basis set = -1510.29962554
    9   -1510.2996239947      7.19E-09 Convergence criterion met
 Total energy in the final basis set = -1510.29962399

             Standard Nuclear Orientation (Angstroms)
    I     Atom           X                Y                Z
 ----------------------------------------------------------------
    1      O       2.0408551459     1.5361339601     1.4787106773
    2      C       2.7819367771     1.3018716340     0.4943326093
    3      C       3.8498389181     0.1468228474     0.4091311115
    4      C       3.1973647908    -1.2910253527     0.6216731739
    5      C       1.6391742961    -1.2078175546     0.7330572225
    6      O       1.2446404188    -1.5291621580     2.0657593280
    7      C      -0.2096328699    -1.2791176667     2.2444949155
    8      C      -0.4639538537     0.2419097685     2.5943489791
    9      O      -1.7991311421     0.6498513691     2.0888592602
   10      C      -1.7057572698     1.1664247718     0.7652701205
   11      C      -3.1421786854     1.3654299912     0.1617616283
   12      C      -3.5172227320     0.1955864575    -0.8550269730
   13      C      -2.3736274135    -0.8637528918    -1.0271387594
   14      O      -1.9442935861    -1.6670709183    -0.1659010146
   15      O       2.7670027039     2.0545440283    -0.7098450077
   16      O      -1.8847285729    -0.7791099401    -2.3610122616
   17      O      -0.6289343196     1.3931307653     0.1675333143
   18      C      -0.7187968837    -1.6838204304    -2.5386492974
   19      C      -4.3061419200     1.2176823178     1.2256554916
   20      C      -5.6453381792     1.7525065877     0.5777520848
   21      C      -6.0102596665     0.5704847044    -0.3947297454
   22      C      -4.8009134625    -0.4128743147    -0.1413199631
   23      O      -4.5145898272    -0.2471069823     1.3010622691
   24      H      -3.1656749293     2.3437945404    -0.3512549137
   25      H      -3.7580432011     0.6018491931    -1.8527659135
   26      H      -4.0669811176     1.6264547674     2.2255945455
   27      H      -6.4172628009     1.8920519686     1.3510157397
   28      H      -5.4977586171     2.7080534727     0.0493841942
   29      H      -6.9610697264     0.0924536853    -0.1101949094
   30      H      -6.0750620110     0.8883008847    -1.4476601990
   31      H      -4.9966685729    -1.4769319911    -0.3766960798
   32      O       0.8426475219    -0.8855795905    -0.1775810466
   33      C       1.6782405447     3.0644698400    -0.6617486940
   34      C       4.5038213913    -0.0289553488    -1.0251702897
   35      C       5.8070660081    -0.9059729839    -0.8682872945
   36      C       5.1864711785    -2.3321008870    -0.6292486659
   37      C       3.6415228247    -2.0128359034    -0.7206404583
   38      O       3.5627957255    -0.9317919327    -1.7285943146
   39      H       4.6162033297     0.3371008855     1.1827657000
   40      H       3.5943062688    -1.7896126640     1.5228205664
   41      H       1.8990352577     3.8517146102     0.0874743220
   42      H       4.6237922064     0.9170679283    -1.5864263930
   43      H       6.4032007504    -0.8756232855    -1.7940855448
   44      H       6.4385040205    -0.5690696512    -0.0306596975
   45      H       5.4810658790    -3.0402532610    -1.4200566021
   46      H       5.4635284164    -2.7585882191     0.3480178529
   47      H       2.9989862355    -2.8647039873    -1.0168606898
   48      H       0.7092884578     2.5731204928    -0.4143060754
   49      H       1.6432668721     3.5139571856    -1.6705617953
   50      H      -0.3271473154    -1.4740150834    -3.5502307179
   51      H      -1.0270674491    -2.7470942946    -2.4731825043
   52      H       0.0535084879    -1.4682456047    -1.7645831268
   53      H      -0.4893074288     0.4019947675     3.6897879298
   54      H       0.3481530526     0.8611083405     2.1390647624
   55      H      -0.5304859672    -1.9387045460     3.0736275025
   56      H      -0.7823064266    -1.5292404608     1.3157133934
 ----------------------------------------------------------------

    9   -1510.2996233194      7.84E-09 Convergence criterion met
 Total energy in the final basis set = -1510.29962332
 Final energy is   -1510.29962331944
 **  OPTIMIZATION CONVERGED  **

                    Orbital Energies (a.u.)
 --------------------------------------------------------------

 Alpha MOs
 -- Occupied --
-18.933 -18.931 -18.929 -18.928 -18.885 -18.885 -18.873 -18.872
-18.868 -18.868 -10.099 -10.098 -10.097 -10.095 -10.058 -10.057
-10.056 -10.055 -10.049 -10.046 -10.043 -10.038 -10.036 -10.036
-10.034 -10.033 -10.019 -10.018 -10.018 -10.017  -1.012  -1.007
 -1.003  -1.002  -0.967  -0.966  -0.935  -0.930  -0.928  -0.927
 -0.761  -0.759  -0.723  -0.719  -0.707  -0.704  -0.684  -0.651
 -0.649  -0.610  -0.592  -0.573  -0.544  -0.542  -0.535  -0.533
 -0.510  -0.505  -0.478  -0.470  -0.460  -0.452  -0.446  -0.443
 -0.431  -0.430  -0.425  -0.414  -0.409  -0.403  -0.397  -0.393
 -0.385  -0.371  -0.365  -0.360  -0.360  -0.357  -0.354  -0.347
 -0.343  -0.331  -0.328  -0.327  -0.323  -0.318  -0.311  -0.307
 -0.304  -0.302  -0.299  -0.295  -0.285  -0.283  -0.279  -0.275
 -0.271  -0.260  -0.248  -0.236  -0.232  -0.231  -0.228  -0.182
 -0.173  -0.165  -0.158  -0.157  -0.151  -0.146  -0.143  -0.140
 -0.140

          Ground-State Mulliken Net Atomic Charges

     Atom                 Charge (a.u.)
  ----------------------------------------
      1 O                    -0.222853
      2 C                     0.215786
      3 C                    -0.078148
      4 C                    -0.079403
      5 C                     0.213968
      6 O                    -0.169734
      7 C                    -0.065794
      8 C                    -0.063920
      9 O                    -0.166461
     10 C                     0.215058
     11 C                    -0.078043
     12 C                    -0.079406
     13 C                     0.213751
     14 O                    -0.218637
     15 O                    -0.164840
     16 O                    -0.166610
     17 O                    -0.215348
     18 C                    -0.142688
     19 C                     0.025695
     20 C                    -0.144507
     21 C                    -0.143756
     22 C                     0.025369
     23 O                    -0.185455
     24 H                     0.083887
     25 H                     0.086428
     26 H                     0.088978
     27 H                     0.077411
     28 H                     0.072629
     29 H                     0.077494
     30 H                     0.073493
     31 H                     0.083471
     32 O                    -0.213958
     33 C                    -0.141427
     34 C                     0.024032
     35 C                    -0.144212
     36 C                    -0.144125
     37 C                     0.025326
     38 O                    -0.187188
     39 H                     0.083596
     40 H                     0.086345
     41 H                     0.079508
     42 H                     0.092722
     43 H                     0.077502
     44 H                     0.072674
     45 H                     0.077468
     46 H                     0.073508
     47 H                     0.082540
     48 H                     0.118841
     49 H                     0.084878
     50 H                     0.085349
     51 H                     0.078398
     52 H                     0.118695
     53 H                     0.083278
     54 H                     0.115820
     55 H                     0.084033
     56 H                     0.118586
  ----------------------------------------
  Sum of atomic charges =     0.000000

                    Cartesian Multipole Moments
 -----------------------------------------------------------------
    Charge (ESU x 10^10)
                 0.0000
    Dipole Moment (Debye)
         X       0.5424      Y       0.7264      Z      -0.3107
       Tot       0.9583
    Quadrupole Moments (Debye-Ang)
        XX    -140.1117     XY      -8.2955     YY    -152.5023
        XZ       6.2775     YZ       1.4596     ZZ    -162.7571

 Total job time:  207.59s(wall), 9906.96s(cpu)
        *  Thank you very much for using Q-Chem.  Have a nice day.  *
