 Q-Chem 5.0, Q-Chem, Inc., Pleasanton, CA (2017)
 Q-Chem 5.0.1 for Intel X86 EM64T Linux

User input:
--------------------------------------------------------------
$molecule
0  1
O -3.94934 -3.66094 2.70899
C -3.26408 -4.56952 2.26188
C -3.36658 -6.02376 2.66595
C -3.63629 -7.04588 1.54953
C -3.59671 -6.52161 0.1312
O -4.81385 -6.00126 -0.20528
C -4.74548 -4.63408 -0.62409
C -4.32776 -3.74679 0.54397
O -3.83604 -2.49001 0.05247
C -2.68198 -2.55261 -0.65702
C -2.65802 -1.59794 -1.82692
C -4.03491 -1.26828 -2.42171
C -5.22996 -1.6378 -1.56612
O -6.14832 -2.36835 -1.90886
O -1.97239 -4.23542 1.94778
O -5.47399 -0.82505 -0.4897
O -1.801 -3.4026 -0.56259
C -6.62919 -0.83745 0.26568
C -2.17521 -0.17499 -1.466
C -1.60721 0.49715 -2.716
C -2.87426 0.70501 -3.52537
C -3.92752 0.26606 -2.49942
O -3.3446 0.5767 -1.25623
H -1.94192 -2.00712 -2.57689
H -4.17596 -1.76053 -3.40921
H -1.42821 -0.15929 -0.64245
H -1.22393 1.49197 -2.39296
H -0.79453 -0.04873 -3.24172
H -2.96365 1.78766 -3.76471
H -2.94938 0.09809 -4.45372
H -4.91124 0.74056 -2.71076
O -2.68235 -6.66672 -0.66962
C -1.35804 -3.04888 2.30958
C -2.05868 -6.5893 3.26296
C -2.35097 -7.82508 4.11469
C -2.64544 -8.84249 3.03632
C -2.43267 -7.98946 1.78321
O -1.38971 -7.12058 2.14873
H -4.15606 -6.06482 3.44972
H -4.57863 -7.62587 1.67363
H -1.30827 -2.97492 3.41663
H -1.49753 -5.8426 3.86687
H -1.41056 -8.12095 4.63225
H -3.1573 -7.67916 4.86535
H -1.86304 -9.6333 3.07731
H -3.65312 -9.30898 3.08167
H -2.23241 -8.65252 0.91255
H -1.91148 -2.1722 1.91576
H -0.32473 -3.03593 1.90672
H -6.54295 -0.08188 1.07304
H -6.78261 -1.83552 0.72468
H -7.50313 -0.58222 -0.3706
H -5.32614 -3.6738 1.05797
H -3.51734 -4.35124 0.23811
H -5.77748 -4.37828 -0.92237
H -4.16913 -4.56557 -1.60048
$end

$opt
CONSTRAINT
tors           1           2           3           4    +123.158
tors           3           4           5           6     -85.263
tors           4           5           6           7    +123.158
tors           5           6           7           8     -66.316
tors           6           7           8           9    +161.053
tors           7           8           9          10     -66.316
tors           8           9          10          11    +142.105
tors           9          10          11          12     -28.421
tors          11          12          13          14    -123.158
ENDCONSTRAINT
$end

$rem
JOBTYPE                   OPT
METHOD                    B3LYP
DFT_D                     d3_op
BASIS                     STO-3G
GEOM_OPT_MAX_CYCLES       100
GEOM_OPT_TOL_GRADIENT     300
GEOM_OPT_TOL_DISPLACEMENT 1200
GEOM_OPT_TOL_ENERGY       100
SYMMETRY                  False
THRESH                    12
SCF_CONVERGENCE           8
MAX_SUB_FILE_NUM          128
MEM_STATIC                400
MEM_TOTAL                 4000
$end
--------------------------------------------------------------

   16   -1509.9262125466      3.08E-09 Convergence criterion met
 Total energy in the final basis set = -1509.92621255
   15   -1510.0221501293      2.12E-09 Convergence criterion met
 Total energy in the final basis set = -1510.02215013
   14   -1510.0981840959      5.31E-09 Convergence criterion met
 Total energy in the final basis set = -1510.09818410
   14   -1510.1546551117      5.16E-09 Convergence criterion met
 Total energy in the final basis set = -1510.15465511
   14   -1510.1926985900      6.14E-09 Convergence criterion met
 Total energy in the final basis set = -1510.19269859
   14   -1510.2152642284      6.86E-09 Convergence criterion met
 Total energy in the final basis set = -1510.21526423
   14   -1510.2275389217      5.24E-09 Convergence criterion met
 Total energy in the final basis set = -1510.22753892
   13   -1510.2341050996      9.84E-09 Convergence criterion met
   11   -1510.2504413901      6.81E-09 Convergence criterion met
 Total energy in the final basis set = -1510.25044139
   11   -1510.2504705445      3.40E-09 Convergence criterion met
 Total energy in the final basis set = -1510.25047054
   11   -1510.2504882529      4.19E-09 Convergence criterion met
 Total energy in the final basis set = -1510.25048825
   11   -1510.2504960832      3.33E-09 Convergence criterion met
 Total energy in the final basis set = -1510.25049608
   10   -1510.2505020118      9.87E-09 Convergence criterion met
 Total energy in the final basis set = -1510.25050201
   10   -1510.2505048035      8.19E-09 Convergence criterion met
 Total energy in the final basis set = -1510.25050480

             Standard Nuclear Orientation (Angstroms)
    I     Atom           X                Y                Z
 ----------------------------------------------------------------
    1      O       1.7000616501     0.8068481346     2.2889761315
    2      C       2.6051052810     0.9788282700     1.4339188815
    3      C       3.6810126757    -0.0763115775     0.9988686274
    4      C       3.6903873890    -0.3888002211    -0.5542767925
    5      C       2.3633341166    -0.2272732434    -1.3841839749
    6      O       1.5562535489    -1.4342583002    -1.3047784354
    7      C       0.1801417743    -1.3230957811    -0.8044088429
    8      C      -0.0719571838    -0.9164840243     0.7070691165
    9      O      -1.4683464487    -0.4285235473     0.8575337984
   10      C      -1.6957151833     0.7980565727     0.1505512923
   11      C      -3.1206464152     0.8404757785    -0.5066471037
   12      C      -3.7419271139    -0.5591033695    -0.9065442601
   13      C      -3.1911939873    -1.8043923604    -0.1097768397
   14      O      -2.6617508563    -2.8185403344    -0.6204517785
   15      O       2.7567778564     2.1648770461     0.6725128969
   16      O      -3.6646850973    -1.7572837256     1.2442264357
   17      O      -0.8410794944     1.7056243940     0.0247099730
   18      C      -3.2075499047    -2.9607515180     1.9718839070
   19      C      -4.3203316712     1.5022154100     0.3152963057
   20      C      -5.2994692285     2.1240014478    -0.7554836310
   21      C      -5.8899346692     0.8142911322    -1.4009622656
   22      C      -5.2533896961    -0.3051648233    -0.4803659167
   23      O      -5.0992608524     0.3601202366     0.8356146996
   24      H      -2.9629570492     1.4408383792    -1.4220877072
   25      H      -3.6212410114    -0.7653933446    -1.9844498698
   26      H      -4.0130284218     2.1775894511     1.1372586303
   27      H      -6.0844552411     2.7134455342    -0.2546581972
   28      H      -4.7802624329     2.7682808894    -1.4829862746
   29      H      -6.9891707678     0.7887415101    -1.3357999760
   30      H      -5.5973585339     0.6933092918    -2.4565253090
   31      H      -5.8580307417    -1.2269248506    -0.3777833904
   32      O       2.0264568012     0.7715407555    -2.0550670913
   33      C       1.6462861845     3.1058726085     0.9766328754
   34      C       5.1247235937     0.5847774391     1.1296477883
   35      C       6.2470095163    -0.4803167754     0.7926145154
   36      C       6.2139203598    -0.4817645663    -0.7831381064
   37      C       4.9598843335     0.4417724705    -1.0412759237
   38      O       5.1453005989     1.5051362899    -0.0288685051
   39      H       3.5514098431    -0.9876326005     1.6080179118
   40      H       3.9264799661    -1.4658122542    -0.6522559919
   41      H       1.6409106550     3.3892356871     2.0480822980
   42      H       5.2783478228     1.1445516153     2.0729390930
   43      H       7.2225982492    -0.1459827226     1.1794722593
   44      H       6.0182669107    -1.4693807098     1.2216075930
   45      H       7.1224141812    -0.0213421477    -1.2042986892
   46      H       6.0947108132    -1.4907452353    -1.2092859785
   47      H       4.8725753098     0.8785621811    -2.0548833817
   48      H       0.6679713002     2.6480978080     0.7020417630
   49      H       1.8384861532     3.9991717425     0.3557203757
   50      H      -3.7130801656    -2.9341401201     2.9545317736
   51      H      -2.1089789152    -2.9470543970     2.1243935516
   52      H      -3.4763321927    -3.8935857280     1.4352422792
   53      H      -0.0165451185    -1.8089310862     1.3603033161
   54      H       0.6456906299    -0.1605753375     1.0931897875
   55      H      -0.2686602137    -2.3231403517    -0.9801892485
   56      H      -0.3907578194    -0.5959999363    -1.4295162723
 ----------------------------------------------------------------

    9   -1510.2505052369      7.52E-09 Convergence criterion met
 Total energy in the final basis set = -1510.25050524
 Final energy is   -1510.25050523685
 **  OPTIMIZATION CONVERGED  **

                    Orbital Energies (a.u.)
 --------------------------------------------------------------

 Alpha MOs
 -- Occupied --
-18.940 -18.938 -18.922 -18.908 -18.898 -18.895 -18.891 -18.890
-18.872 -18.858 -10.115 -10.108 -10.101 -10.093 -10.072 -10.064
-10.064 -10.064 -10.061 -10.060 -10.055 -10.044 -10.043 -10.041
-10.038 -10.037 -10.023 -10.022 -10.021 -10.021  -1.021  -1.013
 -1.004  -1.000  -0.972  -0.972  -0.949  -0.936  -0.934  -0.924
 -0.766  -0.765  -0.726  -0.724  -0.711  -0.706  -0.697  -0.654
 -0.652  -0.621  -0.601  -0.588  -0.550  -0.544  -0.539  -0.539
 -0.513  -0.512  -0.487  -0.481  -0.471  -0.466  -0.443  -0.437
 -0.435  -0.432  -0.425  -0.416  -0.410  -0.407  -0.404  -0.396
 -0.387  -0.384  -0.371  -0.367  -0.364  -0.359  -0.354  -0.348
 -0.345  -0.341  -0.335  -0.334  -0.332  -0.328  -0.325  -0.316
 -0.310  -0.308  -0.308  -0.305  -0.301  -0.294  -0.284  -0.282
 -0.276  -0.252  -0.243  -0.242  -0.235  -0.235  -0.230  -0.188
 -0.177  -0.167  -0.160  -0.159  -0.158  -0.150  -0.145  -0.142
 -0.141

          Ground-State Mulliken Net Atomic Charges

     Atom                 Charge (a.u.)
  ----------------------------------------
      1 O                    -0.222381
      2 C                     0.206672
      3 C                    -0.078220
      4 C                    -0.081858
      5 C                     0.214018
      6 O                    -0.197046
      7 C                    -0.050570
      8 C                    -0.064655
      9 O                    -0.168811
     10 C                     0.217715
     11 C                    -0.081695
     12 C                    -0.080415
     13 C                     0.213145
     14 O                    -0.231721
     15 O                    -0.155791
     16 O                    -0.162114
     17 O                    -0.204016
     18 C                    -0.126829
     19 C                     0.027202
     20 C                    -0.141641
     21 C                    -0.145636
     22 C                     0.027280
     23 O                    -0.180800
     24 H                     0.086393
     25 H                     0.084056
     26 H                     0.086071
     27 H                     0.078695
     28 H                     0.074662
     29 H                     0.078568
     30 H                     0.073983
     31 H                     0.084384
     32 O                    -0.181411
     33 C                    -0.142178
     34 C                     0.026718
     35 C                    -0.145358
     36 C                    -0.141429
     37 C                     0.025650
     38 O                    -0.181832
     39 H                     0.086835
     40 H                     0.084897
     41 H                     0.082909
     42 H                     0.083217
     43 H                     0.078792
     44 H                     0.073664
     45 H                     0.078251
     46 H                     0.073746
     47 H                     0.088920
     48 H                     0.112981
     49 H                     0.088899
     50 H                     0.089460
     51 H                     0.082281
     52 H                     0.087251
     53 H                     0.087588
     54 H                     0.104319
     55 H                     0.101331
     56 H                     0.075854
  ----------------------------------------
  Sum of atomic charges =     0.000000

                    Cartesian Multipole Moments
 -----------------------------------------------------------------
    Charge (ESU x 10^10)
                 0.0000
    Dipole Moment (Debye)
         X       0.0730      Y      -0.8873      Z       0.0175
       Tot       0.8905
    Quadrupole Moments (Debye-Ang)
        XX    -145.5781     XY     -10.3761     YY    -160.7282
        XZ       9.7047     YZ      -2.5695     ZZ    -161.9860

 Total job time:  141.37s(wall), 6744.20s(cpu)
        *  Thank you very much for using Q-Chem.  Have a nice day.  *
