 Q-Chem 5.0, Q-Chem, Inc., Pleasanton, CA (2017)
 Q-Chem 5.0.1 for Intel X86 EM64T Linux

User input:
--------------------------------------------------------------
$molecule
0  1
O 0.0795492498 0.3615675964 1.9606718807
C 1.2476820598 0.1929083153 1.543324668
C 1.7355536318 -0.6341306497 0.3008286155
C 2.9366851357 0.0573926601 -0.4635796367
C 3.1353011326 1.6067851159 -0.2252876169
O 2.1732568128 2.5846716516 -0.6682178861
C 0.7166354899 2.4950055021 -0.4551831625
C 0.0280707685 1.6356125148 -1.5920415877
O -1.4300028747 1.5861334281 -1.3177844986
C -2.0567511253 0.5035657554 -2.0149766886
C -3.4549547735 0.153298664 -1.3724757202
C -3.3839988811 -0.8452591166 -0.1415226175
C -2.1003791177 -1.7285274208 -0.1301633264
O -0.9691524316 -1.4666660049 0.3273962134
O 2.3974590915 0.8187005188 2.1314810565
O -2.4323449632 -2.9669803554 -0.775152918
O -1.5059560076 -0.1264038732 -2.9468481099
C -1.2381030126 -3.8389224104 -0.8728649835
C -4.0334800302 1.4307713691 -0.6231081929
C -5.491863698 1.1319774636 -0.0845213183
C -5.183749433 0.3024203651 1.2191140648
C -3.6198382244 0.1357648918 1.0879971475
O -3.1998435943 1.467841411 0.6030591609
H -4.1172170136 -0.2351818882 -2.1662849852
H -4.2294737446 -1.5517117774 -0.2245723961
H -3.9282040912 2.375911772 -1.1895445239
H -6.01822586 2.071487061 0.1459096885
H -6.0907845478 0.5636657938 -0.8144258146
H -5.4314147939 0.875345381 2.1272987905
H -5.7153028401 -0.6620943636 1.2505935738
H -3.0725618761 -0.1324001249 2.0123856687
O 4.2450094564 2.0798989465 0.1121201808
C 2.0061666997 1.6601183718 3.2852627496
C 2.4819742937 -1.9303929361 0.8474542217
C 2.8783272436 -2.8612155749 -0.3689167425
C 4.1559897404 -2.1241702652 -0.9213559598
C 4.1656714597 -0.836320996 -0.0087819067
O 3.7740442977 -1.3777889325 1.3130072544
H 0.8564784808 -0.891168775 -0.3120616441
H 2.7799144127 -0.0620614362 -1.5535980881
H 2.499004877 1.2718679058 4.1977689191
H 1.9544891216 -2.4429108694 1.6755982521
H 3.1155297276 -3.8775163716 -0.0166938929
H 2.0705373597 -2.9277749041 -1.1159167718
H 5.0670794154 -2.7205311178 -0.7521729388
H 4.0829096584 -1.8840841905 -1.9941172602
H 5.1228362021 -0.2837673067 0.0604617707
H 0.9037999146 1.6310409925 3.4040522918
H 2.3464855356 2.696939912 3.0961443935
H -1.5279296622 -4.8578829262 -0.5529163785
H -0.4297451028 -3.4440452661 -0.2248795451
H -0.8870411387 -3.8703380725 -1.9240643219
H 0.2247131712 2.1093004314 -2.579660747
H 0.4455180125 0.610500206 -1.6246260777
H 0.3570080675 3.5423564334 -0.5260533314
H 0.4322402071 2.0913345147 0.5369592677
$end

$rem
JOBTYPE                   OPT
METHOD                    B3LYP
DFT_D                     d3_op
BASIS                     STO-3G
GEOM_OPT_MAX_CYCLES       100
GEOM_OPT_TOL_GRADIENT     300
GEOM_OPT_TOL_DISPLACEMENT 1200
GEOM_OPT_TOL_ENERGY       100
SYMMETRY                  False
THRESH                    12
SCF_CONVERGENCE           8
MAX_SUB_FILE_NUM          128
MEM_STATIC                400
MEM_TOTAL                 4000
$end
--------------------------------------------------------------

   16   -1510.2526467010      5.53E-09 Convergence criterion met
 Total energy in the final basis set = -1510.25264670
   15   -1510.2573896972      6.59E-09 Convergence criterion met
 Total energy in the final basis set = -1510.25738970
   15   -1510.2664648620      5.67E-09 Convergence criterion met
 Total energy in the final basis set = -1510.26646486
   14   -1510.2712335116      2.27E-09 Convergence criterion met
 Total energy in the final basis set = -1510.27123351
   15   -1510.2723515692      4.63E-09 Convergence criterion met
 Total energy in the final basis set = -1510.27235157
   14   -1510.2742985045      2.90E-09 Convergence criterion met
 Total energy in the final basis set = -1510.27429850
   13   -1510.2762546519      9.12E-09 Convergence criterion met
 Total energy in the final basis set = -1510.27625465
   14   -1510.2771049912      2.71E-09 Convergence criterion met
   10   -1510.2896498640      7.96E-09 Convergence criterion met
 Total energy in the final basis set = -1510.28964986
    9   -1510.2896529433      7.65E-09 Convergence criterion met
 Total energy in the final basis set = -1510.28965294
   10   -1510.2896778420      6.64E-09 Convergence criterion met
 Total energy in the final basis set = -1510.28967784
   10   -1510.2896819773      8.31E-09 Convergence criterion met
 Total energy in the final basis set = -1510.28968198
   12   -1510.2896865434      2.54E-09 Convergence criterion met
 Total energy in the final basis set = -1510.28968654
   11   -1510.2896861638      4.44E-09 Convergence criterion met
 Total energy in the final basis set = -1510.28968616

             Standard Nuclear Orientation (Angstroms)
    I     Atom           X                Y                Z
 ----------------------------------------------------------------
    1      O       1.1331315903     1.9875028821     2.5273946368
    2      C       1.9001975623     1.4163654488     1.7201962014
    3      C       1.6633694731     0.0619561033     0.9780853469
    4      C       2.1375667852     0.0546838304    -0.5381542676
    5      C       2.7592724449     1.4012136227    -1.0939856595
    6      O       1.9310193543     2.5857530221    -1.2235036246
    7      C       0.4833159854     2.3599948031    -1.0935503660
    8      C      -0.1645229052     1.7845730200    -2.4188627035
    9      O      -1.5639346678     1.3833551393    -2.1324100413
   10      C      -1.6101933717     0.0981290673    -1.5171947206
   11      C      -3.0463707543    -0.1179174497    -0.9323181792
   12      C      -3.1482468074    -1.3991476967    -0.0108376510
   13      C      -1.8452148270    -2.2781038245     0.0526089629
   14      O      -0.9637282193    -2.2506668641     0.9420746418
   15      O       3.1795144052     1.9242932485     1.3250212184
   16      O      -1.9363914974    -3.2502862341    -0.9919871008
   17      O      -0.6438663095    -0.7005132310    -1.4497271987
   18      C      -0.7612797563    -4.1483119957    -0.9816120905
   19      C      -3.3832752526     1.0321940666     0.1146974718
   20      C      -4.9211463188     0.9715361654     0.4637342502
   21      C      -4.9709594041    -0.2867897303     1.4080484055
   22      C      -3.4578799436    -0.7324467441     1.3963893452
   23      O      -2.7168164393     0.5505630944     1.3452197783
   24      H      -3.7744713673    -0.1432350432    -1.7636858944
   25      H      -3.9739987255    -2.0508333509    -0.3465711453
   26      H      -2.9988437255     2.0278836660    -0.1801698898
   27      H      -5.2289799040     1.8873296068     0.9928398236
   28      H      -5.5461835239     0.8567389463    -0.4363683603
   29      H      -5.2839602825    -0.0133628896     2.4282726363
   30      H      -5.6399581614    -1.0770623549     1.0313747637
   31      H      -3.1250969877    -1.3326589331     2.2650518603
   32      O       3.9406483945     1.5146922228    -1.4833406257
   33      C       3.4274664782     3.2551825477     1.9233672230
   34      C       2.5780546405    -1.1005464181     1.5684951321
   35      C       2.0300658475    -2.4786326630     1.0183088139
   36      C       2.5947253378    -2.4633606994    -0.4497629524
   37      C       3.2800623806    -1.0478973618    -0.4938835385
   38      O       3.8610458414    -0.9056294806     0.8610062675
   39      H       0.5925080281    -0.2002247115     1.0678145306
   40      H       1.2851247468    -0.2683024706    -1.1692116015
   41      H       4.3730722810     3.2162312637     2.4979998709
   42      H       2.7244043944    -1.0530678349     2.6651822887
   43      H       2.4411378929    -3.3169354688     1.6020179872
   44      H       0.9230866015    -2.5149155466     1.0410763896
   45      H       3.3401324783    -3.2588028143    -0.6098593925
   46      H       1.8069088727    -2.5580929391    -1.2134391359
   47      H       4.0621489564    -0.9034582583    -1.2640493874
   48      H       2.5825337081     3.5221041414     2.5902063644
   49      H       3.5219837608     3.9987963885     1.1074683005
   50      H      -1.0218067511    -5.0084621874    -1.6254695095
   51      H      -0.5240685455    -4.5012382708     0.0420611674
   52      H       0.1306185001    -3.6364189398    -1.3949264172
   53      H      -0.2204696789     2.5665559046    -3.2011551163
   54      H       0.4254830452     0.9250068659    -2.7998032861
   55      H       0.0433523020     3.3558702766    -0.8830622418
   56      H       0.2198220222     1.6884253293    -0.2519368582
 ----------------------------------------------------------------

    9   -1510.2896866656      5.17E-09 Convergence criterion met
 Total energy in the final basis set = -1510.28968667
 Final energy is   -1510.28968666555
 **  OPTIMIZATION CONVERGED  **

                    Orbital Energies (a.u.)
 --------------------------------------------------------------

 Alpha MOs
 -- Occupied --
-18.960 -18.940 -18.929 -18.923 -18.908 -18.897 -18.880 -18.873
-18.869 -18.865 -10.127 -10.109 -10.092 -10.091 -10.086 -10.078
-10.070 -10.067 -10.066 -10.054 -10.050 -10.046 -10.045 -10.043
-10.029 -10.027 -10.026 -10.019 -10.005  -9.993  -1.039  -1.015
 -1.007  -0.995  -0.980  -0.964  -0.956  -0.942  -0.930  -0.929
 -0.774  -0.750  -0.735  -0.722  -0.709  -0.706  -0.690  -0.668
 -0.650  -0.625  -0.598  -0.585  -0.555  -0.546  -0.539  -0.526
 -0.521  -0.501  -0.494  -0.479  -0.472  -0.466  -0.457  -0.450
 -0.439  -0.432  -0.425  -0.417  -0.410  -0.408  -0.403  -0.400
 -0.395  -0.390  -0.382  -0.379  -0.365  -0.361  -0.356  -0.351
 -0.347  -0.343  -0.337  -0.334  -0.328  -0.324  -0.318  -0.316
 -0.312  -0.302  -0.298  -0.293  -0.293  -0.285  -0.283  -0.280
 -0.271  -0.266  -0.253  -0.244  -0.242  -0.230  -0.221  -0.204
 -0.182  -0.179  -0.167  -0.163  -0.159  -0.154  -0.151  -0.138
 -0.130

          Ground-State Mulliken Net Atomic Charges

     Atom                 Charge (a.u.)
  ----------------------------------------
      1 O                    -0.215627
      2 C                     0.204489
      3 C                    -0.084688
      4 C                    -0.096832
      5 C                     0.211919
      6 O                    -0.176076
      7 C                    -0.053428
      8 C                    -0.052977
      9 O                    -0.167821
     10 C                     0.218874
     11 C                    -0.077615
     12 C                    -0.081912
     13 C                     0.221736
     14 O                    -0.219356
     15 O                    -0.163581
     16 O                    -0.170136
     17 O                    -0.209140
     18 C                    -0.129486
     19 C                     0.024344
     20 C                    -0.143832
     21 C                    -0.143591
     22 C                     0.025131
     23 O                    -0.188301
     24 H                     0.090542
     25 H                     0.087206
     26 H                     0.087954
     27 H                     0.080754
     28 H                     0.074676
     29 H                     0.080454
     30 H                     0.074518
     31 H                     0.089735
     32 O                    -0.201777
     33 C                    -0.134768
     34 C                     0.026669
     35 C                    -0.159142
     36 C                    -0.144805
     37 C                     0.024918
     38 O                    -0.189093
     39 H                     0.092156
     40 H                     0.093215
     41 H                     0.087974
     42 H                     0.079698
     43 H                     0.068858
     44 H                     0.097993
     45 H                     0.072690
     46 H                     0.067061
     47 H                     0.088651
     48 H                     0.099558
     49 H                     0.089967
     50 H                     0.090429
     51 H                     0.092503
     52 H                     0.089710
     53 H                     0.096158
     54 H                     0.093388
     55 H                     0.091581
     56 H                     0.088472
  ----------------------------------------
  Sum of atomic charges =     0.000000

                    Cartesian Multipole Moments
 -----------------------------------------------------------------
    Charge (ESU x 10^10)
                 0.0000
    Dipole Moment (Debye)
         X      -5.3677      Y      -1.2742      Z      -1.5846
       Tot       5.7399
    Quadrupole Moments (Debye-Ang)
        XX    -164.7787     XY      -1.7485     YY    -152.5108
        XZ       4.4941     YZ       1.0720     ZZ    -161.0635

 Total job time:  129.19s(wall), 6163.65s(cpu)
        *  Thank you very much for using Q-Chem.  Have a nice day.  *
