 Q-Chem 5.0, Q-Chem, Inc., Pleasanton, CA (2017)
 Q-Chem 5.0.1 for Intel X86 EM64T Linux

User input:
--------------------------------------------------------------
$molecule
0  1
O -3.94934 -3.66094 2.70899
C -3.26408 -4.56952 2.26188
C -3.36658 -6.02376 2.66595
C -3.18715 -7.07505 1.5585
C -2.74922 -6.56083 0.20502
O -3.73364 -5.78472 -0.3372
C -4.26144 -4.82166 0.58106
C -5.3614 -5.45178 1.4291
O -5.88719 -4.48145 2.34828
C -6.56469 -4.98907 3.40774
C -6.69522 -4.0073 4.5478
C -5.50188 -3.97467 5.5138
C -4.23312 -4.63988 5.01937
O -3.38046 -4.10989 4.32177
O -2.04279 -4.22775 1.72169
O -3.82555 -5.59394 5.8942
O -7.20602 -6.03117 3.36217
C -2.73473 -5.44101 6.73399
C -6.80284 -2.52 4.15673
C -7.50052 -1.74429 5.27365
C -6.42582 -1.76045 6.34383
C -5.28588 -2.44746 5.58184
O -5.48452 -2.04001 4.24882
H -7.6209 -4.30027 5.09482
H -5.7627 -4.3917 6.51388
H -7.32186 -2.3584 3.18697
H -7.62796 -0.69783 4.91449
H -8.48825 -2.14549 5.58716
H -6.15574 -0.70816 6.58424
H -6.68891 -2.30779 7.27476
H -4.30331 -2.18476 6.03257
O -1.76977 -6.91718 -0.43459
C -1.59794 -2.94824 1.44396
C -2.10314 -6.46851 3.51263
C -2.39732 -7.73331 4.34162
C -2.4434 -8.77957 3.27089
C -2.02113 -7.93336 2.07749
O -1.16575 -6.95892 2.59473
H -4.20015 -6.29497 3.34134
H -4.02875 -7.77537 1.37718
H -0.67552 -2.74973 2.02702
H -1.68391 -5.68801 4.1757
H -1.49092 -7.92185 4.96178
H -3.287 -7.74244 5.00033
H -1.68944 -9.56423 3.50489
H -3.4388 -9.24531 3.10241
H -1.58414 -8.603 1.30321
H -2.35076 -2.17013 1.69142
H -1.36098 -2.87514 0.36264
H -3.07963 -5.52318 7.78516
H -2.24432 -4.45086 6.60622
H -1.98831 -6.23674 6.55595
H -6.2085 -5.6264 0.71664
H -5.51783 -6.49783 1.74304
H -4.97494 -4.28003 -0.08502
H -4.02127 -3.75774 0.26913
$end

$opt
CONSTRAINT
tors           1           2           3           4    +142.105
tors           3           4           5           6     -66.316
tors           4           5           6           7     +47.368
tors           5           6           7           8     -85.263
tors           6           7           8           9    -180.000
tors           7           8           9          10    -161.053
tors           8           9          10          11    +161.053
tors           9          10          11          12     -85.263
tors          11          12          13          14     +85.263
ENDCONSTRAINT
$end

$rem
JOBTYPE                   OPT
METHOD                    B3LYP
DFT_D                     d3_op
BASIS                     STO-3G
GEOM_OPT_MAX_CYCLES       100
GEOM_OPT_TOL_GRADIENT     300
GEOM_OPT_TOL_DISPLACEMENT 1200
GEOM_OPT_TOL_ENERGY       100
SYMMETRY                  False
THRESH                    12
SCF_CONVERGENCE           8
MAX_SUB_FILE_NUM          128
MEM_STATIC                400
MEM_TOTAL                 4000
$end
--------------------------------------------------------------

   16   -1509.7777759840      3.40E-09 Convergence criterion met
 Total energy in the final basis set = -1509.77777598
   14   -1509.8843101790      6.40E-09 Convergence criterion met
 Total energy in the final basis set = -1509.88431018
   14   -1509.9570491603      4.34E-09 Convergence criterion met
 Total energy in the final basis set = -1509.95704916
   14   -1510.0138581214      4.95E-09 Convergence criterion met
 Total energy in the final basis set = -1510.01385812
   14   -1510.0554308198      3.95E-09 Convergence criterion met
 Total energy in the final basis set = -1510.05543082
   13   -1510.0875434039      9.93E-09 Convergence criterion met
 Total energy in the final basis set = -1510.08754340
   13   -1510.1130925140      7.22E-09 Convergence criterion met
 Total energy in the final basis set = -1510.11309251
   13   -1510.1340746948      7.86E-09 Convergence criterion met
   11   -1510.2527216712      4.36E-09 Convergence criterion met
 Total energy in the final basis set = -1510.25272167
   11   -1510.2527385378      4.02E-09 Convergence criterion met
 Total energy in the final basis set = -1510.25273854
   11   -1510.2527446860      4.01E-09 Convergence criterion met
 Total energy in the final basis set = -1510.25274469
   10   -1510.2527489670      9.12E-09 Convergence criterion met
 Total energy in the final basis set = -1510.25274897
    9   -1510.2527501296      5.71E-09 Convergence criterion met
 Total energy in the final basis set = -1510.25275013
    9   -1510.2527518213      6.15E-09 Convergence criterion met
 Total energy in the final basis set = -1510.25275182

             Standard Nuclear Orientation (Angstroms)
    I     Atom           X                Y                Z
 ----------------------------------------------------------------
    1      O       0.0795492498     0.3615675964     1.9606718807
    2      C       1.2476820598     0.1929083153     1.5433246680
    3      C       1.7355536318    -0.6341306497     0.3008286155
    4      C       2.9366851357     0.0573926601    -0.4635796367
    5      C       3.1353011326     1.6067851159    -0.2252876169
    6      O       2.1732568128     2.5846716516    -0.6682178861
    7      C       0.7166354899     2.4950055021    -0.4551831625
    8      C       0.0280707685     1.6356125148    -1.5920415877
    9      O      -1.4300028747     1.5861334281    -1.3177844986
   10      C      -2.0567511253     0.5035657554    -2.0149766886
   11      C      -3.4549547735     0.1532986640    -1.3724757202
   12      C      -3.3839988811    -0.8452591166    -0.1415226175
   13      C      -2.1003791177    -1.7285274208    -0.1301633264
   14      O      -0.9691524316    -1.4666660049     0.3273962134
   15      O       2.3974590915     0.8187005188     2.1314810565
   16      O      -2.4323449632    -2.9669803554    -0.7751529180
   17      O      -1.5059560076    -0.1264038732    -2.9468481099
   18      C      -1.2381030126    -3.8389224104    -0.8728649835
   19      C      -4.0334800302     1.4307713691    -0.6231081929
   20      C      -5.4918636980     1.1319774636    -0.0845213183
   21      C      -5.1837494330     0.3024203651     1.2191140648
   22      C      -3.6198382244     0.1357648918     1.0879971475
   23      O      -3.1998435943     1.4678414110     0.6030591609
   24      H      -4.1172170136    -0.2351818882    -2.1662849852
   25      H      -4.2294737446    -1.5517117774    -0.2245723961
   26      H      -3.9282040912     2.3759117720    -1.1895445239
   27      H      -6.0182258600     2.0714870610     0.1459096885
   28      H      -6.0907845478     0.5636657938    -0.8144258146
   29      H      -5.4314147939     0.8753453810     2.1272987905
   30      H      -5.7153028401    -0.6620943636     1.2505935738
   31      H      -3.0725618761    -0.1324001249     2.0123856687
   32      O       4.2450094564     2.0798989465     0.1121201808
   33      C       2.0061666997     1.6601183718     3.2852627496
   34      C       2.4819742937    -1.9303929361     0.8474542217
   35      C       2.8783272436    -2.8612155749    -0.3689167425
   36      C       4.1559897404    -2.1241702652    -0.9213559598
   37      C       4.1656714597    -0.8363209960    -0.0087819067
   38      O       3.7740442977    -1.3777889325     1.3130072544
   39      H       0.8564784808    -0.8911687750    -0.3120616441
   40      H       2.7799144127    -0.0620614362    -1.5535980881
   41      H       2.4990048770     1.2718679058     4.1977689191
   42      H       1.9544891216    -2.4429108694     1.6755982521
   43      H       3.1155297276    -3.8775163716    -0.0166938929
   44      H       2.0705373597    -2.9277749041    -1.1159167718
   45      H       5.0670794154    -2.7205311178    -0.7521729388
   46      H       4.0829096584    -1.8840841905    -1.9941172602
   47      H       5.1228362021    -0.2837673067     0.0604617707
   48      H       0.9037999146     1.6310409925     3.4040522918
   49      H       2.3464855356     2.6969399120     3.0961443935
   50      H      -1.5279296622    -4.8578829262    -0.5529163785
   51      H      -0.4297451028    -3.4440452661    -0.2248795451
   52      H      -0.8870411387    -3.8703380725    -1.9240643219
   53      H       0.2247131712     2.1093004314    -2.5796607470
   54      H       0.4455180125     0.6105002060    -1.6246260777
   55      H       0.3570080675     3.5423564334    -0.5260533314
   56      H       0.4322402071     2.0913345147     0.5369592677
 ----------------------------------------------------------------

    9   -1510.2527525015      4.95E-09 Convergence criterion met
 Total energy in the final basis set = -1510.25275250
 Final energy is   -1510.25275250151
 **  OPTIMIZATION CONVERGED  **

                    Orbital Energies (a.u.)
 --------------------------------------------------------------

 Alpha MOs
 -- Occupied --
-18.940 -18.934 -18.932 -18.911 -18.889 -18.886 -18.885 -18.875
-18.875 -18.869 -10.108 -10.101 -10.097 -10.097 -10.072 -10.070
-10.065 -10.062 -10.061 -10.059 -10.056 -10.054 -10.044 -10.042
-10.034 -10.032 -10.022 -10.021 -10.020 -10.018  -1.020  -1.012
 -1.010  -0.994  -0.970  -0.967  -0.944  -0.937  -0.933  -0.924
 -0.767  -0.761  -0.727  -0.722  -0.713  -0.702  -0.697  -0.667
 -0.655  -0.613  -0.597  -0.587  -0.550  -0.545  -0.539  -0.535
 -0.517  -0.508  -0.489  -0.483  -0.467  -0.462  -0.446  -0.441
 -0.434  -0.431  -0.428  -0.417  -0.414  -0.413  -0.407  -0.402
 -0.397  -0.381  -0.379  -0.371  -0.367  -0.359  -0.353  -0.351
 -0.345  -0.339  -0.334  -0.332  -0.329  -0.327  -0.316  -0.312
 -0.308  -0.308  -0.307  -0.300  -0.295  -0.285  -0.283  -0.279
 -0.271  -0.257  -0.249  -0.241  -0.235  -0.231  -0.216  -0.183
 -0.178  -0.172  -0.170  -0.162  -0.154  -0.149  -0.142  -0.141
 -0.139

          Ground-State Mulliken Net Atomic Charges

     Atom                 Charge (a.u.)
  ----------------------------------------
      1 O                    -0.209409
      2 C                     0.208283
      3 C                    -0.084531
      4 C                    -0.083195
      5 C                     0.215793
      6 O                    -0.190332
      7 C                    -0.046851
      8 C                    -0.048896
      9 O                    -0.166936
     10 C                     0.203928
     11 C                    -0.075888
     12 C                    -0.080046
     13 C                     0.211372
     14 O                    -0.213244
     15 O                    -0.164723
     16 O                    -0.168465
     17 O                    -0.216647
     18 C                    -0.136526
     19 C                     0.026147
     20 C                    -0.145925
     21 C                    -0.141733
     22 C                     0.025975
     23 O                    -0.181833
     24 H                     0.086956
     25 H                     0.087858
     26 H                     0.085044
     27 H                     0.078355
     28 H                     0.073005
     29 H                     0.078547
     30 H                     0.073130
     31 H                     0.091842
     32 O                    -0.196440
     33 C                    -0.137080
     34 C                     0.025722
     35 C                    -0.145424
     36 C                    -0.142423
     37 C                     0.026307
     38 O                    -0.186326
     39 H                     0.099545
     40 H                     0.078723
     41 H                     0.088015
     42 H                     0.081684
     43 H                     0.076691
     44 H                     0.071661
     45 H                     0.078170
     46 H                     0.073139
     47 H                     0.094513
     48 H                     0.100070
     49 H                     0.089193
     50 H                     0.088330
     51 H                     0.098019
     52 H                     0.086741
     53 H                     0.084080
     54 H                     0.084939
     55 H                     0.094364
     56 H                     0.096732
  ----------------------------------------
  Sum of atomic charges =    -0.000000

                    Cartesian Multipole Moments
 -----------------------------------------------------------------
    Charge (ESU x 10^10)
                 0.0000
    Dipole Moment (Debye)
         X      -3.4151      Y      -2.4548      Z      -0.5885
       Tot       4.2468
    Quadrupole Moments (Debye-Ang)
        XX    -161.1565     XY      -7.7329     YY    -156.6235
        XZ      -4.1198     YZ       0.8156     ZZ    -160.0687

 Total job time:  171.27s(wall), 8170.28s(cpu)
        *  Thank you very much for using Q-Chem.  Have a nice day.  *
