 Q-Chem 5.0, Q-Chem, Inc., Pleasanton, CA (2017)
 Q-Chem 5.0.1 for Intel X86 EM64T Linux

User input:
--------------------------------------------------------------
$molecule
0  1
O -4.7794356575 -1.8084288935 1.912971026
C -3.8155199012 -1.3150422376 1.2867003111
C -3.7616776961 0.137112817 0.6982572354
C -2.4576809879 0.5997317453 -0.0693888342
C -1.5791472811 -0.5772760783 -0.6331970036
O -0.2648004791 -0.4288574901 -0.0792067792
C 0.5218226479 -1.6789836814 -0.1568939679
C 0.8763792998 -2.1288232339 -1.6303205592
O 1.7991839634 -1.2553869397 -2.4059441507
C 2.050591874 0.0064154983 -1.7265781734
C 3.4870027698 0.0178049683 -1.0586804793
C 3.7292982206 1.0929087522 0.080329688
C 2.5142545624 1.9669738937 0.554171367
O 1.2937098917 1.7090310681 0.5631631071
O -2.5466969018 -1.967600497 1.1660818344
O 3.0674954036 3.1990389357 1.0472890676
O 1.3302373484 1.0096811945 -1.8978185688
C 1.9800063486 4.0679683897 1.551759728
C 3.8625261199 -1.327376297 -0.3210432312
C 5.4247545398 -1.3886612621 -0.1150371812
C 5.6198581621 -0.3666792459 1.0645577025
C 4.1382780882 0.1222000329 1.2883448526
O 3.3316524503 -1.1015225933 1.0456874036
H 4.1939794306 0.1991371167 -1.8917094527
H 4.558657435 1.7751207713 -0.1730799002
H 3.4177505483 -2.230843243 -0.7767526704
H 5.7373527139 -2.4050976157 0.1724314291
H 5.9693414142 -1.0957935813 -1.0267151705
H 6.0010367158 -0.8639995566 1.9707816963
H 6.2956156029 0.4635918848 0.8050737291
H 3.9250498523 0.5302654635 2.2955454459
O -1.9245355501 -1.4426881839 -1.4679373792
C -2.6081315044 -3.3175383954 1.7708692207
C -4.897475296 0.4629035011 -0.3722305992
C -5.2234212754 2.0012463695 -0.2448759784
C -3.9016223741 2.6260548628 -0.8295167169
C -3.1292387972 1.3332575356 -1.3113247459
O -4.2070438146 0.3829519327 -1.6779517317
H -3.9065734239 0.7970591726 1.5748979223
H -1.8193841157 1.2594401129 0.5431682592
H -3.282426397 -3.9870394369 1.1986117075
H -5.7701952547 -0.2181332251 -0.3429491858
H -6.0979728497 2.2585984772 -0.8639059617
H -5.4212188632 2.307128717 0.7948121553
H -4.1087572745 3.2934252592 -1.6809118214
H -3.328725366 3.1874006217 -0.0738469736
H -2.4446333513 1.4880187611 -2.167652412
H -2.9589754365 -3.2767629999 2.8221087697
H -1.5773419787 -3.7155909257 1.7365464884
H 2.4674247221 4.9955179821 1.9041594523
H 1.433052126 3.5942977544 2.3927868429
H 1.2498808511 4.3121819366 0.7532408059
H 1.3432544543 -3.1377542747 -1.5829347729
H -0.0930320004 -2.210407312 -2.1730703611
H -0.0445925814 -2.5139499739 0.3100362731
H 1.4421828951 -1.4761303868 0.4424397444
$end

$rem
JOBTYPE                   OPT
METHOD                    B3LYP
DFT_D                     d3_op
BASIS                     STO-3G
GEOM_OPT_MAX_CYCLES       100
GEOM_OPT_TOL_GRADIENT     300
GEOM_OPT_TOL_DISPLACEMENT 1200
GEOM_OPT_TOL_ENERGY       100
SYMMETRY                  False
THRESH                    12
SCF_CONVERGENCE           8
MAX_SUB_FILE_NUM          128
MEM_STATIC                400
MEM_TOTAL                 4000
$end
--------------------------------------------------------------

   16   -1510.2528436161      5.70E-09 Convergence criterion met
 Total energy in the final basis set = -1510.25284362
   14   -1510.2558291593      3.68E-09 Convergence criterion met
 Total energy in the final basis set = -1510.25582916
   14   -1510.2585858513      4.74E-09 Convergence criterion met
 Total energy in the final basis set = -1510.25858585
   13   -1510.2604200989      8.69E-09 Convergence criterion met
 Total energy in the final basis set = -1510.26042010
   13   -1510.2624369057      6.82E-09 Convergence criterion met
 Total energy in the final basis set = -1510.26243691
   13   -1510.2648375745      8.80E-09 Convergence criterion met
 Total energy in the final basis set = -1510.26483757
   14   -1510.2656145915      5.92E-09 Convergence criterion met
 Total energy in the final basis set = -1510.26561459
   13   -1510.2685086663      5.86E-09 Convergence criterion met
   12   -1510.2986816997      3.87E-09 Convergence criterion met
 Total energy in the final basis set = -1510.29868170
   12   -1510.2986977107      2.75E-09 Convergence criterion met
 Total energy in the final basis set = -1510.29869771
   12   -1510.2986849201      5.85E-09 Convergence criterion met
 Total energy in the final basis set = -1510.29868492
   11   -1510.2986704042      9.84E-09 Convergence criterion met
 Total energy in the final basis set = -1510.29867040
   11   -1510.2986753864      2.17E-09 Convergence criterion met
 Total energy in the final basis set = -1510.29867539
   11   -1510.2986878923      5.06E-09 Convergence criterion met
 Total energy in the final basis set = -1510.29868789

             Standard Nuclear Orientation (Angstroms)
    I     Atom           X                Y                Z
 ----------------------------------------------------------------
    1      O      -4.4005143552    -1.6105138883     2.0175966913
    2      C      -3.2192633580    -1.3809477958     1.6830051671
    3      C      -2.5079830666     0.0146206245     1.5863782321
    4      C      -1.6736959069     0.2308775848     0.2522631443
    5      C      -1.6163424835    -1.0172887705    -0.6865442456
    6      O      -0.3322615224    -1.6559150881    -0.5397038243
    7      C      -0.1791120604    -2.7119327223    -1.5639656476
    8      C       0.7812419587    -2.1791464667    -2.6885187916
    9      O       2.0620278217    -1.7488055174    -2.0745607223
   10      C       1.9590050202    -0.4125538188    -1.5792706080
   11      C       3.2071658037    -0.1330047044    -0.6760229223
   12      C       3.1330754908     1.2630841546     0.0656708177
   13      C       1.8181768025     2.0733629655    -0.2258480380
   14      O       0.7839650964     2.0829558735     0.4823141515
   15      O      -2.2798049632    -2.4011460231     1.3191149016
   16      O       2.0509391131     2.9271679290    -1.3483779663
   17      O       1.0327727334     0.3864751405    -1.8481208365
   18      C       0.8087759607     3.6462002216    -1.7107733990
   19      C       3.2500130865    -1.1328829644     0.5612290774
   20      C       4.6906793716    -1.0690070387     1.2015549303
   21      C       4.6364128031     0.3250422229     1.9292626022
   22      C       3.1690735318     0.7948756228     1.5810375299
   23      O       2.3904879922    -0.4658568043     1.5639624756
   24      H       4.1186132105    -0.2232725749    -1.2947034423
   25      H       3.9974678124     1.8971114695    -0.1993300092
   26      H       2.8712488995    -2.1470817053     0.3290245076
   27      H       4.8274567092    -1.8937084784     1.9189652450
   28      H       5.4867374384    -1.1252228005     0.4419786791
   29      H       4.7581930497     0.2172882792     3.0187492890
   30      H       5.3964134795     1.0299609048     1.5559378986
   31      H       2.7158845478     1.5154642292     2.2886721999
   32      O      -2.4868709423    -1.4034186881    -1.4979955289
   33      C      -2.9432406307    -3.7236172155     1.2833763247
   34      C      -3.5967323704     1.1567988915     1.4524863215
   35      C      -2.9029704369     2.5549091539     1.6886831426
   36      C      -2.1243176754     2.7438055529     0.3344768479
   37      C      -2.5058997776     1.4115108421    -0.4178258237
   38      O      -3.9005534724     1.1486135706     0.0029433629
   39      H      -1.8651086053     0.1482495487     2.4761980321
   40      H      -0.6386046584     0.5574323110     0.4756076198
   41      H      -3.7125412800    -3.7662557680     0.4850117524
   42      H      -4.5151893781     0.9626936571     2.0406004520
   43      H      -3.6615166547     3.3402483466     1.8355110455
   44      H      -2.2351391853     2.5409154020     2.5649910705
   45      H      -2.4867850585     3.6221412033    -0.2220508957
   46      H      -1.0292907489     2.8061334909     0.4700537235
   47      H      -2.4360625664     1.4471254742    -1.5221975531
   48      H      -3.4245585628    -3.9673948291     2.2520846158
   49      H      -2.1461217428    -4.4585364550     1.0673818472
   50      H       1.0596678935     4.2641297812    -2.5924345602
   51      H       0.4572523995     4.3012817573    -0.8877077926
   52      H      -0.0012661529     2.9355173407    -1.9724289401
   53      H       1.0299888451    -2.9866627977    -3.4061603824
   54      H       0.3020291285    -1.3303777569    -3.2212790209
   55      H      -1.1764673948    -2.9516227320    -1.9951325608
   56      H       0.2606979475    -3.6029409226    -1.0719718141
 ----------------------------------------------------------------

   10   -1510.2986872717      7.33E-09 Convergence criterion met
 Total energy in the final basis set = -1510.29868727
 Final energy is   -1510.29868727173
 **  OPTIMIZATION CONVERGED  **

                    Orbital Energies (a.u.)
 --------------------------------------------------------------

 Alpha MOs
 -- Occupied --
-18.941 -18.934 -18.930 -18.920 -18.890 -18.888 -18.873 -18.870
-18.870 -18.861 -10.110 -10.104 -10.092 -10.089 -10.076 -10.065
-10.062 -10.062 -10.061 -10.060 -10.043 -10.043 -10.040 -10.038
-10.026 -10.023 -10.022 -10.016 -10.003  -9.991  -1.023  -1.009
 -1.007  -0.997  -0.972  -0.954  -0.947  -0.935  -0.931  -0.925
 -0.766  -0.748  -0.728  -0.717  -0.707  -0.699  -0.686  -0.662
 -0.656  -0.618  -0.594  -0.573  -0.548  -0.540  -0.531  -0.521
 -0.514  -0.496  -0.485  -0.470  -0.464  -0.458  -0.451  -0.439
 -0.435  -0.427  -0.419  -0.414  -0.409  -0.407  -0.406  -0.400
 -0.391  -0.380  -0.372  -0.367  -0.361  -0.352  -0.350  -0.343
 -0.341  -0.337  -0.335  -0.331  -0.328  -0.317  -0.316  -0.314
 -0.308  -0.305  -0.293  -0.288  -0.286  -0.280  -0.275  -0.273
 -0.259  -0.257  -0.249  -0.243  -0.238  -0.236  -0.217  -0.192
 -0.176  -0.171  -0.166  -0.156  -0.152  -0.151  -0.146  -0.141
 -0.128

          Ground-State Mulliken Net Atomic Charges

     Atom                 Charge (a.u.)
  ----------------------------------------
      1 O                    -0.210473
      2 C                     0.212138
      3 C                    -0.077533
      4 C                    -0.084802
      5 C                     0.215836
      6 O                    -0.172593
      7 C                    -0.057234
      8 C                    -0.051572
      9 O                    -0.172924
     10 C                     0.221868
     11 C                    -0.077874
     12 C                    -0.081311
     13 C                     0.224663
     14 O                    -0.223155
     15 O                    -0.168779
     16 O                    -0.168933
     17 O                    -0.210750
     18 C                    -0.128122
     19 C                     0.026337
     20 C                    -0.143840
     21 C                    -0.144340
     22 C                     0.025280
     23 O                    -0.186602
     24 H                     0.087182
     25 H                     0.085394
     26 H                     0.088973
     27 H                     0.078585
     28 H                     0.073625
     29 H                     0.078418
     30 H                     0.073424
     31 H                     0.086224
     32 O                    -0.222953
     33 C                    -0.128243
     34 C                     0.023611
     35 C                    -0.144707
     36 C                    -0.157571
     37 C                     0.024942
     38 O                    -0.192392
     39 H                     0.087603
     40 H                     0.105715
     41 H                     0.090922
     42 H                     0.086310
     43 H                     0.073012
     44 H                     0.071525
     45 H                     0.066469
     46 H                     0.096483
     47 H                     0.078590
     48 H                     0.090432
     49 H                     0.088438
     50 H                     0.089695
     51 H                     0.087359
     52 H                     0.095123
     53 H                     0.090108
     54 H                     0.096213
     55 H                     0.102012
     56 H                     0.084195
  ----------------------------------------
  Sum of atomic charges =    -0.000000

                    Cartesian Multipole Moments
 -----------------------------------------------------------------
    Charge (ESU x 10^10)
                -0.0000
    Dipole Moment (Debye)
         X       4.7867      Y      -0.4639      Z      -0.5282
       Tot       4.8381
    Quadrupole Moments (Debye-Ang)
        XX    -167.1699     XY       0.2510     YY    -145.5350
        XZ      -0.4301     YZ       2.4258     ZZ    -156.3003

 Total job time:  116.93s(wall), 5575.00s(cpu)
        *  Thank you very much for using Q-Chem.  Have a nice day.  *
