 Q-Chem 5.0, Q-Chem, Inc., Pleasanton, CA (2017)
 Q-Chem 5.0.1 for Intel X86 EM64T Linux

User input:
--------------------------------------------------------------
$molecule
0  1
O -3.94934 -3.66094 2.70899
C -3.26408 -4.56952 2.26188
C -3.36658 -6.02376 2.66595
C -2.40867 -7.01244 1.98128
C -1.33566 -6.41165 1.10049
O -1.42809 -6.92744 -0.1608
C -0.76348 -6.12907 -1.14577
C 0.74217 -6.14029 -0.90285
O 1.264 -7.45978 -1.12536
C 0.33514 -8.43335 -1.29427
C 0.18571 -8.86038 -2.7351
C -1.1217 -9.59776 -3.05945
C -2.21803 -9.48773 -2.01894
O -2.37468 -8.54962 -1.25084
O -2.53295 -4.2045 1.17575
O -2.99314 -10.5921 -1.85685
O 0.18854 -9.25846 -0.40354
C -4.0015 -10.70105 -0.92186
C 0.17061 -7.79161 -3.85826
C 0.60625 -8.42317 -5.1825
C -0.61278 -9.26426 -5.50971
C -1.53709 -8.87367 -4.35102
O -1.19425 -7.53947 -4.09956
H 1.06822 -9.51432 -2.91956
H -0.96945 -10.68306 -3.25603
H 0.80818 -6.90921 -3.64312
H 0.67914 -7.60291 -5.93238
H 1.57092 -8.97383 -5.15097
H -1.03593 -8.90867 -6.47555
H -0.43618 -10.3607 -5.5552
H -2.60075 -9.06422 -4.61446
O -0.51151 -5.60229 1.50871
C -2.42652 -2.9205 0.67387
C -2.95093 -6.22452 4.13689
C -3.55867 -7.51811 4.67946
C -2.71112 -8.54987 3.96456
C -1.73592 -7.63687 3.21495
O -1.58017 -6.53415 4.07457
H -4.43408 -6.3113 2.53688
H -2.97264 -7.77674 1.39828
H -1.99543 -2.24485 1.44311
H -3.22953 -5.36862 4.79031
H -3.32774 -7.56508 5.76784
H -4.65556 -7.61733 4.53152
H -2.16353 -9.14555 4.72859
H -3.26379 -9.22894 3.27968
H -0.80686 -8.1911 2.95419
H -3.42455 -2.5469 0.36008
H -1.75596 -2.92458 -0.2088
H -4.47101 -11.70235 -1.0077
H -4.77616 -9.92542 -1.10309
H -3.58793 -10.58557 0.1031
H 1.1872 -5.47458 -1.67216
H 1.13552 -5.75679 0.05049
H -1.12735 -5.08093 -1.08007
H -1.06494 -6.43164 -2.14013
$end

$opt
CONSTRAINT
tors           1           2           3           4    -180.000
tors           3           4           5           6    -123.158
tors           4           5           6           7    +161.053
tors           5           6           7           8     +66.316
tors           6           7           8           9     +66.316
tors           7           8           9          10      -9.474
tors           8           9          10          11    +104.211
tors           9          10          11          12    -161.053
tors          11          12          13          14     +28.421
ENDCONSTRAINT
$end

$rem
JOBTYPE                   OPT
METHOD                    B3LYP
DFT_D                     d3_op
BASIS                     STO-3G
GEOM_OPT_MAX_CYCLES       100
GEOM_OPT_TOL_GRADIENT     300
GEOM_OPT_TOL_DISPLACEMENT 1200
GEOM_OPT_TOL_ENERGY       100
SYMMETRY                  False
THRESH                    12
SCF_CONVERGENCE           8
MAX_SUB_FILE_NUM          128
MEM_STATIC                400
MEM_TOTAL                 4000
$end
--------------------------------------------------------------

   15   -1510.0943962608      6.64E-09 Convergence criterion met
 Total energy in the final basis set = -1510.09439626
   15   -1510.1632559914      3.68E-09 Convergence criterion met
 Total energy in the final basis set = -1510.16325599
   14   -1510.2123079235      8.53E-09 Convergence criterion met
 Total energy in the final basis set = -1510.21230792
   14   -1510.2354043912      5.56E-09 Convergence criterion met
 Total energy in the final basis set = -1510.23540439
   14   -1510.2452177125      4.50E-09 Convergence criterion met
 Total energy in the final basis set = -1510.24521771
   14   -1510.2493437818      3.25E-09 Convergence criterion met
 Total energy in the final basis set = -1510.24934378
   13   -1510.2511417819      8.48E-09 Convergence criterion met
 Total energy in the final basis set = -1510.25114178
   13   -1510.2516721212      3.15E-09 Convergence criterion met
   10   -1510.2528443663      3.31E-09 Convergence criterion met
 Total energy in the final basis set = -1510.25284437
   10   -1510.2528474069      4.82E-09 Convergence criterion met
 Total energy in the final basis set = -1510.25284741
    9   -1510.2528502665      6.78E-09 Convergence criterion met
 Total energy in the final basis set = -1510.25285027
   10   -1510.2528531639      1.90E-09 Convergence criterion met
 Total energy in the final basis set = -1510.25285316
    9   -1510.2528501048      9.43E-09 Convergence criterion met
 Total energy in the final basis set = -1510.25285010
    9   -1510.2528514224      5.82E-09 Convergence criterion met
 Total energy in the final basis set = -1510.25285142

             Standard Nuclear Orientation (Angstroms)
    I     Atom           X                Y                Z
 ----------------------------------------------------------------
    1      O      -4.7794356575    -1.8084288935     1.9129710260
    2      C      -3.8155199012    -1.3150422376     1.2867003111
    3      C      -3.7616776961     0.1371128170     0.6982572354
    4      C      -2.4576809879     0.5997317453    -0.0693888342
    5      C      -1.5791472811    -0.5772760783    -0.6331970036
    6      O      -0.2648004791    -0.4288574901    -0.0792067792
    7      C       0.5218226479    -1.6789836814    -0.1568939679
    8      C       0.8763792998    -2.1288232339    -1.6303205592
    9      O       1.7991839634    -1.2553869397    -2.4059441507
   10      C       2.0505918740     0.0064154983    -1.7265781734
   11      C       3.4870027698     0.0178049683    -1.0586804793
   12      C       3.7292982206     1.0929087522     0.0803296880
   13      C       2.5142545624     1.9669738937     0.5541713670
   14      O       1.2937098917     1.7090310681     0.5631631071
   15      O      -2.5466969018    -1.9676004970     1.1660818344
   16      O       3.0674954036     3.1990389357     1.0472890676
   17      O       1.3302373484     1.0096811945    -1.8978185688
   18      C       1.9800063486     4.0679683897     1.5517597280
   19      C       3.8625261199    -1.3273762970    -0.3210432312
   20      C       5.4247545398    -1.3886612621    -0.1150371812
   21      C       5.6198581621    -0.3666792459     1.0645577025
   22      C       4.1382780882     0.1222000329     1.2883448526
   23      O       3.3316524503    -1.1015225933     1.0456874036
   24      H       4.1939794306     0.1991371167    -1.8917094527
   25      H       4.5586574350     1.7751207713    -0.1730799002
   26      H       3.4177505483    -2.2308432430    -0.7767526704
   27      H       5.7373527139    -2.4050976157     0.1724314291
   28      H       5.9693414142    -1.0957935813    -1.0267151705
   29      H       6.0010367158    -0.8639995566     1.9707816963
   30      H       6.2956156029     0.4635918848     0.8050737291
   31      H       3.9250498523     0.5302654635     2.2955454459
   32      O      -1.9245355501    -1.4426881839    -1.4679373792
   33      C      -2.6081315044    -3.3175383954     1.7708692207
   34      C      -4.8974752960     0.4629035011    -0.3722305992
   35      C      -5.2234212754     2.0012463695    -0.2448759784
   36      C      -3.9016223741     2.6260548628    -0.8295167169
   37      C      -3.1292387972     1.3332575356    -1.3113247459
   38      O      -4.2070438146     0.3829519327    -1.6779517317
   39      H      -3.9065734239     0.7970591726     1.5748979223
   40      H      -1.8193841157     1.2594401129     0.5431682592
   41      H      -3.2824263970    -3.9870394369     1.1986117075
   42      H      -5.7701952547    -0.2181332251    -0.3429491858
   43      H      -6.0979728497     2.2585984772    -0.8639059617
   44      H      -5.4212188632     2.3071287170     0.7948121553
   45      H      -4.1087572745     3.2934252592    -1.6809118214
   46      H      -3.3287253660     3.1874006217    -0.0738469736
   47      H      -2.4446333513     1.4880187611    -2.1676524120
   48      H      -2.9589754365    -3.2767629999     2.8221087697
   49      H      -1.5773419787    -3.7155909257     1.7365464884
   50      H       2.4674247221     4.9955179821     1.9041594523
   51      H       1.4330521260     3.5942977544     2.3927868429
   52      H       1.2498808511     4.3121819366     0.7532408059
   53      H       1.3432544543    -3.1377542747    -1.5829347729
   54      H      -0.0930320004    -2.2104073120    -2.1730703611
   55      H      -0.0445925814    -2.5139499739     0.3100362731
   56      H       1.4421828951    -1.4761303868     0.4424397444
 ----------------------------------------------------------------

    9   -1510.2528519079      2.92E-09 Convergence criterion met
 Total energy in the final basis set = -1510.25285191
 Final energy is   -1510.25285190792
 **  OPTIMIZATION CONVERGED  **

                    Orbital Energies (a.u.)
 --------------------------------------------------------------

 Alpha MOs
 -- Occupied --
-18.938 -18.929 -18.916 -18.901 -18.898 -18.888 -18.880 -18.876
-18.871 -18.857 -10.103 -10.099 -10.096 -10.087 -10.068 -10.066
-10.066 -10.063 -10.054 -10.054 -10.053 -10.050 -10.040 -10.038
-10.033 -10.027 -10.026 -10.025 -10.014 -10.013  -1.012  -1.009
 -1.000  -0.990  -0.981  -0.963  -0.935  -0.933  -0.926  -0.919
 -0.767  -0.756  -0.726  -0.717  -0.713  -0.701  -0.688  -0.662
 -0.662  -0.612  -0.597  -0.576  -0.549  -0.544  -0.539  -0.530
 -0.514  -0.504  -0.476  -0.466  -0.461  -0.454  -0.447  -0.440
 -0.434  -0.425  -0.423  -0.412  -0.411  -0.409  -0.408  -0.402
 -0.385  -0.375  -0.371  -0.369  -0.359  -0.355  -0.347  -0.346
 -0.342  -0.338  -0.335  -0.328  -0.322  -0.319  -0.318  -0.315
 -0.309  -0.308  -0.301  -0.300  -0.290  -0.290  -0.286  -0.273
 -0.267  -0.254  -0.246  -0.246  -0.233  -0.229  -0.225  -0.178
 -0.175  -0.165  -0.159  -0.155  -0.150  -0.148  -0.139  -0.138
 -0.127

          Ground-State Mulliken Net Atomic Charges

     Atom                 Charge (a.u.)
  ----------------------------------------
      1 O                    -0.216195
      2 C                     0.210262
      3 C                    -0.079941
      4 C                    -0.078815
      5 C                     0.222686
      6 O                    -0.167051
      7 C                    -0.062669
      8 C                    -0.060728
      9 O                    -0.203329
     10 C                     0.225688
     11 C                    -0.081458
     12 C                    -0.081150
     13 C                     0.208544
     14 O                    -0.199579
     15 O                    -0.167952
     16 O                    -0.174288
     17 O                    -0.171601
     18 C                    -0.129223
     19 C                     0.021797
     20 C                    -0.143659
     21 C                    -0.143262
     22 C                     0.026420
     23 O                    -0.192326
     24 H                     0.086028
     25 H                     0.088156
     26 H                     0.088457
     27 H                     0.078960
     28 H                     0.076055
     29 H                     0.079100
     30 H                     0.076591
     31 H                     0.083980
     32 O                    -0.216878
     33 C                    -0.126381
     34 C                     0.025710
     35 C                    -0.142141
     36 C                    -0.145388
     37 C                     0.025999
     38 O                    -0.186081
     39 H                     0.084388
     40 H                     0.092304
     41 H                     0.091414
     42 H                     0.085989
     43 H                     0.077178
     44 H                     0.072507
     45 H                     0.077255
     46 H                     0.073296
     47 H                     0.086803
     48 H                     0.092157
     49 H                     0.088553
     50 H                     0.088794
     51 H                     0.086349
     52 H                     0.089940
     53 H                     0.073861
     54 H                     0.101216
     55 H                     0.080590
     56 H                     0.103069
  ----------------------------------------
  Sum of atomic charges =     0.000000

                    Cartesian Multipole Moments
 -----------------------------------------------------------------
    Charge (ESU x 10^10)
                -0.0000
    Dipole Moment (Debye)
         X       3.5015      Y       0.9108      Z       2.6368
       Tot       4.4770
    Quadrupole Moments (Debye-Ang)
        XX    -151.9988     XY      -7.4087     YY    -147.8889
        XZ      -2.4593     YZ       0.3905     ZZ    -165.6110

 Total job time:  73.85s(wall), 3518.10s(cpu)
        *  Thank you very much for using Q-Chem.  Have a nice day.  *
