 Q-Chem 5.0, Q-Chem, Inc., Pleasanton, CA (2017)
 Q-Chem 5.0.1 for Intel X86 EM64T Linux

User input:
--------------------------------------------------------------
$molecule
0  1
O -3.94934 -3.66094 2.70899
C -3.26408 -4.56952 2.26188
C -3.36658 -6.02376 2.66595
C -2.0503 -6.77836 2.91464
C -0.7853 -5.94905 2.90498
O -0.96373 -4.83958 2.12866
C 0.18313 -3.98342 2.09792
C 1.10182 -4.2929 3.27536
O 1.36096 -5.70429 3.33614
C 2.58289 -6.09237 2.89407
C 2.5329 -6.76877 1.54475
C 3.90326 -7.07102 0.92101
C 5.08945 -6.9895 1.8607
O 6.25811 -7.15661 1.5431
O -2.90366 -4.41229 0.94634
O 4.84685 -7.43951 3.1305
O 3.55052 -5.44896 3.28307
C 5.79693 -7.63382 4.11563
C 1.92418 -8.18451 1.59499
C 1.37962 -8.55212 0.21611
C 2.67146 -8.72516 -0.55938
C 3.6948 -8.55751 0.57125
O 3.0282 -9.04668 1.71016
H 1.90872 -6.13565 0.87709
H 4.13171 -6.43762 0.03613
H 1.1314 -8.29816 2.36652
H 0.89022 -9.54735 0.31896
H 0.65427 -7.83365 -0.22294
H 2.69687 -9.75852 -0.97088
H 2.84179 -7.98479 -1.37087
H 4.64994 -9.0659 0.31247
O -0.65858 -5.75532 4.12671
C -2.88371 -3.22625 0.23282
C -4.11601 -6.27751 3.99401
C -4.76031 -7.66179 3.96125
C -3.53316 -8.5444 4.04284
C -2.44569 -7.48283 4.2567
O -3.10439 -6.45326 4.953
H -3.9535 -6.50465 1.84955
H -1.86351 -7.56525 2.15102
H -3.16667 -2.34923 0.85221
H -4.88445 -5.50993 4.22978
H -5.33831 -7.76815 4.90759
H -5.43375 -7.86442 3.10086
H -3.63382 -9.20183 4.93479
H -3.32702 -9.15672 3.13855
H -1.56743 -7.9399 4.7643
H -3.58328 -3.30317 -0.62437
H -1.86004 -3.05615 -0.1596
H 5.29496 -7.98839 5.03859
H 6.31586 -6.67735 4.33775
H 6.53697 -8.39769 3.79707
H 2.0148 -3.67465 3.11907
H 0.6934 -3.92602 4.2434
H -0.13369 -2.92065 2.15514
H 0.70737 -4.13863 1.13211
$end

$opt
CONSTRAINT
tors           1           2           3           4    -135.898
tors           3           4           5           6     -26.420
tors           4           5           6           7    +178.465
tors           5           6           7           8     -18.616
tors           6           7           8           9     +50.488
tors           7           8           9          10    +103.811
tors           8           9          10          11    -105.975
tors           9          10          11          12    +172.774
tors          11          12          13          14    -177.719
ENDCONSTRAINT
$end

$rem
JOBTYPE                   OPT
METHOD                    B3LYP
DFT_D                     d3_op
BASIS                     STO-3G
GEOM_OPT_MAX_CYCLES       100
GEOM_OPT_TOL_GRADIENT     300
GEOM_OPT_TOL_DISPLACEMENT 1200
GEOM_OPT_TOL_ENERGY       100
SYMMETRY                  False
THRESH                    12
SCF_CONVERGENCE           8
MAX_SUB_FILE_NUM          128
MEM_STATIC                400
MEM_TOTAL                 4000
$end
--------------------------------------------------------------

   16   -1509.9716585008      8.78E-09 Convergence criterion met
 Total energy in the final basis set = -1509.97165850
   15   -1510.0614284771      7.10E-09 Convergence criterion met
 Total energy in the final basis set = -1510.06142848
   15   -1510.1212119627      3.22E-09 Convergence criterion met
 Total energy in the final basis set = -1510.12121196
   15   -1510.1568893133      3.08E-09 Convergence criterion met
 Total energy in the final basis set = -1510.15688931
   14   -1510.1788782054      8.67E-09 Convergence criterion met
 Total energy in the final basis set = -1510.17887821
   14   -1510.1947665466      5.38E-09 Convergence criterion met
 Total energy in the final basis set = -1510.19476655
   14   -1510.2052274155      3.15E-09 Convergence criterion met
 Total energy in the final basis set = -1510.20522742
   13   -1510.2129517200      8.12E-09 Convergence criterion met
   11   -1510.2289235438      5.60E-09 Convergence criterion met
 Total energy in the final basis set = -1510.22892354
   11   -1510.2289492483      6.54E-09 Convergence criterion met
 Total energy in the final basis set = -1510.22894925
   10   -1510.2289685358      7.36E-09 Convergence criterion met
 Total energy in the final basis set = -1510.22896854
   10   -1510.2289901872      9.78E-09 Convergence criterion met
 Total energy in the final basis set = -1510.22899019
   10   -1510.2290033782      8.85E-09 Convergence criterion met
 Total energy in the final basis set = -1510.22900338
   10   -1510.2290079777      9.98E-09 Convergence criterion met
 Total energy in the final basis set = -1510.22900798

             Standard Nuclear Orientation (Angstroms)
    I     Atom           X                Y                Z
 ----------------------------------------------------------------
    1      O      -4.5565044359     2.0624861268    -0.1376726994
    2      C      -3.9140527350     1.1896225148    -0.7614355533
    3      C      -4.1026295403    -0.3650888126    -0.6910345260
    4      C      -2.7886302650    -1.2339127422    -0.5966922295
    5      C      -1.6003589407    -0.5757350993     0.2280896136
    6      O      -1.7513792810     0.8372812082     0.1703753019
    7      C      -0.8310654770     1.7709592578     0.8628614033
    8      C       0.1377349980     1.3668696438     2.0555872863
    9      O       0.9730925920     0.1870079759     1.8068685319
   10      C       2.3515124720     0.5829323488     1.5084344680
   11      C       2.5690507263     0.3779116747    -0.0348467635
   12      C       3.8938471470     0.8659158599    -0.7363638753
   13      C       5.2390296905     0.7676129586     0.0787351309
   14      O       6.3580446467     1.1525531821    -0.3298977297
   15      O      -3.1140799140     1.4653370697    -1.9303162234
   16      O       5.0605500671    -0.0550139575     1.2300274284
   17      O       3.1023254202     1.1005208836     2.3567072060
   18      C       6.3580497487    -0.2712318023     1.9085723815
   19      C       2.4187212338    -1.1108169439    -0.5937656435
   20      C       1.6714689249    -0.9908868724    -1.9759184581
   21      C       2.7711837868    -0.2467571162    -2.8233548279
   22      C       4.0111452440    -0.2847531885    -1.8387631079
   23      O       3.7865347509    -1.4947958281    -1.0096990208
   24      H       1.7403094329     0.9680422817    -0.4704009796
   25      H       3.7958168283     1.8756412948    -1.1720300355
   26      H       1.9923298461    -1.8384502374     0.1235845205
   27      H       1.4613488493    -1.9930542267    -2.3831042924
   28      H       0.7250816389    -0.4313542924    -1.9019428127
   29      H       3.0008209865    -0.7824287946    -3.7579183862
   30      H       2.4822981525     0.7869286921    -3.0734555639
   31      H       5.0010083267    -0.3300514078    -2.3333870741
   32      O      -0.7165168043    -1.2253438438     0.8183311630
   33      C      -2.9544759539     2.9245897928    -2.1029638659
   34      C      -4.9514905723    -0.9391952221     0.5212304383
   35      C      -5.7252753996    -2.1954203667    -0.0334555672
   36      C      -4.5197674786    -3.1758842888    -0.2959541456
   37      C      -3.3183142300    -2.3858707207     0.3598407869
   38      O      -3.9536751366    -1.5624305954     1.4244350847
   39      H      -4.6117514806    -0.6263671290    -1.6383025453
   40      H      -2.4268014884    -1.5785879022    -1.5823697805
   41      H      -3.6682350644     3.4575531745    -1.4422005928
   42      H      -5.5578680154    -0.1852371290     1.0600225353
   43      H      -6.4065790108    -2.5959190013     0.7346391751
   44      H      -6.3059231537    -1.9731345907    -0.9431443401
   45      H      -4.6653705280    -4.1466936028     0.2032100726
   46      H      -4.3497496924    -3.3543813246    -1.3702083133
   47      H      -2.5087084776    -3.0096705078     0.7864464365
   48      H      -3.1520880790     3.1748675346    -3.1630664741
   49      H      -1.9176070714     3.2229069365    -1.8464988067
   50      H       6.1484167940    -0.9572348995     2.7495593317
   51      H       6.7752038671     0.6785921447     2.3009215630
   52      H       7.1028598682    -0.7299310474     1.2265908952
   53      H       0.7300531887     2.2783401037     2.2912838792
   54      H      -0.4921152243     1.1351723879     2.9433583587
   55      H      -1.4951724556     2.5729491296     1.2529555548
   56      H      -0.2070674468     2.2250474049     0.0591564982
 ----------------------------------------------------------------

    9   -1510.2290085691      8.25E-09 Convergence criterion met
 Total energy in the final basis set = -1510.22900857
 Final energy is   -1510.22900856913
 **  OPTIMIZATION CONVERGED  **

                    Orbital Energies (a.u.)
 --------------------------------------------------------------

 Alpha MOs
 -- Occupied --
-18.944 -18.931 -18.921 -18.906 -18.902 -18.888 -18.884 -18.881
-18.868 -18.864 -10.109 -10.107 -10.099 -10.094 -10.084 -10.081
-10.061 -10.060 -10.058 -10.058 -10.057 -10.055 -10.039 -10.039
-10.037 -10.035 -10.022 -10.021 -10.020 -10.019  -1.017  -1.010
 -1.003  -1.001  -0.971  -0.969  -0.945  -0.938  -0.929  -0.928
 -0.764  -0.763  -0.729  -0.723  -0.714  -0.703  -0.700  -0.658
 -0.656  -0.623  -0.601  -0.587  -0.547  -0.543  -0.539  -0.535
 -0.516  -0.505  -0.484  -0.477  -0.462  -0.457  -0.453  -0.442
 -0.436  -0.431  -0.430  -0.411  -0.410  -0.408  -0.407  -0.404
 -0.397  -0.382  -0.376  -0.369  -0.367  -0.358  -0.356  -0.350
 -0.343  -0.338  -0.337  -0.331  -0.329  -0.323  -0.318  -0.315
 -0.311  -0.309  -0.307  -0.301  -0.295  -0.295  -0.290  -0.273
 -0.271  -0.245  -0.245  -0.243  -0.235  -0.234  -0.233  -0.184
 -0.177  -0.170  -0.165  -0.155  -0.153  -0.147  -0.144  -0.144
 -0.135

          Ground-State Mulliken Net Atomic Charges

     Atom                 Charge (a.u.)
  ----------------------------------------
      1 O                    -0.224384
      2 C                     0.221934
      3 C                    -0.080665
      4 C                    -0.074030
      5 C                     0.218419
      6 O                    -0.172763
      7 C                    -0.048732
      8 C                    -0.045973
      9 O                    -0.185703
     10 C                     0.224809
     11 C                    -0.079414
     12 C                    -0.078835
     13 C                     0.210337
     14 O                    -0.220385
     15 O                    -0.176927
     16 O                    -0.160504
     17 O                    -0.175908
     18 C                    -0.125506
     19 C                     0.027992
     20 C                    -0.140544
     21 C                    -0.146023
     22 C                     0.024147
     23 O                    -0.189059
     24 H                     0.077123
     25 H                     0.083002
     26 H                     0.096342
     27 H                     0.078082
     28 H                     0.072992
     29 H                     0.078650
     30 H                     0.072360
     31 H                     0.085476
     32 O                    -0.198339
     33 C                    -0.136026
     34 C                     0.021719
     35 C                    -0.140969
     36 C                    -0.146149
     37 C                     0.022429
     38 O                    -0.193223
     39 H                     0.083438
     40 H                     0.085663
     41 H                     0.099005
     42 H                     0.089440
     43 H                     0.078049
     44 H                     0.072965
     45 H                     0.078833
     46 H                     0.073127
     47 H                     0.089711
     48 H                     0.083118
     49 H                     0.076402
     50 H                     0.091972
     51 H                     0.088653
     52 H                     0.089649
     53 H                     0.087110
     54 H                     0.089286
     55 H                     0.093010
     56 H                     0.074815
  ----------------------------------------
  Sum of atomic charges =    -0.000000

                    Cartesian Multipole Moments
 -----------------------------------------------------------------
    Charge (ESU x 10^10)
                -0.0000
    Dipole Moment (Debye)
         X      -1.7460      Y       0.8545      Z      -2.5151
       Tot       3.1787
    Quadrupole Moments (Debye-Ang)
        XX    -171.1761     XY       3.8454     YY    -155.1568
        XZ       6.2414     YZ       1.6566     ZZ    -159.1239

 Total job time:  69.51s(wall), 3311.29s(cpu)
        *  Thank you very much for using Q-Chem.  Have a nice day.  *
