 Q-Chem 5.0, Q-Chem, Inc., Pleasanton, CA (2017)
 Q-Chem 5.0.1 for Intel X86 EM64T Linux

User input:
--------------------------------------------------------------
$molecule
0  1
O -4.5565044359 2.0624861268 -0.1376726994
C -3.914052735 1.1896225148 -0.7614355533
C -4.1026295403 -0.3650888126 -0.691034526
C -2.788630265 -1.2339127422 -0.5966922295
C -1.6003589407 -0.5757350993 0.2280896136
O -1.751379281 0.8372812082 0.1703753019
C -0.831065477 1.7709592578 0.8628614033
C 0.137734998 1.3668696438 2.0555872863
O 0.973092592 0.1870079759 1.8068685319
C 2.351512472 0.5829323488 1.508434468
C 2.5690507263 0.3779116747 -0.0348467635
C 3.893847147 0.8659158599 -0.7363638753
C 5.2390296905 0.7676129586 0.0787351309
O 6.3580446467 1.1525531821 -0.3298977297
O -3.114079914 1.4653370697 -1.9303162234
O 5.0605500671 -0.0550139575 1.2300274284
O 3.1023254202 1.1005208836 2.356707206
C 6.3580497487 -0.2712318023 1.9085723815
C 2.4187212338 -1.1108169439 -0.5937656435
C 1.6714689249 -0.9908868724 -1.9759184581
C 2.7711837868 -0.2467571162 -2.8233548279
C 4.011145244 -0.2847531885 -1.8387631079
O 3.7865347509 -1.4947958281 -1.0096990208
H 1.7403094329 0.9680422817 -0.4704009796
H 3.7958168283 1.8756412948 -1.1720300355
H 1.9923298461 -1.8384502374 0.1235845205
H 1.4613488493 -1.9930542267 -2.3831042924
H 0.7250816389 -0.4313542924 -1.9019428127
H 3.0008209865 -0.7824287946 -3.7579183862
H 2.4822981525 0.7869286921 -3.0734555639
H 5.0010083267 -0.3300514078 -2.3333870741
O -0.7165168043 -1.2253438438 0.818331163
C -2.9544759539 2.9245897928 -2.1029638659
C -4.9514905723 -0.9391952221 0.5212304383
C -5.7252753996 -2.1954203667 -0.0334555672
C -4.5197674786 -3.1758842888 -0.2959541456
C -3.31831423 -2.3858707207 0.3598407869
O -3.9536751366 -1.5624305954 1.4244350847
H -4.6117514806 -0.626367129 -1.6383025453
H -2.4268014884 -1.5785879022 -1.5823697805
H -3.6682350644 3.4575531745 -1.4422005928
H -5.5578680154 -0.185237129 1.0600225353
H -6.4065790108 -2.5959190013 0.7346391751
H -6.3059231537 -1.9731345907 -0.9431443401
H -4.665370528 -4.1466936028 0.2032100726
H -4.3497496924 -3.3543813246 -1.3702083133
H -2.5087084776 -3.0096705078 0.7864464365
H -3.152088079 3.1748675346 -3.1630664741
H -1.9176070714 3.2229069365 -1.8464988067
H 6.148416794 -0.9572348995 2.7495593317
H 6.7752038671 0.6785921447 2.300921563
H 7.1028598682 -0.7299310474 1.2265908952
H 0.7300531887 2.2783401037 2.2912838792
H -0.4921152243 1.1351723879 2.9433583587
H -1.4951724556 2.5729491296 1.2529555548
H -0.2070674468 2.2250474049 0.0591564982
$end

$rem
JOBTYPE                   OPT
METHOD                    B3LYP
DFT_D                     d3_op
BASIS                     STO-3G
GEOM_OPT_MAX_CYCLES       100
GEOM_OPT_TOL_GRADIENT     300
GEOM_OPT_TOL_DISPLACEMENT 1200
GEOM_OPT_TOL_ENERGY       100
SYMMETRY                  False
THRESH                    12
SCF_CONVERGENCE           8
MAX_SUB_FILE_NUM          128
MEM_STATIC                400
MEM_TOTAL                 4000
$end
--------------------------------------------------------------

   16   -1510.2288161536      5.48E-09 Convergence criterion met
 Total energy in the final basis set = -1510.22881615
   14   -1510.2351826472      3.44E-09 Convergence criterion met
 Total energy in the final basis set = -1510.23518265
   13   -1510.2406317037      8.96E-09 Convergence criterion met
 Total energy in the final basis set = -1510.24063170
   14   -1510.2456408549      6.04E-09 Convergence criterion met
 Total energy in the final basis set = -1510.24564085
   13   -1510.2507928048      6.18E-09 Convergence criterion met
 Total energy in the final basis set = -1510.25079280
   13   -1510.2555146134      7.65E-09 Convergence criterion met
 Total energy in the final basis set = -1510.25551461
   13   -1510.2595275752      4.10E-09 Convergence criterion met
 Total energy in the final basis set = -1510.25952758
   14   -1510.2629472463      4.83E-09 Convergence criterion met
   12   -1510.2947662784      4.44E-09 Convergence criterion met
 Total energy in the final basis set = -1510.29476628
   11   -1510.2947712191      6.47E-09 Convergence criterion met
 Total energy in the final basis set = -1510.29477122
   11   -1510.2947836352      8.53E-09 Convergence criterion met
 Total energy in the final basis set = -1510.29478364
   12   -1510.2947652624      2.54E-09 Convergence criterion met
 Total energy in the final basis set = -1510.29476526
   11   -1510.2947763066      3.17E-09 Convergence criterion met
 Total energy in the final basis set = -1510.29477631
   10   -1510.2947673084      5.63E-09 Convergence criterion met
 Total energy in the final basis set = -1510.29476731

             Standard Nuclear Orientation (Angstroms)
    I     Atom           X                Y                Z
 ----------------------------------------------------------------
    1      O      -2.9301942173     2.1566098333     1.1812306001
    2      C      -2.3281299441     1.5826471375     0.2498560719
    3      C      -2.7945521009     0.3450746193    -0.5920255084
    4      C      -2.3396099239    -1.0882784511    -0.0827251448
    5      C      -1.6691809156    -1.2088771933     1.3352329387
    6      O      -1.1451171763     0.0454928896     1.7821005625
    7      C      -0.4796732777    -0.1132999746     3.0991531828
    8      C       0.9250495628    -0.8401526718     2.9237892030
    9      O       1.2565479569    -0.9459098625     1.4844374801
   10      C       1.4096967710     0.3697807726     0.9364441045
   11      C       1.2356912855     0.3506960681    -0.6213237283
   12      C       2.4399480187     1.0281777486    -1.3966878145
   13      C       3.6119231511     1.4442807602    -0.4481487929
   14      O       4.2190291180     2.5353452670    -0.4098635292
   15      O      -1.1054892433     2.0553929889    -0.3416152604
   16      O       3.9009920564     0.3276428597     0.4062575700
   17      O       1.5415536179     1.3968926329     1.6461427170
   18      C       4.9222132479     0.6994497411     1.4095572171
   19      C       1.2246481870    -1.0928660620    -1.2660486365
   20      C       0.5896261494    -0.9754844273    -2.7085274803
   21      C       1.7641973728    -0.2881067956    -3.4990499198
   22      C       2.8611209509    -0.1595266784    -2.3680183127
   23      O       2.6545965172    -1.3691635126    -1.5426353839
   24      H       0.2814854777     0.9038321772    -0.7937136394
   25      H       2.1204836828     1.9226736130    -1.9591246421
   26      H       0.7995772690    -1.8787393236    -0.6133641221
   27      H       0.3595880749    -1.9737144250    -3.1139697520
   28      H      -0.3315099518    -0.3708393040    -2.7092057733
   29      H       2.1293124242    -0.9289584745    -4.3173537514
   30      H       1.4803449550     0.6912220783    -3.9164928748
   31      H       3.9061684225    -0.1099984233    -2.7311630525
   32      O      -1.5927087304    -2.2623360094     2.0039172810
   33      C      -0.5127844550     3.1590915121     0.4565716272
   34      C      -4.3767716383     0.1733429988    -0.5949766013
   35      C      -4.7728356560    -0.6303351312    -1.8933186309
   36      C      -4.2489579647    -2.0673446453    -1.5219632911
   37      C      -3.7383190124    -1.8393949803    -0.0447248595
   38      O      -4.6402676781    -0.7952000130     0.4936193953
   39      H      -2.4150785713     0.4982847477    -1.6180540563
   40      H      -1.6507297078    -1.5551528678    -0.8106412023
   41      H      -1.2640137069     3.5376767361     1.1768262880
   42      H      -4.9363443289     1.1124744252    -0.4187737658
   43      H      -5.8662228840    -0.6238240510    -2.0283692083
   44      H      -4.3013772127    -0.2221733873    -2.8015002888
   45      H      -5.0597335441    -2.8127142286    -1.5403207708
   46      H      -3.4405785054    -2.4094248586    -2.1879402659
   47      H      -3.7391635264    -2.7350799114     0.6067858183
   48      H      -0.2112670523     3.9610377118    -0.2432514812
   49      H       0.3789530984     2.7535041862     0.9914659869
   50      H       5.1618694228    -0.2287941350     1.9600294240
   51      H       4.5292604011     1.4592600589     2.1165759086
   52      H       5.8393911583     1.0999862756     0.9323837005
   53      H       1.7092084952    -0.2860386307     3.4817257988
   54      H       0.8725497236    -1.8849442540     3.2860229145
   55      H      -1.1222652538    -0.6901546682     3.7961879843
   56      H      -0.3433715084     0.9187556648     3.4750590663
 ----------------------------------------------------------------

    9   -1510.2947675617      7.62E-09 Convergence criterion met
 Total energy in the final basis set = -1510.29476756
 Final energy is   -1510.29476756171
 **  OPTIMIZATION CONVERGED  **

                    Orbital Energies (a.u.)
 --------------------------------------------------------------

 Alpha MOs
 -- Occupied --
-18.949 -18.937 -18.933 -18.932 -18.890 -18.886 -18.883 -18.875
-18.875 -18.872 -10.110 -10.104 -10.103 -10.097 -10.079 -10.076
-10.063 -10.062 -10.062 -10.060 -10.055 -10.046 -10.042 -10.041
-10.034 -10.024 -10.023 -10.023 -10.021 -10.020  -1.030  -1.013
 -1.007  -1.005  -0.974  -0.968  -0.947  -0.938  -0.935  -0.934
 -0.768  -0.760  -0.730  -0.723  -0.714  -0.707  -0.697  -0.658
 -0.655  -0.621  -0.600  -0.586  -0.547  -0.546  -0.541  -0.537
 -0.517  -0.507  -0.485  -0.479  -0.472  -0.464  -0.454  -0.442
 -0.433  -0.430  -0.427  -0.422  -0.413  -0.411  -0.408  -0.404
 -0.401  -0.380  -0.376  -0.371  -0.365  -0.359  -0.354  -0.350
 -0.343  -0.340  -0.335  -0.334  -0.331  -0.329  -0.321  -0.315
 -0.310  -0.308  -0.306  -0.301  -0.296  -0.294  -0.291  -0.279
 -0.274  -0.256  -0.249  -0.249  -0.246  -0.238  -0.230  -0.193
 -0.183  -0.175  -0.168  -0.164  -0.156  -0.154  -0.148  -0.148
 -0.141

          Ground-State Mulliken Net Atomic Charges

     Atom                 Charge (a.u.)
  ----------------------------------------
      1 O                    -0.211599
      2 C                     0.221269
      3 C                    -0.082100
      4 C                    -0.078484
      5 C                     0.214387
      6 O                    -0.169863
      7 C                    -0.050548
      8 C                    -0.050660
      9 O                    -0.168840
     10 C                     0.223342
     11 C                    -0.094773
     12 C                    -0.080642
     13 C                     0.210154
     14 O                    -0.211019
     15 O                    -0.179432
     16 O                    -0.166856
     17 O                    -0.230795
     18 C                    -0.128521
     19 C                     0.021116
     20 C                    -0.144917
     21 C                    -0.143440
     22 C                     0.026101
     23 O                    -0.186837
     24 H                     0.110243
     25 H                     0.084268
     26 H                     0.088453
     27 H                     0.074987
     28 H                     0.069809
     29 H                     0.077296
     30 H                     0.074023
     31 H                     0.081831
     32 O                    -0.211907
     33 C                    -0.149386
     34 C                     0.025322
     35 C                    -0.143328
     36 C                    -0.144761
     37 C                     0.024517
     38 O                    -0.188777
     39 H                     0.082091
     40 H                     0.086983
     41 H                     0.095545
     42 H                     0.087903
     43 H                     0.079068
     44 H                     0.073113
     45 H                     0.079415
     46 H                     0.073360
     47 H                     0.090104
     48 H                     0.080752
     49 H                     0.106859
     50 H                     0.090938
     51 H                     0.089293
     52 H                     0.090599
     53 H                     0.091976
     54 H                     0.096677
     55 H                     0.096189
     56 H                     0.099500
  ----------------------------------------
  Sum of atomic charges =    -0.000000

                    Cartesian Multipole Moments
 -----------------------------------------------------------------
    Charge (ESU x 10^10)
                -0.0000
    Dipole Moment (Debye)
         X      -0.0646      Y      -0.6309      Z      -1.5655
       Tot       1.6891
    Quadrupole Moments (Debye-Ang)
        XX    -166.0242     XY      -0.2233     YY    -168.4316
        XZ      12.2923     YZ      -0.4136     ZZ    -149.0470

 Total job time:  131.70s(wall), 6280.65s(cpu)
        *  Thank you very much for using Q-Chem.  Have a nice day.  *
