 Q-Chem 5.0, Q-Chem, Inc., Pleasanton, CA (2017)
 Q-Chem 5.0.1 for Intel X86 EM64T Linux

User input:
--------------------------------------------------------------
$molecule
0  1
O -2.2047319053 -3.1969459043 -0.4249523309
C -2.1945193591 -1.9863338424 -0.1114075912
C -3.4431246809 -1.1676992398 0.3893695666
C -3.3458312311 0.4130750171 0.2890959384
C -1.9419997665 0.9961804544 -0.1255985659
O -1.2440060294 1.3263053434 1.1006502445
C -0.4115093344 2.5530914435 1.05988212
C 0.5063314595 2.7261000793 -0.2108728801
O 1.9636823824 2.613080119 0.0873635044
C 2.5867169354 1.8148292584 -0.9325690505
C 3.7238628433 0.8141050711 -0.4654962197
C 3.8450511362 0.072101993 0.9329805012
C 2.7046252678 -0.0027689542 1.9974442169
O 2.9162047972 -0.2642538704 3.205544489
O -1.0293861282 -1.1657089963 -0.1211267831
O 1.4144001086 -0.0277733021 1.3984254284
O 2.2160494453 1.8530376883 -2.1290592518
C 0.4160212153 -0.4740160299 2.4097694119
C 3.7312104617 -0.4206945202 -1.4758902456
C 5.2150310776 -0.9164314275 -1.6535063586
C 5.4709760273 -1.5825355322 -0.251300287
C 4.0522625162 -1.4320006491 0.4246301535
O 3.1010476536 -1.5166316191 -0.7048130039
H 4.6679099742 1.3785947592 -0.5991515511
H 4.7442815807 0.4296670346 1.4650139952
H 3.1689175169 -0.2121324686 -2.4073893735
H 5.277875186 -1.6560320211 -2.467955916
H 5.9095461869 -0.0895483206 -1.8709449957
H 5.7401654857 -2.6461957126 -0.3486022141
H 6.2569813892 -1.0714880764 0.3274273412
H 3.8181331823 -2.1987130037 1.1889436335
O -1.5884501194 1.2977231997 -1.2871303813
C 0.1113570646 -1.854297406 -0.7728827442
C -4.6640437107 -1.4516479927 -0.5850275263
C -5.9976480135 -0.9415679235 0.0899399753
C -5.8677232915 0.6143680509 -0.1112330393
C -4.4556769092 0.7090678724 -0.811599427
O -4.4271084002 -0.4863794931 -1.6830605939
H -3.6672366627 -1.4851720122 1.4248286821
H -3.6107474028 0.8681320174 1.2592374951
H 0.0540296379 -1.7130605124 -1.8711916208
H -4.688252018 -2.4889476022 -0.9729246531
H -6.8763185231 -1.3465764304 -0.4364998773
H -6.058207312 -1.2296646458 1.1516655347
H -6.6530305594 1.0006552897 -0.7805602492
H -5.903193839 1.1745127469 0.8367453007
H -4.2753226852 1.6241343812 -1.4085872732
H 0.0802028289 -2.939026353 -0.5517730382
H 1.0546530773 -1.4058281204 -0.3899000037
H 0.3127706308 -1.5763694378 2.3698075324
H 0.739428604 -0.1782800544 3.4257208098
H -0.5253197255 0.0271341691 2.1066444514
H 0.1680476435 2.0041134237 -0.9838334599
H 0.3221524364 3.7442075785 -0.6190859471
H 0.2114339275 2.5099570802 1.9775959578
H -1.086558993 3.4342911642 1.1367523761
$end

$rem
JOBTYPE                   OPT
METHOD                    B3LYP
DFT_D                     d3_op
BASIS                     STO-3G
GEOM_OPT_MAX_CYCLES       100
GEOM_OPT_TOL_GRADIENT     300
GEOM_OPT_TOL_DISPLACEMENT 1200
GEOM_OPT_TOL_ENERGY       100
SYMMETRY                  False
THRESH                    12
SCF_CONVERGENCE           8
MAX_SUB_FILE_NUM          128
MEM_STATIC                400
MEM_TOTAL                 4000
$end
--------------------------------------------------------------

   16   -1510.2561557364      6.12E-09 Convergence criterion met
 Total energy in the final basis set = -1510.25615574
   15   -1510.2565464530      3.31E-09 Convergence criterion met
 Total energy in the final basis set = -1510.25654645
   14   -1510.2683639493      5.03E-09 Convergence criterion met
 Total energy in the final basis set = -1510.26836395
   15   -1510.2764645108      2.58E-09 Convergence criterion met
 Total energy in the final basis set = -1510.27646451
   14   -1510.2689374593      4.97E-09 Convergence criterion met
 Total energy in the final basis set = -1510.26893746
   15   -1510.2719068772      4.50E-09 Convergence criterion met
 Total energy in the final basis set = -1510.27190688
   14   -1510.2790335208      3.46E-09 Convergence criterion met
 Total energy in the final basis set = -1510.27903352
   14   -1510.2818591258      9.19E-09 Convergence criterion met
   11   -1510.3014770788      1.96E-09 Convergence criterion met
 Total energy in the final basis set = -1510.30147708
   11   -1510.3014835029      3.02E-09 Convergence criterion met
 Total energy in the final basis set = -1510.30148350
   10   -1510.3014902764      8.18E-09 Convergence criterion met
 Total energy in the final basis set = -1510.30149028
    9   -1510.3014957689      8.30E-09 Convergence criterion met
 Total energy in the final basis set = -1510.30149577
    9   -1510.3015008198      8.48E-09 Convergence criterion met
 Total energy in the final basis set = -1510.30150082
    9   -1510.3015035169      9.34E-09 Convergence criterion met
 Total energy in the final basis set = -1510.30150352

             Standard Nuclear Orientation (Angstroms)
    I     Atom           X                Y                Z
 ----------------------------------------------------------------
    1      O      -3.4655064635    -1.2767660915    -2.5189684439
    2      C      -2.8629294600    -1.0577759539    -1.4480826205
    3      C      -3.4976255493    -0.8646228605    -0.0226729049
    4      C      -3.1924851546     0.5370802025     0.6597802177
    5      C      -2.3134698179     1.4766492801    -0.2278043506
    6      O      -1.2274410702     1.9828772295     0.5703290669
    7      C      -0.3480875040     2.8475239903    -0.2544392778
    8      C       0.5710636887     2.0268964850    -1.2295774682
    9      O       1.8298693200     1.6836872615    -0.5247668087
   10      C       2.4373494855     0.5153405873    -1.0931130505
   11      C       3.8249657156     0.2961553042    -0.3874442921
   12      C       3.7272140464     0.1105679006     1.1845147461
   13      C       2.2510637704     0.1221682464     1.7048390034
   14      O       1.7871823381     0.7456054579     2.6835255250
   15      O      -1.4370298156    -0.9867396130    -1.3298519507
   16      O       1.4917661795    -0.7310302522     0.8457411928
   17      O       1.9713169887    -0.1393004812    -2.0525514243
   18      C       0.0519216802    -0.6802977813     1.1878172868
   19      C       4.4842692776    -1.0774656703    -0.8216057696
   20      C       6.0164268848    -1.0310153515    -0.4448656811
   21      C       5.9466590015    -1.1898234559     1.1201175854
   22      C       4.3887296015    -1.3282898882     1.3452747646
   23      O       3.9228038687    -2.0526086745     0.1422708677
   24      H       4.4718930696     1.1566939122    -0.6398621205
   25      H       4.2941860813     0.8865621192     1.7271305773
   26      H       4.2471298332    -1.3809478360    -1.8599673473
   27      H       6.5528585771    -1.8725122204    -0.9117043947
   28      H       6.4949839610    -0.0894963723    -0.7579522112
   29      H       6.4668882250    -2.1000818231     1.4579779524
   30      H       6.3668235582    -0.3232444708     1.6552189077
   31      H       4.0911392905    -1.8691521355     2.2644955754
   32      O      -2.4945621260     1.7767798300    -1.4273769148
   33      C      -0.7753619150    -1.2121506797    -2.6375783513
   34      C      -5.0781574175    -0.8212349257    -0.1202760194
   35      C      -5.6780251450    -1.0549492223     1.3204974440
   36      C      -5.3746932225     0.3306606718     2.0024916296
   37      C      -4.6717410384     1.1072138949     0.8197930486
   38      O      -5.3632029509     0.6085288162    -0.3879516953
   39      H      -3.1470284170    -1.6904672123     0.6232537806
   40      H      -2.6982144959     0.4144938240     1.6384392941
   41      H       0.2837690674    -0.8964140695    -2.5010259084
   42      H      -5.4922766746    -1.4538563882    -0.9292488702
   43      H      -6.7612379528    -1.2456924844     1.2598228318
   44      H      -5.1987502762    -1.9004575181     1.8396357434
   45      H      -6.3016514761     0.8465948305     2.2992624274
   46      H      -4.7231656337     0.2397681927     2.8863386198
   47      H      -4.7351683935     2.2112738091     0.8766554073
   48      H      -1.2590249080    -0.6102028311    -3.4320538821
   49      H      -0.8250365305    -2.2822487071    -2.9233370783
   50      H      -0.1669793219    -1.3021294733     2.0788778480
   51      H      -0.2759981721     0.3648338321     1.3701747334
   52      H      -0.4898118931    -1.0610915219     0.2942657088
   53      H       0.0452414125     1.1123618174    -1.5701067711
   54      H       0.8037388503     2.6458782632    -2.1241957038
   55      H       0.2784216580     3.4119579350     0.4655844240
   56      H      -0.9612043552     3.5565487031    -0.8510649538
 ----------------------------------------------------------------

    9   -1510.3015042034      4.33E-09 Convergence criterion met
 Total energy in the final basis set = -1510.30150420
 Final energy is   -1510.30150420337
 **  OPTIMIZATION CONVERGED  **

                    Orbital Energies (a.u.)
 --------------------------------------------------------------

 Alpha MOs
 -- Occupied --
-18.944 -18.936 -18.936 -18.925 -18.890 -18.887 -18.883 -18.881
-18.880 -18.868 -10.109 -10.106 -10.102 -10.092 -10.081 -10.076
-10.064 -10.060 -10.059 -10.058 -10.047 -10.042 -10.041 -10.039
-10.035 -10.031 -10.023 -10.021 -10.021 -10.019  -1.022  -1.016
 -1.011  -1.000  -0.972  -0.969  -0.947  -0.940  -0.938  -0.928
 -0.767  -0.763  -0.731  -0.724  -0.715  -0.706  -0.700  -0.657
 -0.646  -0.621  -0.599  -0.584  -0.549  -0.546  -0.539  -0.537
 -0.513  -0.511  -0.487  -0.476  -0.466  -0.463  -0.454  -0.441
 -0.436  -0.431  -0.429  -0.423  -0.411  -0.406  -0.405  -0.400
 -0.395  -0.384  -0.371  -0.368  -0.363  -0.356  -0.355  -0.354
 -0.346  -0.337  -0.336  -0.333  -0.331  -0.327  -0.323  -0.313
 -0.309  -0.307  -0.305  -0.300  -0.297  -0.290  -0.288  -0.275
 -0.273  -0.262  -0.253  -0.249  -0.237  -0.236  -0.233  -0.189
 -0.180  -0.178  -0.167  -0.162  -0.161  -0.153  -0.146  -0.145
 -0.143

          Ground-State Mulliken Net Atomic Charges

     Atom                 Charge (a.u.)
  ----------------------------------------
      1 O                    -0.203852
      2 C                     0.215750
      3 C                    -0.079322
      4 C                    -0.079825
      5 C                     0.210454
      6 O                    -0.168623
      7 C                    -0.048838
      8 C                    -0.052811
      9 O                    -0.176896
     10 C                     0.225931
     11 C                    -0.077342
     12 C                    -0.079373
     13 C                     0.210954
     14 O                    -0.214805
     15 O                    -0.179412
     16 O                    -0.171998
     17 O                    -0.218931
     18 C                    -0.156250
     19 C                     0.024857
     20 C                    -0.143933
     21 C                    -0.143985
     22 C                     0.025954
     23 O                    -0.185542
     24 H                     0.083640
     25 H                     0.084134
     26 H                     0.089531
     27 H                     0.078083
     28 H                     0.072723
     29 H                     0.077937
     30 H                     0.073654
     31 H                     0.082930
     32 O                    -0.210165
     33 C                    -0.144131
     34 C                     0.024915
     35 C                    -0.144120
     36 C                    -0.143685
     37 C                     0.026316
     38 O                    -0.185724
     39 H                     0.085330
     40 H                     0.088432
     41 H                     0.115555
     42 H                     0.091835
     43 H                     0.079127
     44 H                     0.073745
     45 H                     0.078906
     46 H                     0.074571
     47 H                     0.083287
     48 H                     0.090174
     49 H                     0.083012
     50 H                     0.072431
     51 H                     0.095842
     52 H                     0.105327
     53 H                     0.103812
     54 H                     0.085965
     55 H                     0.099574
     56 H                     0.094875
  ----------------------------------------
  Sum of atomic charges =     0.000000

                    Cartesian Multipole Moments
 -----------------------------------------------------------------
    Charge (ESU x 10^10)
                 0.0000
    Dipole Moment (Debye)
         X       1.8073      Y       0.7805      Z       1.6374
       Tot       2.5606
    Quadrupole Moments (Debye-Ang)
        XX    -150.4188     XY       6.0192     YY    -156.8448
        XZ     -13.8804     YZ      -4.4043     ZZ    -166.8024

 Total job time:  151.83s(wall), 7249.21s(cpu)
        *  Thank you very much for using Q-Chem.  Have a nice day.  *
