 Q-Chem 5.0, Q-Chem, Inc., Pleasanton, CA (2017)
 Q-Chem 5.0.1 for Intel X86 EM64T Linux

User input:
--------------------------------------------------------------
$molecule
0  1
O -3.94934 -3.66094 2.70899
C -3.26408 -4.56952 2.26188
C -3.36658 -6.02376 2.66595
C -2.16257 -6.92683 2.35181
C -0.92098 -6.23818 1.83001
O -0.91045 -6.27249 0.46468
C 0.39849 -6.4597 -0.08384
C 1.39839 -5.54744 0.61909
O 1.85991 -4.53515 -0.28928
C 1.94194 -3.28322 0.22557
C 1.51887 -2.21507 -0.7546
C 0.4475 -2.65111 -1.7647
C -0.28869 -3.934 -1.43464
O -0.90743 -4.62184 -2.23376
O -2.01172 -4.09773 2.02737
O -1.07213 -3.74149 -0.3484
O 2.06837 -3.03919 1.41927
C -2.45681 -3.54004 -0.52428
C 0.86701 -0.93674 -0.18127
C 1.11653 0.22631 -1.14002
C 0.23636 -0.17574 -2.30942
C -0.46418 -1.40697 -1.71855
O -0.51775 -1.13161 -0.33758
H 2.45966 -1.9278 -1.27686
H 0.90842 -2.82244 -2.76277
H 1.21426 -0.67417 0.84104
H 0.6797 1.13227 -0.66113
H 2.17878 0.42898 -1.3955
H -0.48719 0.64732 -2.50134
H 0.77817 -0.43508 -3.2447
H -1.43346 -1.57559 -2.2316
O 0.03327 -6.34473 2.5854
C -1.48722 -2.88964 2.4727
C -3.46044 -6.19533 4.1977
C -4.16913 -7.50646 4.52629
C -3.10934 -8.5051 4.11892
C -1.95941 -7.55612 3.75678
O -2.14183 -6.45473 4.60967
H -4.30854 -6.39576 2.20444
H -2.43192 -7.72397 1.62144
H -1.48444 -2.8682 3.58308
H -3.97296 -5.35197 4.71001
H -4.2854 -7.54388 5.63344
H -5.16308 -7.64694 4.04965
H -2.84849 -9.1204 5.00874
H -3.37981 -9.16519 3.26662
H -0.99521 -8.10149 3.85456
H -2.0751 -2.02839 2.0932
H -0.44315 -2.7922 2.11936
H -2.79599 -2.64567 0.03167
H -2.75083 -3.35063 -1.58012
H -3.01606 -4.44814 -0.23168
H 1.44709 -5.18469 1.64982
H 2.2957 -6.20325 0.67521
H 0.43976 -6.44667 -1.19095
H 0.66818 -7.50913 0.1835
$end

$opt
CONSTRAINT
tors           1           2           3           4    -160.934
tors           3           4           5           6     -95.014
tors           4           5           6           7    -142.884
tors           5           6           7           8     -45.374
tors           6           7           8           9    -111.716
tors           7           8           9          10    +136.952
tors           8           9          10          11    -141.579
tors           9          10          11          12     +30.681
tors          11          12          13          14    -160.228
ENDCONSTRAINT
$end

$rem
JOBTYPE                   OPT
METHOD                    B3LYP
DFT_D                     d3_op
BASIS                     STO-3G
GEOM_OPT_MAX_CYCLES       100
GEOM_OPT_TOL_GRADIENT     300
GEOM_OPT_TOL_DISPLACEMENT 1200
GEOM_OPT_TOL_ENERGY       100
SYMMETRY                  False
THRESH                    12
SCF_CONVERGENCE           8
MAX_SUB_FILE_NUM          128
MEM_STATIC                400
MEM_TOTAL                 4000
$end
--------------------------------------------------------------

   16   -1510.0103500359      4.35E-09 Convergence criterion met
 Total energy in the final basis set = -1510.01035004
   14   -1510.0960768277      7.90E-09 Convergence criterion met
 Total energy in the final basis set = -1510.09607683
   14   -1510.1412151999      7.44E-09 Convergence criterion met
 Total energy in the final basis set = -1510.14121520
   15   -1510.1763100970      2.27E-09 Convergence criterion met
 Total energy in the final basis set = -1510.17631010
   14   -1510.1969887068      7.52E-09 Convergence criterion met
 Total energy in the final basis set = -1510.19698871
   14   -1510.2114437889      4.97E-09 Convergence criterion met
 Total energy in the final basis set = -1510.21144379
   14   -1510.2219896043      4.12E-09 Convergence criterion met
 Total energy in the final basis set = -1510.22198960
   13   -1510.2304106116      4.26E-09 Convergence criterion met
   10   -1510.2562333589      9.16E-09 Convergence criterion met
 Total energy in the final basis set = -1510.25623336
   11   -1510.2562449435      2.86E-09 Convergence criterion met
 Total energy in the final basis set = -1510.25624494
   11   -1510.2562507746      2.09E-09 Convergence criterion met
 Total energy in the final basis set = -1510.25625077
   10   -1510.2562553148      7.96E-09 Convergence criterion met
 Total energy in the final basis set = -1510.25625531
   10   -1510.2562574787      6.42E-09 Convergence criterion met
 Total energy in the final basis set = -1510.25625748
    9   -1510.2562593789      7.18E-09 Convergence criterion met
 Total energy in the final basis set = -1510.25625938

             Standard Nuclear Orientation (Angstroms)
    I     Atom           X                Y                Z
 ----------------------------------------------------------------
    1      O      -2.2047319053    -3.1969459043    -0.4249523309
    2      C      -2.1945193591    -1.9863338424    -0.1114075912
    3      C      -3.4431246809    -1.1676992398     0.3893695666
    4      C      -3.3458312311     0.4130750171     0.2890959384
    5      C      -1.9419997665     0.9961804544    -0.1255985659
    6      O      -1.2440060294     1.3263053434     1.1006502445
    7      C      -0.4115093344     2.5530914435     1.0598821200
    8      C       0.5063314595     2.7261000793    -0.2108728801
    9      O       1.9636823824     2.6130801190     0.0873635044
   10      C       2.5867169354     1.8148292584    -0.9325690505
   11      C       3.7238628433     0.8141050711    -0.4654962197
   12      C       3.8450511362     0.0721019930     0.9329805012
   13      C       2.7046252678    -0.0027689542     1.9974442169
   14      O       2.9162047972    -0.2642538704     3.2055444890
   15      O      -1.0293861282    -1.1657089963    -0.1211267831
   16      O       1.4144001086    -0.0277733021     1.3984254284
   17      O       2.2160494453     1.8530376883    -2.1290592518
   18      C       0.4160212153    -0.4740160299     2.4097694119
   19      C       3.7312104617    -0.4206945202    -1.4758902456
   20      C       5.2150310776    -0.9164314275    -1.6535063586
   21      C       5.4709760273    -1.5825355322    -0.2513002870
   22      C       4.0522625162    -1.4320006491     0.4246301535
   23      O       3.1010476536    -1.5166316191    -0.7048130039
   24      H       4.6679099742     1.3785947592    -0.5991515511
   25      H       4.7442815807     0.4296670346     1.4650139952
   26      H       3.1689175169    -0.2121324686    -2.4073893735
   27      H       5.2778751860    -1.6560320211    -2.4679559160
   28      H       5.9095461869    -0.0895483206    -1.8709449957
   29      H       5.7401654857    -2.6461957126    -0.3486022141
   30      H       6.2569813892    -1.0714880764     0.3274273412
   31      H       3.8181331823    -2.1987130037     1.1889436335
   32      O      -1.5884501194     1.2977231997    -1.2871303813
   33      C       0.1113570646    -1.8542974060    -0.7728827442
   34      C      -4.6640437107    -1.4516479927    -0.5850275263
   35      C      -5.9976480135    -0.9415679235     0.0899399753
   36      C      -5.8677232915     0.6143680509    -0.1112330393
   37      C      -4.4556769092     0.7090678724    -0.8115994270
   38      O      -4.4271084002    -0.4863794931    -1.6830605939
   39      H      -3.6672366627    -1.4851720122     1.4248286821
   40      H      -3.6107474028     0.8681320174     1.2592374951
   41      H       0.0540296379    -1.7130605124    -1.8711916208
   42      H      -4.6882520180    -2.4889476022    -0.9729246531
   43      H      -6.8763185231    -1.3465764304    -0.4364998773
   44      H      -6.0582073120    -1.2296646458     1.1516655347
   45      H      -6.6530305594     1.0006552897    -0.7805602492
   46      H      -5.9031938390     1.1745127469     0.8367453007
   47      H      -4.2753226852     1.6241343812    -1.4085872732
   48      H       0.0802028289    -2.9390263530    -0.5517730382
   49      H       1.0546530773    -1.4058281204    -0.3899000037
   50      H       0.3127706308    -1.5763694378     2.3698075324
   51      H       0.7394286040    -0.1782800544     3.4257208098
   52      H      -0.5253197255     0.0271341691     2.1066444514
   53      H       0.1680476435     2.0041134237    -0.9838334599
   54      H       0.3221524364     3.7442075785    -0.6190859471
   55      H       0.2114339275     2.5099570802     1.9775959578
   56      H      -1.0865589930     3.4342911642     1.1367523761
 ----------------------------------------------------------------

    9   -1510.2562603426      5.44E-09 Convergence criterion met
 Total energy in the final basis set = -1510.25626034
 Final energy is   -1510.25626034255
 **  OPTIMIZATION CONVERGED  **

                    Orbital Energies (a.u.)
 --------------------------------------------------------------

 Alpha MOs
 -- Occupied --
-18.939 -18.931 -18.928 -18.922 -18.897 -18.889 -18.884 -18.878
-18.874 -18.863 -10.113 -10.102 -10.101 -10.094 -10.078 -10.065
-10.061 -10.060 -10.059 -10.057 -10.044 -10.041 -10.040 -10.038
-10.038 -10.034 -10.024 -10.022 -10.022 -10.021  -1.016  -1.008
 -1.005  -1.004  -0.978  -0.972  -0.944  -0.936  -0.931  -0.927
 -0.765  -0.763  -0.727  -0.723  -0.713  -0.707  -0.699  -0.652
 -0.648  -0.616  -0.601  -0.586  -0.546  -0.542  -0.541  -0.539
 -0.513  -0.512  -0.479  -0.477  -0.469  -0.460  -0.450  -0.440
 -0.437  -0.429  -0.423  -0.417  -0.411  -0.407  -0.399  -0.394
 -0.388  -0.386  -0.376  -0.370  -0.364  -0.356  -0.350  -0.349
 -0.340  -0.339  -0.336  -0.334  -0.332  -0.328  -0.320  -0.314
 -0.312  -0.308  -0.305  -0.304  -0.300  -0.292  -0.283  -0.273
 -0.268  -0.252  -0.245  -0.244  -0.239  -0.236  -0.231  -0.182
 -0.175  -0.167  -0.164  -0.158  -0.156  -0.152  -0.149  -0.146
 -0.145

          Ground-State Mulliken Net Atomic Charges

     Atom                 Charge (a.u.)
  ----------------------------------------
      1 O                    -0.213408
      2 C                     0.212452
      3 C                    -0.078314
      4 C                    -0.081963
      5 C                     0.231704
      6 O                    -0.180984
      7 C                    -0.046255
      8 C                    -0.063269
      9 O                    -0.179199
     10 C                     0.214644
     11 C                    -0.080993
     12 C                    -0.079354
     13 C                     0.206541
     14 O                    -0.222485
     15 O                    -0.168627
     16 O                    -0.171443
     17 O                    -0.206568
     18 C                    -0.151395
     19 C                     0.023609
     20 C                    -0.143045
     21 C                    -0.144470
     22 C                     0.026046
     23 O                    -0.191500
     24 H                     0.082790
     25 H                     0.085750
     26 H                     0.095523
     27 H                     0.079313
     28 H                     0.075235
     29 H                     0.079388
     30 H                     0.075711
     31 H                     0.084249
     32 O                    -0.206972
     33 C                    -0.139323
     34 C                     0.024578
     35 C                    -0.144525
     36 C                    -0.143519
     37 C                     0.025192
     38 O                    -0.188391
     39 H                     0.085035
     40 H                     0.083530
     41 H                     0.085066
     42 H                     0.090187
     43 H                     0.079124
     44 H                     0.073642
     45 H                     0.078710
     46 H                     0.072849
     47 H                     0.086482
     48 H                     0.092003
     49 H                     0.116874
     50 H                     0.075128
     51 H                     0.088498
     52 H                     0.116067
     53 H                     0.121775
     54 H                     0.078484
     55 H                     0.098442
     56 H                     0.081380
  ----------------------------------------
  Sum of atomic charges =    -0.000000

                    Cartesian Multipole Moments
 -----------------------------------------------------------------
    Charge (ESU x 10^10)
                -0.0000
    Dipole Moment (Debye)
         X      -0.1993      Y       1.1301      Z       1.8250
       Tot       2.1558
    Quadrupole Moments (Debye-Ang)
        XX    -138.1922     XY      -6.5377     YY    -160.7097
        XZ     -11.8428     YZ       1.6667     ZZ    -171.4595

 Total job time:  93.07s(wall), 4431.22s(cpu)
        *  Thank you very much for using Q-Chem.  Have a nice day.  *
