 Q-Chem 5.0, Q-Chem, Inc., Pleasanton, CA (2017)
 Q-Chem 5.0.1 for Intel X86 EM64T Linux

User input:
--------------------------------------------------------------
$molecule
0  1
O -3.94934 -3.66094 2.70899
C -3.26408 -4.56952 2.26188
C -3.36658 -6.02376 2.66595
C -2.3978 -7.00993 1.99307
C -1.31671 -6.40643 1.12408
O -1.84914 -6.0069 -0.06853
C -2.06574 -7.08972 -0.97948
C -3.53403 -7.14716 -1.38808
O -3.9306 -8.51155 -1.598
C -5.2627 -8.71466 -1.75093
C -5.79851 -8.15351 -3.04657
C -4.72722 -7.66632 -4.0331
C -3.31107 -8.12641 -3.75108
O -2.63989 -7.80146 -2.78232
O -2.31684 -4.13347 1.39399
O -2.73311 -8.97257 -4.64911
O -5.93599 -9.31613 -0.92938
C -1.45851 -9.4868 -4.53124
C -6.5302 -9.19617 -3.91939
C -7.53686 -8.48108 -4.81718
C -6.60138 -7.7544 -5.76171
C -5.25452 -8.34321 -5.31807
O -5.57391 -9.63118 -4.85335
H -6.52669 -7.35964 -2.76521
H -4.70389 -6.55933 -4.13309
H -7.03708 -9.99275 -3.3323
H -8.0729 -9.27499 -5.38584
H -8.28273 -7.83782 -4.30267
H -6.85538 -8.05236 -6.80305
H -6.5988 -6.64668 -5.6686
H -4.52785 -8.29027 -6.15821
O -0.12475 -6.3276 1.38397
C -2.12863 -2.82787 0.98188
C -3.00889 -6.2121 4.14827
C -3.61666 -7.51294 4.67101
C -2.71642 -8.52884 4.00345
C -1.74575 -7.60045 3.26614
O -1.63265 -6.49177 4.12433
H -4.42396 -6.31375 2.47515
H -2.91096 -7.83215 1.4513
H -1.89238 -2.18087 1.85348
H -3.32486 -5.35755 4.78629
H -3.44515 -7.55598 5.77033
H -4.70179 -7.6268 4.4597
H -2.16625 -9.08325 4.79653
H -3.22661 -9.24829 3.32724
H -0.80201 -8.14837 3.04943
H -3.04024 -2.45362 0.46901
H -1.2787 -2.79154 0.27001
H -1.24969 -10.1441 -5.39996
H -1.3731 -10.086 -3.5995
H -0.7133 -8.66291 -4.51758
H -4.05294 -6.90171 -0.4327
H -3.97056 -6.29034 -1.98435
H -1.81175 -8.07189 -0.50052
H -1.1809 -6.90762 -1.66758
$end

$opt
CONSTRAINT
tors           1           2           3           4    -179.320
tors           3           4           5           6     -76.076
tors           4           5           6           7     -78.121
tors           5           6           7           8    +122.415
tors           6           7           8           9    -146.494
tors           7           8           9          10    +169.642
tors           8           9          10          11     +69.062
tors           9          10          11          12      +9.151
tors          11          12          13          14     -66.316
ENDCONSTRAINT
$end

$rem
JOBTYPE                   OPT
METHOD                    B3LYP
DFT_D                     d3_op
BASIS                     STO-3G
GEOM_OPT_MAX_CYCLES       100
GEOM_OPT_TOL_GRADIENT     300
GEOM_OPT_TOL_DISPLACEMENT 1200
GEOM_OPT_TOL_ENERGY       100
SYMMETRY                  False
THRESH                    12
SCF_CONVERGENCE           8
MAX_SUB_FILE_NUM          128
MEM_STATIC                400
MEM_TOTAL                 4000
$end
--------------------------------------------------------------

   15   -1509.9471260903      7.70E-09 Convergence criterion met
 Total energy in the final basis set = -1509.94712609
   14   -1510.0472666657      3.25E-09 Convergence criterion met
 Total energy in the final basis set = -1510.04726667
   14   -1510.1147124212      4.75E-09 Convergence criterion met
 Total energy in the final basis set = -1510.11471242
   13   -1510.1589017438      8.62E-09 Convergence criterion met
 Total energy in the final basis set = -1510.15890174
   13   -1510.1862694146      8.39E-09 Convergence criterion met
 Total energy in the final basis set = -1510.18626941
   13   -1510.2029584847      8.59E-09 Convergence criterion met
 Total energy in the final basis set = -1510.20295848
   14   -1510.2133158188      2.18E-09 Convergence criterion met
 Total energy in the final basis set = -1510.21331582
   14   -1510.2197675056      1.70E-09 Convergence criterion met
   11   -1510.2285343251      4.18E-09 Convergence criterion met
 Total energy in the final basis set = -1510.22853433
   10   -1510.2285407876      5.58E-09 Convergence criterion met
 Total energy in the final basis set = -1510.22854079
   10   -1510.2285498740      8.34E-09 Convergence criterion met
 Total energy in the final basis set = -1510.22854987
   10   -1510.2285558896      9.53E-09 Convergence criterion met
 Total energy in the final basis set = -1510.22855589
    9   -1510.2285600392      6.27E-09 Convergence criterion met
 Total energy in the final basis set = -1510.22856004
    9   -1510.2285618477      5.32E-09 Convergence criterion met
 Total energy in the final basis set = -1510.22856185

             Standard Nuclear Orientation (Angstroms)
    I     Atom           X                Y                Z
 ----------------------------------------------------------------
    1      O      -4.4357511820     0.7705705702     3.0504623512
    2      C      -4.0009483327     0.2562126012     1.9969131071
    3      C      -3.6221632744     1.0252696992     0.6817982857
    4      C      -3.1018240334     0.1737485417    -0.5519173211
    5      C      -2.9084424373    -1.3829117377    -0.3207010918
    6      O      -1.7033449458    -1.7122003611     0.4464804569
    7      C      -0.5249977194    -1.6231770038    -0.4483006789
    8      C       0.5045310415    -0.5869509721     0.1441867217
    9      O       1.1627770304     0.0733449922    -1.0153115119
   10      C       1.9344061219     1.1983244450    -0.5401523840
   11      C       3.2410952979     0.9548521096     0.3273385534
   12      C       3.9244394094    -0.4644816979     0.5699393158
   13      C       3.6147855704    -1.6272887130    -0.4598741173
   14      O       2.5291332138    -2.2087313341    -0.6734896854
   15      O      -3.8498521986    -1.1478158611     1.8069843917
   16      O       4.8090520042    -1.9602881559    -1.1747510183
   17      O       1.6471230628     2.3485839549    -0.9399880818
   18      C       4.5285926510    -3.0365021627    -2.1525036910
   19      C       4.4830386244     1.8239959170    -0.1739420487
   20      C       5.2527652631     2.3165772419     1.1099053534
   21      C       5.8342802813     0.9503328285     1.6311764361
   22      C       5.4473661352    -0.0303044513     0.4504516189
   23      O       5.4191483759     0.8360955029    -0.7535761601
   24      H       2.9584093639     1.3297644093     1.3307880533
   25      H       3.6673200555    -0.8377299285     1.5787839976
   26      H       4.2184619360     2.6075310260    -0.9107030695
   27      H       6.0577627740     3.0144549407     0.8281612129
   28      H       4.5919973043     2.8119891704     1.8390008205
   29      H       6.9275900209     0.9922002339     1.7561048065
   30      H       5.3838199281     0.6370960162     2.5868169189
   31      H       6.1418556043    -0.8774526656     0.2998580047
   32      O      -3.6640819841    -2.2672111568    -0.7688814510
   33      C      -4.2259596511    -1.9019945445     3.0214352448
   34      C      -4.9377095508     1.6722620260     0.0525766100
   35      C      -4.5097158619     2.7861747667    -0.9820155421
   36      C      -4.0354811614     1.9076187902    -2.1983299343
   37      C      -4.2437787228     0.4543617552    -1.6179021772
   38      O      -5.4688119976     0.5830662246    -0.7941460116
   39      H      -2.8940313195     1.8110211103     0.9542969859
   40      H      -2.1338572521     0.5811226588    -0.8950167740
   41      H      -5.2770794808    -1.6997342564     3.3118428848
   42      H      -5.6863828348     1.9874368259     0.8057034469
   43      H      -5.3734479841     3.4162840762    -1.2473867397
   44      H      -3.7103470080     3.4316505534    -0.5845030371
   45      H      -4.6724465056     2.0654369629    -3.0832726879
   46      H      -2.9868869368     2.0978684225    -2.4777495803
   47      H      -4.3682450091    -0.3523425158    -2.3660888792
   48      H      -3.5643537491    -1.6485493296     3.8748390442
   49      H      -4.1069669913    -2.9699677741     2.7617253606
   50      H       5.4838840032    -3.2241684459    -2.6762648726
   51      H       3.7552391927    -2.7290669124    -2.8855241812
   52      H       4.1889365173    -3.9661580392    -1.6516016999
   53      H      -0.0620119062     0.1609530709     0.7448862379
   54      H       1.2336002260    -1.0967084814     0.8055359039
   55      H      -0.7811754959    -1.2963379221    -1.4784589615
   56      H      -0.0435337000    -2.6225636739    -0.5195998900
 ----------------------------------------------------------------

    9   -1510.2285621490      4.43E-09 Convergence criterion met
 Total energy in the final basis set = -1510.22856215
 Final energy is   -1510.22856214899
 **  OPTIMIZATION CONVERGED  **

                    Orbital Energies (a.u.)
 --------------------------------------------------------------

 Alpha MOs
 -- Occupied --
-18.946 -18.941 -18.914 -18.896 -18.890 -18.888 -18.888 -18.886
-18.880 -18.876 -10.109 -10.105 -10.104 -10.102 -10.068 -10.068
-10.066 -10.062 -10.062 -10.062 -10.059 -10.055 -10.047 -10.040
-10.040 -10.032 -10.024 -10.023 -10.019 -10.017  -1.019  -1.018
 -1.009  -0.993  -0.973  -0.969  -0.944  -0.940  -0.937  -0.925
 -0.766  -0.761  -0.726  -0.721  -0.708  -0.703  -0.695  -0.664
 -0.664  -0.605  -0.601  -0.581  -0.549  -0.543  -0.541  -0.537
 -0.518  -0.511  -0.489  -0.481  -0.470  -0.455  -0.445  -0.444
 -0.435  -0.432  -0.427  -0.418  -0.414  -0.413  -0.411  -0.401
 -0.391  -0.388  -0.381  -0.371  -0.364  -0.358  -0.351  -0.347
 -0.343  -0.339  -0.334  -0.334  -0.329  -0.325  -0.314  -0.313
 -0.310  -0.310  -0.305  -0.304  -0.298  -0.296  -0.295  -0.278
 -0.270  -0.259  -0.254  -0.244  -0.236  -0.233  -0.226  -0.184
 -0.182  -0.170  -0.159  -0.158  -0.156  -0.147  -0.147  -0.145
 -0.141

          Ground-State Mulliken Net Atomic Charges

     Atom                 Charge (a.u.)
  ----------------------------------------
      1 O                    -0.214968
      2 C                     0.212464
      3 C                    -0.078861
      4 C                    -0.086009
      5 C                     0.233346
      6 O                    -0.199270
      7 C                    -0.049321
      8 C                    -0.045876
      9 O                    -0.184915
     10 C                     0.212850
     11 C                    -0.086709
     12 C                    -0.079758
     13 C                     0.208969
     14 O                    -0.214368
     15 O                    -0.161878
     16 O                    -0.165555
     17 O                    -0.189814
     18 C                    -0.127161
     19 C                     0.024258
     20 C                    -0.141825
     21 C                    -0.146481
     22 C                     0.024625
     23 O                    -0.188071
     24 H                     0.080494
     25 H                     0.081185
     26 H                     0.089682
     27 H                     0.078946
     28 H                     0.073673
     29 H                     0.078751
     30 H                     0.071941
     31 H                     0.092424
     32 O                    -0.187354
     33 C                    -0.122904
     34 C                     0.025492
     35 C                    -0.144027
     36 C                    -0.144256
     37 C                     0.023941
     38 O                    -0.189455
     39 H                     0.084811
     40 H                     0.080445
     41 H                     0.093154
     42 H                     0.085750
     43 H                     0.078439
     44 H                     0.074326
     45 H                     0.078123
     46 H                     0.075197
     47 H                     0.088091
     48 H                     0.090528
     49 H                     0.098717
     50 H                     0.092355
     51 H                     0.092646
     52 H                     0.088459
     53 H                     0.073025
     54 H                     0.085972
     55 H                     0.084115
     56 H                     0.091641
  ----------------------------------------
  Sum of atomic charges =     0.000000

                    Cartesian Multipole Moments
 -----------------------------------------------------------------
    Charge (ESU x 10^10)
                -0.0000
    Dipole Moment (Debye)
         X       3.1125      Y       0.1552      Z       1.6835
       Tot       3.5420
    Quadrupole Moments (Debye-Ang)
        XX    -166.5475     XY      -9.8074     YY    -159.4962
        XZ       6.8967     YZ      -0.7334     ZZ    -156.9958

 Total job time:  61.64s(wall), 2929.64s(cpu)
        *  Thank you very much for using Q-Chem.  Have a nice day.  *
