 Q-Chem 5.0, Q-Chem, Inc., Pleasanton, CA (2017)
 Q-Chem 5.0.1 for Intel X86 EM64T Linux

User input:
--------------------------------------------------------------
$molecule
0  1
O -4.435751182 0.7705705702 3.0504623512
C -4.0009483327 0.2562126012 1.9969131071
C -3.6221632744 1.0252696992 0.6817982857
C -3.1018240334 0.1737485417 -0.5519173211
C -2.9084424373 -1.3829117377 -0.3207010918
O -1.7033449458 -1.7122003611 0.4464804569
C -0.5249977194 -1.6231770038 -0.4483006789
C 0.5045310415 -0.5869509721 0.1441867217
O 1.1627770304 0.0733449922 -1.0153115119
C 1.9344061219 1.198324445 -0.540152384
C 3.2410952979 0.9548521096 0.3273385534
C 3.9244394094 -0.4644816979 0.5699393158
C 3.6147855704 -1.627288713 -0.4598741173
O 2.5291332138 -2.2087313341 -0.6734896854
O -3.8498521986 -1.1478158611 1.8069843917
O 4.8090520042 -1.9602881559 -1.1747510183
O 1.6471230628 2.3485839549 -0.9399880818
C 4.528592651 -3.0365021627 -2.152503691
C 4.4830386244 1.823995917 -0.1739420487
C 5.2527652631 2.3165772419 1.1099053534
C 5.8342802813 0.9503328285 1.6311764361
C 5.4473661352 -0.0303044513 0.4504516189
O 5.4191483759 0.8360955029 -0.7535761601
H 2.9584093639 1.3297644093 1.3307880533
H 3.6673200555 -0.8377299285 1.5787839976
H 4.218461936 2.607531026 -0.9107030695
H 6.057762774 3.0144549407 0.8281612129
H 4.5919973043 2.8119891704 1.8390008205
H 6.9275900209 0.9922002339 1.7561048065
H 5.3838199281 0.6370960162 2.5868169189
H 6.1418556043 -0.8774526656 0.2998580047
O -3.6640819841 -2.2672111568 -0.768881451
C -4.2259596511 -1.9019945445 3.0214352448
C -4.9377095508 1.672262026 0.05257661
C -4.5097158619 2.7861747667 -0.9820155421
C -4.0354811614 1.9076187902 -2.1983299343
C -4.2437787228 0.4543617552 -1.6179021772
O -5.4688119976 0.5830662246 -0.7941460116
H -2.8940313195 1.8110211103 0.9542969859
H -2.1338572521 0.5811226588 -0.895016774
H -5.2770794808 -1.6997342564 3.3118428848
H -5.6863828348 1.9874368259 0.8057034469
H -5.3734479841 3.4162840762 -1.2473867397
H -3.710347008 3.4316505534 -0.5845030371
H -4.6724465056 2.0654369629 -3.0832726879
H -2.9868869368 2.0978684225 -2.4777495803
H -4.3682450091 -0.3523425158 -2.3660888792
H -3.5643537491 -1.6485493296 3.8748390442
H -4.1069669913 -2.9699677741 2.7617253606
H 5.4838840032 -3.2241684459 -2.6762648726
H 3.7552391927 -2.7290669124 -2.8855241812
H 4.1889365173 -3.9661580392 -1.6516016999
H -0.0620119062 0.1609530709 0.7448862379
H 1.233600226 -1.0967084814 0.8055359039
H -0.7811754959 -1.2963379221 -1.4784589615
H -0.0435337 -2.6225636739 -0.51959989
$end

$rem
JOBTYPE                   OPT
METHOD                    B3LYP
DFT_D                     d3_op
BASIS                     STO-3G
GEOM_OPT_MAX_CYCLES       100
GEOM_OPT_TOL_GRADIENT     300
GEOM_OPT_TOL_DISPLACEMENT 1200
GEOM_OPT_TOL_ENERGY       100
SYMMETRY                  False
THRESH                    12
SCF_CONVERGENCE           8
MAX_SUB_FILE_NUM          128
MEM_STATIC                400
MEM_TOTAL                 4000
$end
--------------------------------------------------------------

   16   -1510.2286503289      4.16E-09 Convergence criterion met
 Total energy in the final basis set = -1510.22865033
   14   -1510.2305451644      6.76E-09 Convergence criterion met
 Total energy in the final basis set = -1510.23054516
   13   -1510.2338418536      9.09E-09 Convergence criterion met
 Total energy in the final basis set = -1510.23384185
   13   -1510.2368855203      6.41E-09 Convergence criterion met
 Total energy in the final basis set = -1510.23688552
   13   -1510.2396770255      8.51E-09 Convergence criterion met
 Total energy in the final basis set = -1510.23967703
   13   -1510.2424081008      5.46E-09 Convergence criterion met
 Total energy in the final basis set = -1510.24240810
   13   -1510.2452379916      8.94E-09 Convergence criterion met
 Total energy in the final basis set = -1510.24523799
   13   -1510.2481629894      9.14E-09 Convergence criterion met
   13   -1510.2724125067      4.49E-09 Convergence criterion met
 Total energy in the final basis set = -1510.27241251
   13   -1510.2724270759      4.86E-09 Convergence criterion met
 Total energy in the final basis set = -1510.27242708
   12   -1510.2725224864      8.79E-09 Convergence criterion met
 Total energy in the final basis set = -1510.27252249
   12   -1510.2725098099      4.41E-09 Convergence criterion met
 Total energy in the final basis set = -1510.27250981
   12   -1510.2725216195      3.09E-09 Convergence criterion met
 Total energy in the final basis set = -1510.27252162
   10   -1510.2725254401      6.48E-09 Convergence criterion met
 Total energy in the final basis set = -1510.27252544

             Standard Nuclear Orientation (Angstroms)
    I     Atom           X                Y                Z
 ----------------------------------------------------------------
    1      O      -0.8504188545     0.5261538265     1.9306803243
    2      C      -1.9285822199     0.5437882451     1.2880043329
    3      C      -2.0894094813     0.7559389368    -0.2499204954
    4      C      -2.4764067259    -0.5813728196    -1.0228205979
    5      C      -2.9697643978    -1.7242647720    -0.0477112573
    6      O      -2.0019833358    -2.4617392527     0.7384182343
    7      C      -0.7009870644    -2.7398300956     0.0940676307
    8      C       0.4514369560    -1.7640259078     0.5416717255
    9      O       0.4886199080    -0.6600763052    -0.4420307296
   10      C       1.1073794771     0.5543321999     0.0207734275
   11      C       2.2542192599     0.4586308729     1.0969738275
   12      C       3.4843617976    -0.4354918380     0.6362977189
   13      C       3.2630162883    -1.0894516278    -0.7686716163
   14      O       3.2150889152    -2.3129152921    -1.0280276052
   15      O      -3.2065628431     0.3193447694     1.8799171326
   16      O       3.0788290603    -0.0493630712    -1.7315208800
   17      O       0.7265240408     1.6165666543    -0.5256051579
   18      C       2.7038222740    -0.6288513461    -3.0415079661
   19      C       2.9511072317     1.8711550710     1.2664767588
   20      C       3.8151146754     1.8462887892     2.5866600122
   21      C       5.0329566680     0.9569390024     2.1339815033
   22      C       4.6463642139     0.6506152928     0.6321073466
   23      O       3.9652682681     1.8843419659     0.1861839199
   24      H       1.8263791898     0.1012914424     2.0502061486
   25      H       3.6894307499    -1.2465422635     1.3565266579
   26      H       2.2553281930     2.7248852667     1.1531811725
   27      H       4.1370695346     2.8650641378     2.8547748747
   28      H       3.2641413001     1.4140180518     3.4371716936
   29      H       5.9813191523     1.5153161630     2.1799006316
   30      H       5.1347201319     0.0364146126     2.7305806152
   31      H       5.4957956523     0.4101207551    -0.0361260572
   32      O      -4.1727288898    -1.9740094237     0.1784179151
   33      C      -3.0581857903    -0.0125568068     3.3157224982
   34      C      -3.2858911416     1.7090532522    -0.6839681551
   35      C      -2.9495522743     2.2323135768    -2.1353509260
   36      C      -3.1944725619     0.9283148257    -2.9828580193
   37      C      -3.7117857233    -0.0715812548    -1.8730559840
   38      O      -4.4294756535     0.7982932509    -0.9125858974
   39      H      -1.1171341434     1.1520947894    -0.6137800291
   40      H      -1.6310415695    -0.9227722251    -1.6433473587
   41      H      -2.5398167249     0.7953799221     3.8713148590
   42      H      -3.5528662395     2.4895705797     0.0543041758
   43      H      -3.6446325395     3.0365938749    -2.4254801009
   44      H      -1.9165886542     2.6069734414    -2.2156180409
   45      H      -3.9660656655     1.0827859414    -3.7533735686
   46      H      -2.2762070813     0.5629449243    -3.4698405926
   47      H      -4.3795854207    -0.8788440966    -2.2308101955
   48      H      -2.4943647015    -0.9582553297     3.4515137936
   49      H      -4.0848462708    -0.1355129037     3.7061567605
   50      H       2.6252037654     0.2241145943    -3.7400723614
   51      H       1.7256695705    -1.1486754441    -2.9779334410
   52      H       3.4666027913    -1.3455112831    -3.4080891532
   53      H       0.2313486858    -1.3815640649     1.5607278616
   54      H       1.4125312431    -2.3240729376     0.5449026480
   55      H      -0.7585326228    -2.7501071149    -1.0141128550
   56      H      -0.4296787531    -3.7633448257     0.4310853347
 ----------------------------------------------------------------

    9   -1510.2725264320      8.15E-09 Convergence criterion met
 Total energy in the final basis set = -1510.27252643
 Final energy is   -1510.27252643204
 **  OPTIMIZATION CONVERGED  **

                    Orbital Energies (a.u.)
 --------------------------------------------------------------

 Alpha MOs
 -- Occupied --
-18.943 -18.938 -18.931 -18.920 -18.891 -18.885 -18.881 -18.879
-18.877 -18.871 -10.110 -10.106 -10.099 -10.095 -10.081 -10.076
-10.068 -10.066 -10.063 -10.061 -10.052 -10.051 -10.044 -10.042
-10.030 -10.024 -10.022 -10.019 -10.013 -10.010  -1.022  -1.015
 -1.009  -0.999  -0.974  -0.961  -0.945  -0.943  -0.936  -0.931
 -0.768  -0.754  -0.727  -0.717  -0.713  -0.708  -0.697  -0.665
 -0.659  -0.606  -0.602  -0.591  -0.555  -0.543  -0.541  -0.531
 -0.517  -0.508  -0.493  -0.478  -0.472  -0.468  -0.448  -0.442
 -0.436  -0.433  -0.423  -0.419  -0.415  -0.412  -0.410  -0.403
 -0.393  -0.388  -0.384  -0.372  -0.366  -0.359  -0.353  -0.351
 -0.345  -0.342  -0.334  -0.330  -0.324  -0.322  -0.315  -0.311
 -0.309  -0.308  -0.300  -0.299  -0.294  -0.292  -0.286  -0.277
 -0.270  -0.261  -0.254  -0.246  -0.237  -0.234  -0.225  -0.184
 -0.183  -0.176  -0.168  -0.162  -0.156  -0.152  -0.147  -0.143
 -0.134

          Ground-State Mulliken Net Atomic Charges

     Atom                 Charge (a.u.)
  ----------------------------------------
      1 O                    -0.232214
      2 C                     0.206405
      3 C                    -0.093480
      4 C                    -0.083926
      5 C                     0.207396
      6 O                    -0.183128
      7 C                    -0.046858
      8 C                    -0.057730
      9 O                    -0.187321
     10 C                     0.229066
     11 C                    -0.082573
     12 C                    -0.083346
     13 C                     0.205470
     14 O                    -0.218205
     15 O                    -0.160182
     16 O                    -0.162846
     17 O                    -0.202245
     18 C                    -0.127180
     19 C                     0.026729
     20 C                    -0.144137
     21 C                    -0.143844
     22 C                     0.026942
     23 O                    -0.184375
     24 H                     0.089739
     25 H                     0.082628
     26 H                     0.093490
     27 H                     0.079251
     28 H                     0.074312
     29 H                     0.078833
     30 H                     0.073217
     31 H                     0.083778
     32 O                    -0.188744
     33 C                    -0.127277
     34 C                     0.025573
     35 C                    -0.142981
     36 C                    -0.144799
     37 C                     0.026139
     38 O                    -0.185309
     39 H                     0.107788
     40 H                     0.084287
     41 H                     0.087616
     42 H                     0.082134
     43 H                     0.075522
     44 H                     0.078663
     45 H                     0.076216
     46 H                     0.072224
     47 H                     0.085288
     48 H                     0.090020
     49 H                     0.095428
     50 H                     0.094832
     51 H                     0.089308
     52 H                     0.090116
     53 H                     0.096786
     54 H                     0.088164
     55 H                     0.088162
     56 H                     0.091180
  ----------------------------------------
  Sum of atomic charges =     0.000000

                    Cartesian Multipole Moments
 -----------------------------------------------------------------
    Charge (ESU x 10^10)
                -0.0000
    Dipole Moment (Debye)
         X       3.3798      Y      -0.5757      Z       0.7511
       Tot       3.5098
    Quadrupole Moments (Debye-Ang)
        XX    -173.9112     XY      -7.1027     YY    -164.6571
        XZ       6.0115     YZ       3.6814     ZZ    -145.5221

 Total job time:  130.61s(wall), 6220.52s(cpu)
        *  Thank you very much for using Q-Chem.  Have a nice day.  *
