 Q-Chem 5.0, Q-Chem, Inc., Pleasanton, CA (2017)
 Q-Chem 5.0.1 for Intel X86 EM64T Linux

User input:
--------------------------------------------------------------
$molecule
0  1
O -3.94934 -3.66094 2.70899
C -3.26408 -4.56952 2.26188
C -3.36658 -6.02376 2.66595
C -2.15857 -6.92459 2.36089
C -0.91464 -6.23373 1.84764
O 0.07175 -7.15362 1.63254
C 1.32271 -6.78658 2.22382
C 2.10421 -8.03551 2.61825
O 1.19651 -9.07761 3.0094
C 1.77512 -10.24997 3.36984
C 1.10208 -11.45261 2.75232
C 0.4509 -11.1989 1.38489
C 0.86313 -9.92015 0.68376
O 1.16472 -8.87326 1.23839
O -2.77715 -4.36829 1.00467
O 0.65534 -9.88273 -0.66021
O 2.92464 -10.30316 3.79078
C 0.87798 -8.77619 -1.45328
C 2.05467 -12.61973 2.42542
C 1.26471 -13.92524 2.36203
C 0.49192 -13.72247 1.0777
C 1.07919 -12.38516 0.61212
O 2.4042 -12.40985 1.08283
H 0.35085 -11.79041 3.50059
H -0.65983 -11.25083 1.37752
H 2.89775 -12.72688 3.1417
H 2.00025 -14.74733 2.20814
H 0.64644 -14.14946 3.25781
H 0.76829 -14.53712 0.37167
H -0.61298 -13.6722 1.18803
H 0.96334 -12.3001 -0.49003
O -0.6409 -5.06739 2.11416
C -2.7649 -3.15568 0.34531
C -3.44608 -6.17413 4.19871
C -4.08416 -7.51495 4.56061
C -2.963 -8.46479 4.20141
C -1.88115 -7.46703 3.77922
O -2.11139 -6.34882 4.59866
H -4.3079 -6.40759 2.21272
H -2.40724 -7.73621 1.64088
H -2.1683 -2.41555 0.92012
H -3.99967 -5.34801 4.69631
H -4.22139 -7.53269 5.66563
H -5.05802 -7.71834 4.06551
H -2.64785 -9.00077 5.12452
H -3.19535 -9.19737 3.39835
H -0.88286 -7.93693 3.88094
H -3.80179 -2.7806 0.20993
H -2.30185 -3.2903 -0.65363
H 0.6338 -9.0278 -2.50558
H 1.94528 -8.4731 -1.3949
H 0.23016 -7.93432 -1.12793
H 3.01558 -8.2965 1.97966
H 2.70038 -7.74025 3.51319
H 1.11873 -6.28914 3.20467
H 1.91477 -6.08044 1.60258
$end

$opt
CONSTRAINT
tors           1           2           3           4    -160.507
tors           3           4           5           6    +179.526
tors           4           5           6           7    -130.532
tors           5           6           7           8    +149.717
tors           6           7           8           9     -32.632
tors           7           8           9          10    +179.293
tors           8           9          10          11    -134.285
tors           9          10          11          12     +29.814
tors          11          12          13          14     -32.282
ENDCONSTRAINT
$end

$rem
JOBTYPE                   OPT
METHOD                    B3LYP
DFT_D                     d3_op
BASIS                     STO-3G
GEOM_OPT_MAX_CYCLES       100
GEOM_OPT_TOL_GRADIENT     300
GEOM_OPT_TOL_DISPLACEMENT 1200
GEOM_OPT_TOL_ENERGY       100
SYMMETRY                  False
THRESH                    12
SCF_CONVERGENCE           8
MAX_SUB_FILE_NUM          128
MEM_STATIC                400
MEM_TOTAL                 4000
$end
--------------------------------------------------------------

   16   -1509.9780244927      4.15E-09 Convergence criterion met
 Total energy in the final basis set = -1509.97802449
   14   -1510.0647398771      4.67E-09 Convergence criterion met
 Total energy in the final basis set = -1510.06473988
   14   -1510.1233526576      8.44E-09 Convergence criterion met
 Total energy in the final basis set = -1510.12335266
   14   -1510.1630056686      6.19E-09 Convergence criterion met
 Total energy in the final basis set = -1510.16300567
   13   -1510.1885309303      7.55E-09 Convergence criterion met
 Total energy in the final basis set = -1510.18853093
   13   -1510.2054652029      9.57E-09 Convergence criterion met
 Total energy in the final basis set = -1510.20546520
   13   -1510.2170887129      8.82E-09 Convergence criterion met
 Total energy in the final basis set = -1510.21708871
   13   -1510.2253763014      6.28E-09 Convergence criterion met
   11   -1510.2413475316      5.03E-09 Convergence criterion met
 Total energy in the final basis set = -1510.24134753
   11   -1510.2413626601      4.91E-09 Convergence criterion met
 Total energy in the final basis set = -1510.24136266
   11   -1510.2413773659      5.14E-09 Convergence criterion met
 Total energy in the final basis set = -1510.24137737
   10   -1510.2413837442      5.61E-09 Convergence criterion met
 Total energy in the final basis set = -1510.24138374
   10   -1510.2413849702      8.97E-09 Convergence criterion met
 Total energy in the final basis set = -1510.24138497
    9   -1510.2413862495      5.20E-09 Convergence criterion met
 Total energy in the final basis set = -1510.24138625

             Standard Nuclear Orientation (Angstroms)
    I     Atom           X                Y                Z
 ----------------------------------------------------------------
    1      O       6.1157551914    -0.2331835010     0.6234705395
    2      C       4.9023862092     0.0638649348     0.6817688679
    3      C       3.7096537609    -0.9483633563     0.8142740858
    4      C       2.2725638865    -0.4499091541     0.4088983445
    5      C       2.2643216198     0.6893455573    -0.6808253515
    6      O       0.8813739403     1.0083167348    -0.9329785855
    7      C       0.6178225764     1.0121564832    -2.3936383162
    8      C      -0.8801995045     0.5801330560    -2.5715678146
    9      O      -1.1502998045    -0.3692199608    -1.4591866136
   10      C      -2.5146303888    -0.8232971050    -1.5129166765
   11      C      -3.2404070426    -0.8014455172    -0.1135033557
   12      C      -2.8898996228     0.2262673583     1.0412188168
   13      C      -2.3338677340     1.6495183652     0.6373277277
   14      O      -1.6252275289     2.0006846635    -0.3263648287
   15      O       4.4234620632     1.3916211620     0.9279738723
   16      O      -2.6879561504     2.5591717923     1.6926184509
   17      O      -3.0899435784    -1.1564646953    -2.5735842981
   18      C      -2.1269065067     3.8989963588     1.4102290386
   19      C      -4.8228926624    -0.6498412797    -0.2216962489
   20      C      -5.4493728402    -1.6089282836     0.8590095411
   21      C      -4.9726095142    -0.8893275337     2.1760418387
   22      C      -4.3633236661     0.4533368151     1.6028793833
   23      O      -5.1086087399     0.6895196520     0.3403455379
   24      H      -3.0346110218    -1.8040984997     0.3118451603
   25      H      -2.2014527286    -0.2200027363     1.7824928065
   26      H      -5.2149391714    -0.7469458797    -1.2531002846
   27      H      -6.5484419120    -1.6110345921     0.7781574039
   28      H      -5.0834021349    -2.6446137474     0.7748595552
   29      H      -5.8138314536    -0.6747283451     2.8536049801
   30      H      -4.2192589181    -1.4747469491     2.7277695196
   31      H      -4.4402306988     1.3337441068     2.2682040089
   32      O       3.2143449440     1.0741266757    -1.3937907203
   33      C       5.5485315362     2.3514180770     0.8847636212
   34      C       3.8297300924    -2.2799957947    -0.0517300163
   35      C       3.1102747890    -3.4219751456     0.7650734194
   36      C       1.6105563328    -2.9549401117     0.6532523099
   37      C       1.7324523604    -1.7388148825    -0.3495779527
   38      O       2.9051341899    -2.0787335692    -1.1942313533
   39      H       3.6978706868    -1.2240190373     1.8865567831
   40      H       1.6484167900    -0.1626103122     1.2733190323
   41      H       5.9755012099     2.4253630088    -0.1362395511
   42      H       4.8536269334    -2.5087328113    -0.4064990209
   43      H       3.2634080602    -4.3967347332     0.2742862272
   44      H       3.4650559449    -3.4886316381     1.8059050859
   45      H       0.9677277868    -3.7425925557     0.2293470581
   46      H       1.1901854868    -2.6438592928     1.6232366133
   47      H       0.8266935246    -1.5382709656    -0.9598031132
   48      H       6.3581033124     2.0650650004     1.5868621049
   49      H       5.1267676674     3.3301107592     1.1787032498
   50      H      -2.3844666999     4.5264720611     2.2832608398
   51      H      -2.5681545148     4.3413068036     0.4936251355
   52      H      -1.0251730339     3.8636803235     1.2869338895
   53      H      -1.5482095975     1.4597252500    -2.4730588787
   54      H      -1.0331632728     0.1061676749    -3.5671136739
   55      H       1.2948984361     0.3014413347    -2.9133731546
   56      H       0.7730502645     2.0208779473    -2.8382426218
 ----------------------------------------------------------------

    9   -1510.2413872419      5.11E-09 Convergence criterion met
 Total energy in the final basis set = -1510.24138724
 Final energy is   -1510.24138724195
 **  OPTIMIZATION CONVERGED  **

                    Orbital Energies (a.u.)
 --------------------------------------------------------------

 Alpha MOs
 -- Occupied --
-18.933 -18.927 -18.918 -18.911 -18.887 -18.884 -18.883 -18.880
-18.880 -18.866 -10.104 -10.101 -10.095 -10.094 -10.069 -10.068
-10.065 -10.059 -10.058 -10.058 -10.056 -10.053 -10.043 -10.037
-10.033 -10.032 -10.022 -10.020 -10.019 -10.017  -1.014  -1.008
 -1.005  -0.998  -0.971  -0.966  -0.941  -0.935  -0.929  -0.923
 -0.764  -0.759  -0.725  -0.721  -0.710  -0.703  -0.694  -0.661
 -0.656  -0.609  -0.599  -0.575  -0.544  -0.540  -0.539  -0.532
 -0.514  -0.508  -0.483  -0.477  -0.463  -0.454  -0.449  -0.445
 -0.433  -0.430  -0.423  -0.415  -0.410  -0.407  -0.403  -0.401
 -0.388  -0.377  -0.373  -0.367  -0.362  -0.355  -0.352  -0.346
 -0.343  -0.339  -0.335  -0.332  -0.327  -0.322  -0.317  -0.312
 -0.310  -0.308  -0.303  -0.300  -0.291  -0.285  -0.278  -0.273
 -0.266  -0.256  -0.248  -0.246  -0.237  -0.233  -0.229  -0.179
 -0.171  -0.169  -0.162  -0.154  -0.149  -0.149  -0.146  -0.144
 -0.141

          Ground-State Mulliken Net Atomic Charges

     Atom                 Charge (a.u.)
  ----------------------------------------
      1 O                    -0.217347
      2 C                     0.213756
      3 C                    -0.081426
      4 C                    -0.073855
      5 C                     0.220184
      6 O                    -0.176810
      7 C                    -0.042659
      8 C                    -0.041532
      9 O                    -0.178870
     10 C                     0.212480
     11 C                    -0.082469
     12 C                    -0.073848
     13 C                     0.213560
     14 O                    -0.206282
     15 O                    -0.169654
     16 O                    -0.173972
     17 O                    -0.203393
     18 C                    -0.128158
     19 C                     0.022708
     20 C                    -0.141306
     21 C                    -0.146504
     22 C                     0.021540
     23 O                    -0.193748
     24 H                     0.081188
     25 H                     0.085705
     26 H                     0.090501
     27 H                     0.078241
     28 H                     0.073512
     29 H                     0.078333
     30 H                     0.072217
     31 H                     0.093739
     32 O                    -0.199113
     33 C                    -0.127358
     34 C                     0.024301
     35 C                    -0.141898
     36 C                    -0.145314
     37 C                     0.018710
     38 O                    -0.194199
     39 H                     0.082252
     40 H                     0.085095
     41 H                     0.090986
     42 H                     0.089082
     43 H                     0.077402
     44 H                     0.072696
     45 H                     0.076798
     46 H                     0.071449
     47 H                     0.093440
     48 H                     0.088436
     49 H                     0.088582
     50 H                     0.089601
     51 H                     0.088632
     52 H                     0.091053
     53 H                     0.096856
     54 H                     0.085247
     55 H                     0.086727
     56 H                     0.084701
  ----------------------------------------
  Sum of atomic charges =     0.000000

                    Cartesian Multipole Moments
 -----------------------------------------------------------------
    Charge (ESU x 10^10)
                -0.0000
    Dipole Moment (Debye)
         X      -1.5953      Y       0.0950      Z       2.9843
       Tot       3.3853
    Quadrupole Moments (Debye-Ang)
        XX    -175.5267     XY       5.3503     YY    -149.8160
        XZ      -0.2333     YZ      -3.4358     ZZ    -157.1642

 Total job time:  83.76s(wall), 3992.38s(cpu)
        *  Thank you very much for using Q-Chem.  Have a nice day.  *
