 Q-Chem 5.0, Q-Chem, Inc., Pleasanton, CA (2017)
 Q-Chem 5.0.1 for Intel X86 EM64T Linux

User input:
--------------------------------------------------------------
$molecule
0  1
O 6.1157551914 -0.233183501 0.6234705395
C 4.9023862092 0.0638649348 0.6817688679
C 3.7096537609 -0.9483633563 0.8142740858
C 2.2725638865 -0.4499091541 0.4088983445
C 2.2643216198 0.6893455573 -0.6808253515
O 0.8813739403 1.0083167348 -0.9329785855
C 0.6178225764 1.0121564832 -2.3936383162
C -0.8801995045 0.580133056 -2.5715678146
O -1.1502998045 -0.3692199608 -1.4591866136
C -2.5146303888 -0.823297105 -1.5129166765
C -3.2404070426 -0.8014455172 -0.1135033557
C -2.8898996228 0.2262673583 1.0412188168
C -2.333867734 1.6495183652 0.6373277277
O -1.6252275289 2.0006846635 -0.3263648287
O 4.4234620632 1.391621162 0.9279738723
O -2.6879561504 2.5591717923 1.6926184509
O -3.0899435784 -1.1564646953 -2.5735842981
C -2.1269065067 3.8989963588 1.4102290386
C -4.8228926624 -0.6498412797 -0.2216962489
C -5.4493728402 -1.6089282836 0.8590095411
C -4.9726095142 -0.8893275337 2.1760418387
C -4.3633236661 0.4533368151 1.6028793833
O -5.1086087399 0.689519652 0.3403455379
H -3.0346110218 -1.8040984997 0.3118451603
H -2.2014527286 -0.2200027363 1.7824928065
H -5.2149391714 -0.7469458797 -1.2531002846
H -6.548441912 -1.6110345921 0.7781574039
H -5.0834021349 -2.6446137474 0.7748595552
H -5.8138314536 -0.6747283451 2.8536049801
H -4.2192589181 -1.4747469491 2.7277695196
H -4.4402306988 1.3337441068 2.2682040089
O 3.214344944 1.0741266757 -1.3937907203
C 5.5485315362 2.351418077 0.8847636212
C 3.8297300924 -2.2799957947 -0.0517300163
C 3.110274789 -3.4219751456 0.7650734194
C 1.6105563328 -2.9549401117 0.6532523099
C 1.7324523604 -1.7388148825 -0.3495779527
O 2.9051341899 -2.0787335692 -1.1942313533
H 3.6978706868 -1.2240190373 1.8865567831
H 1.64841679 -0.1626103122 1.2733190323
H 5.9755012099 2.4253630088 -0.1362395511
H 4.8536269334 -2.5087328113 -0.4064990209
H 3.2634080602 -4.3967347332 0.2742862272
H 3.4650559449 -3.4886316381 1.8059050859
H 0.9677277868 -3.7425925557 0.2293470581
H 1.1901854868 -2.6438592928 1.6232366133
H 0.8266935246 -1.5382709656 -0.9598031132
H 6.3581033124 2.0650650004 1.5868621049
H 5.1267676674 3.3301107592 1.1787032498
H -2.3844666999 4.5264720611 2.2832608398
H -2.5681545148 4.3413068036 0.4936251355
H -1.0251730339 3.8636803235 1.2869338895
H -1.5482095975 1.45972525 -2.4730588787
H -1.0331632728 0.1061676749 -3.5671136739
H 1.2948984361 0.3014413347 -2.9133731546
H 0.7730502645 2.0208779473 -2.8382426218
$end

$rem
JOBTYPE                   OPT
METHOD                    B3LYP
DFT_D                     d3_op
BASIS                     STO-3G
GEOM_OPT_MAX_CYCLES       100
GEOM_OPT_TOL_GRADIENT     300
GEOM_OPT_TOL_DISPLACEMENT 1200
GEOM_OPT_TOL_ENERGY       100
SYMMETRY                  False
THRESH                    12
SCF_CONVERGENCE           8
MAX_SUB_FILE_NUM          128
MEM_STATIC                400
MEM_TOTAL                 4000
$end
--------------------------------------------------------------

   16   -1510.2413736727      5.49E-09 Convergence criterion met
 Total energy in the final basis set = -1510.24137367
   14   -1510.2503443778      8.86E-09 Convergence criterion met
 Total energy in the final basis set = -1510.25034438
   14   -1510.2592017206      8.96E-09 Convergence criterion met
 Total energy in the final basis set = -1510.25920172
   14   -1510.2618656754      9.71E-09 Convergence criterion met
 Total energy in the final basis set = -1510.26186568
   13   -1510.2694648539      8.44E-09 Convergence criterion met
 Total energy in the final basis set = -1510.26946485
   13   -1510.2731342381      2.38E-09 Convergence criterion met
 Total energy in the final basis set = -1510.27313424
   13   -1510.2768534995      7.36E-09 Convergence criterion met
 Total energy in the final basis set = -1510.27685350
   13   -1510.2800443861      7.69E-09 Convergence criterion met
   12   -1510.3053399235      2.31E-09 Convergence criterion met
 Total energy in the final basis set = -1510.30533992
    9   -1510.3053458598      9.63E-09 Convergence criterion met
 Total energy in the final basis set = -1510.30534586
   10   -1510.3053502834      4.24E-09 Convergence criterion met
 Total energy in the final basis set = -1510.30535028
    9   -1510.3053525163      8.65E-09 Convergence criterion met
 Total energy in the final basis set = -1510.30535252
    9   -1510.3053544908      8.83E-09 Convergence criterion met
 Total energy in the final basis set = -1510.30535449
    9   -1510.3053559240      7.83E-09 Convergence criterion met
 Total energy in the final basis set = -1510.30535592

             Standard Nuclear Orientation (Angstroms)
    I     Atom           X                Y                Z
 ----------------------------------------------------------------
    1      O       1.2600208889    -2.1128574714    -0.1648568624
    2      C       2.3362046626    -1.4969103761     0.0192353835
    3      C       2.6377258356    -0.4469520738     1.1532287636
    4      C       2.3068688414     1.0426290342     0.7363612930
    5      C       1.9408489846     1.1875878817    -0.7763114474
    6      O       1.7982667850     2.5764603272    -1.0824761106
    7      C       1.1058423376     2.7284448767    -2.3874152407
    8      C      -0.4460830509     2.6204316041    -2.1374760141
    9      O      -0.6660526962     1.5272906305    -1.1685171595
   10      C      -1.3514642874     0.4197169096    -1.8004232056
   11      C      -1.3728926338    -0.7657898218    -0.7841738503
   12      C      -2.1420579295    -0.4696643085     0.5620428237
   13      C      -3.0033903770     0.8301871879     0.4718964272
   14      O      -3.3179720614     1.4596801525    -0.5638307114
   15      O       3.5488075705    -1.7718605454    -0.6859210667
   16      O      -3.4227945718     1.2050603605     1.7884788993
   17      O      -1.7263648779     0.4313562511    -2.9916611307
   18      C      -4.2724635140     2.4163040617     1.7224670311
   19      C      -2.1522512151    -2.0394732946    -1.3159815834
   20      C      -1.5922962465    -3.2828432981    -0.5242305030
   21      C      -2.2118603570    -3.0254884620     0.8997419897
   22      C      -3.0927173200    -1.7397122134     0.6314940949
   23      O      -3.5263185775    -1.8861481294    -0.7775511620
   24      H      -0.3191296896    -1.0371921273    -0.5514825048
   25      H      -1.4232720676    -0.3890403223     1.4026401485
   26      H      -2.1769304198    -2.1334030954    -2.4190329261
   27      H      -1.9619155058    -4.2237466732    -0.9620362254
   28      H      -0.4902329769    -3.2863868643    -0.5062696993
   29      H      -2.8422068930    -3.8655365532     1.2324878398
   30      H      -1.4409904995    -2.8358495359     1.6637570394
   31      H      -3.9681107918    -1.6204582208     1.2996193008
   32      O       1.8387436605     0.2539905689    -1.6068608481
   33      C       3.2773189717    -2.7223753801    -1.7890854633
   34      C       1.6227960885    -0.6500542195     2.3519830048
   35      C       2.0896275010     0.2232614943     3.5832056622
   36      C       1.6434714763     1.6643811947     3.1293906861
   37      C       1.0700461030     1.3615515003     1.6911103888
   38      O       0.4116011185     0.0494010100     1.8680953679
   39      H       3.6925738426    -0.5542853259     1.4612066727
   40      H       3.1478852944     1.7234597883     0.9589567663
   41      H       2.5689130757    -2.2876262589    -2.5236477595
   42      H       1.3885313546    -1.7083991382     2.5773510384
   43      H       1.5686473276    -0.0918626995     4.5008914445
   44      H       3.1763217907     0.1490660275     3.7488334326
   45      H       0.8504536658     2.0640020418     3.7814859990
   46      H       2.4786241998     2.3823867230     3.1035087245
   47      H       0.3555432704     2.1008654928     1.2790142470
   48      H       2.8560075969    -3.6764349505    -1.4115377369
   49      H       4.2506308443    -2.9124354066    -2.2773407471
   50      H      -4.5229372170     2.6721920494     2.7684361044
   51      H      -5.2064657995     2.2310317329     1.1530995362
   52      H      -3.7378773046     3.2654673981     1.2496767672
   53      H      -0.8334443072     3.5599483802    -1.6931618880
   54      H      -0.9872270329     2.3858885292    -3.0807310029
   55      H       1.4391042844     1.9336640437    -3.0878322715
   56      H       1.3797415207     3.7263119954    -2.7833543485
 ----------------------------------------------------------------

    9   -1510.3053563638      4.72E-09 Convergence criterion met
 Total energy in the final basis set = -1510.30535636
 Final energy is   -1510.30535636379
 **  OPTIMIZATION CONVERGED  **

                    Orbital Energies (a.u.)
 --------------------------------------------------------------

 Alpha MOs
 -- Occupied --
-18.940 -18.934 -18.926 -18.912 -18.901 -18.885 -18.870 -18.865
-18.865 -18.861 -10.110 -10.103 -10.087 -10.085 -10.073 -10.068
-10.068 -10.061 -10.061 -10.059 -10.045 -10.042 -10.042 -10.035
-10.027 -10.026 -10.010 -10.005 -10.001  -9.993  -1.022  -1.009
 -1.003  -0.992  -0.982  -0.949  -0.946  -0.934  -0.926  -0.921
 -0.770  -0.742  -0.730  -0.718  -0.705  -0.697  -0.683  -0.662
 -0.654  -0.616  -0.591  -0.570  -0.552  -0.544  -0.527  -0.517
 -0.515  -0.494  -0.484  -0.470  -0.465  -0.460  -0.447  -0.442
 -0.430  -0.428  -0.415  -0.413  -0.410  -0.405  -0.402  -0.399
 -0.390  -0.378  -0.374  -0.361  -0.358  -0.353  -0.347  -0.344
 -0.342  -0.339  -0.334  -0.332  -0.326  -0.319  -0.316  -0.310
 -0.307  -0.305  -0.289  -0.287  -0.286  -0.281  -0.277  -0.264
 -0.260  -0.258  -0.251  -0.242  -0.239  -0.231  -0.212  -0.188
 -0.174  -0.170  -0.164  -0.157  -0.155  -0.152  -0.144  -0.140
 -0.124

          Ground-State Mulliken Net Atomic Charges

     Atom                 Charge (a.u.)
  ----------------------------------------
      1 O                    -0.225231
      2 C                     0.223738
      3 C                    -0.081246
      4 C                    -0.078859
      5 C                     0.221569
      6 O                    -0.171436
      7 C                    -0.052817
      8 C                    -0.057016
      9 O                    -0.186407
     10 C                     0.220367
     11 C                    -0.091023
     12 C                    -0.088326
     13 C                     0.211359
     14 O                    -0.214031
     15 O                    -0.169363
     16 O                    -0.170956
     17 O                    -0.216568
     18 C                    -0.128646
     19 C                     0.023194
     20 C                    -0.149505
     21 C                    -0.143469
     22 C                     0.023384
     23 O                    -0.195767
     24 H                     0.106805
     25 H                     0.108603
     26 H                     0.084119
     27 H                     0.069328
     28 H                     0.090407
     29 H                     0.071618
     30 H                     0.072568
     31 H                     0.077959
     32 O                    -0.212525
     33 C                    -0.127945
     34 C                     0.027214
     35 C                    -0.144544
     36 C                    -0.142794
     37 C                     0.028349
     38 O                    -0.188831
     39 H                     0.086798
     40 H                     0.088228
     41 H                     0.095439
     42 H                     0.086638
     43 H                     0.079705
     44 H                     0.075030
     45 H                     0.080204
     46 H                     0.075376
     47 H                     0.094832
     48 H                     0.088066
     49 H                     0.089200
     50 H                     0.088076
     51 H                     0.088623
     52 H                     0.086954
     53 H                     0.082869
     54 H                     0.104715
     55 H                     0.096336
     56 H                     0.089631
  ----------------------------------------
  Sum of atomic charges =    -0.000000

                    Cartesian Multipole Moments
 -----------------------------------------------------------------
    Charge (ESU x 10^10)
                -0.0000
    Dipole Moment (Debye)
         X       3.7242      Y       1.6160      Z       2.8061
       Tot       4.9351
    Quadrupole Moments (Debye-Ang)
        XX    -160.7525     XY      -4.9748     YY    -149.6018
        XZ      -6.9342     YZ      -0.0688     ZZ    -156.1661

 Total job time:  212.40s(wall), 10125.75s(cpu)
        *  Thank you very much for using Q-Chem.  Have a nice day.  *
