 Q-Chem 5.0, Q-Chem, Inc., Pleasanton, CA (2017)
 Q-Chem 5.0.1 for Intel X86 EM64T Linux

User input:
--------------------------------------------------------------
$molecule
0  1
O 2.7522255455 -1.3742261473 1.4073463609
C 3.8511981985 -1.5098317113 0.8298114107
C 4.5953029635 -0.477201401 -0.0887755939
C 3.6510834779 0.6423057342 -0.6792547824
C 2.1261023323 0.2812046585 -0.7537422896
O 1.369405301 1.4998566729 -0.6871484348
C -0.0109085967 1.2441789329 -1.1621688658
C -1.0040442994 2.2695936353 -0.5306126805
O -2.3428921553 1.6466087938 -0.6878344857
C -3.0777099493 1.682383206 0.5338804718
C -4.4583943376 0.9630709143 0.3379016935
C -4.5270409552 -0.2216995556 -0.7220475657
C -3.2636349256 -0.5044601361 -1.6187910929
O -3.0895020051 -0.1016211627 -2.7910303019
O 4.6814879036 -2.6720832387 0.9438461274
O -2.3699321706 -1.3914739336 -0.9295665497
O -2.6610144241 2.208318412 1.5892727907
C -1.3171375731 -1.8910874503 -1.8509884497
C -4.857815106 0.1992689602 1.6697676799
C -6.4009411014 -0.1332443277 1.6246675178
C -6.4232087483 -1.3359704188 0.6093736938
C -4.8927977384 -1.4423624101 0.2326963067
O -4.205192992 -1.11918667 1.5028309435
H -5.2034323606 1.7405695329 0.0834852229
H -5.3524206083 -0.0202022508 -1.4282931157
H -4.4981379061 0.7011964398 2.5893438521
H -6.7603787156 -0.4364612175 2.6208354387
H -6.9986892787 0.7256089789 1.2796139298
H -6.7629864506 -2.2652852069 1.0937195624
H -7.0581462291 -1.1429070351 -0.270119783
H -4.5637758594 -2.4294887417 -0.1443343935
O 1.6258618972 -0.8394477846 -1.0010493835
C 4.0405927079 -3.6626572187 1.83945351
C 5.5117890715 0.416636298 0.8582995446
C 6.3951367216 1.3963566254 -0.0137542063
C 5.3502423481 2.516818556 -0.3775250017
C 4.0331201965 1.8938462415 0.225611623
O 4.5075244029 1.30030358 1.4970877098
H 5.1700428472 -1.01251577 -0.8644248799
H 3.9471799433 0.8486130695 -1.7259657941
H 3.0654797483 -4.0052190311 1.436490731
H 6.0664048031 -0.1601472497 1.6239940576
H 7.2316517526 1.7957414056 0.5810056994
H 6.8042429192 0.8930784235 -0.9044409747
H 5.5886753859 3.4665122796 0.1276154323
H 5.2748004757 2.6998044038 -1.4613064392
H 3.1991767723 2.5992076135 0.404244133
H 3.8740910962 -3.2487294949 2.8549262471
H 4.738044957 -4.5184417269 1.8974946529
H -1.4627771836 -2.979921508 -1.9968285677
H -0.3138624268 -1.7088921127 -1.4097854875
H -1.4043911867 -1.3670125372 -2.8237990826
H -0.7993956841 2.4296799533 0.5505974604
H -0.9874134051 3.2465336338 -1.0574344496
H -0.3257121725 0.2284527909 -0.8535777646
H -0.0473134966 1.2968916744 -2.2717972798
$end

$rem
JOBTYPE                   OPT
METHOD                    B3LYP
DFT_D                     d3_op
BASIS                     STO-3G
GEOM_OPT_MAX_CYCLES       100
GEOM_OPT_TOL_GRADIENT     300
GEOM_OPT_TOL_DISPLACEMENT 1200
GEOM_OPT_TOL_ENERGY       100
SYMMETRY                  False
THRESH                    12
SCF_CONVERGENCE           8
MAX_SUB_FILE_NUM          128
MEM_STATIC                400
MEM_TOTAL                 4000
$end
--------------------------------------------------------------

   16   -1510.2761658938      7.10E-09 Convergence criterion met
 Total energy in the final basis set = -1510.27616589
   14   -1510.2772965578      2.07E-09 Convergence criterion met
 Total energy in the final basis set = -1510.27729656
   14   -1510.2777071747      2.15E-09 Convergence criterion met
 Total energy in the final basis set = -1510.27770717
   14   -1510.2792306341      1.70E-09 Convergence criterion met
 Total energy in the final basis set = -1510.27923063
   13   -1510.2807095617      4.10E-09 Convergence criterion met
 Total energy in the final basis set = -1510.28070956
   14   -1510.2821002523      2.79E-09 Convergence criterion met
 Total energy in the final basis set = -1510.28210025
   13   -1510.2832199528      6.61E-09 Convergence criterion met
 Total energy in the final basis set = -1510.28321995
   13   -1510.2843090045      9.70E-09 Convergence criterion met
   12   -1510.2977692226      6.55E-09 Convergence criterion met
 Total energy in the final basis set = -1510.29776922
   12   -1510.2978535580      9.58E-09 Convergence criterion met
 Total energy in the final basis set = -1510.29785356
   12   -1510.2978637861      8.20E-09 Convergence criterion met
 Total energy in the final basis set = -1510.29786379
   12   -1510.2979263286      5.38E-09 Convergence criterion met
 Total energy in the final basis set = -1510.29792633
   11   -1510.2979477900      8.25E-09 Convergence criterion met
 Total energy in the final basis set = -1510.29794779
    9   -1510.2979542653      9.97E-09 Convergence criterion met
 Total energy in the final basis set = -1510.29795427

             Standard Nuclear Orientation (Angstroms)
    I     Atom           X                Y                Z
 ----------------------------------------------------------------
    1      O      -1.3198938074     0.6702869038    -0.1176942775
    2      C      -2.4713278822     0.7888715279     0.3683477909
    3      C      -3.7936839379     0.2660899140    -0.2923568586
    4      C      -3.5405501957    -0.8775356423    -1.3673184755
    5      C      -2.0309687787    -1.2951238539    -1.5173908081
    6      O      -1.6926555480    -2.1805205496    -0.4442319662
    7      C      -0.2253906063    -2.4058485218    -0.3823324251
    8      C       0.3035332107    -1.5275256337     0.8033136267
    9      O       1.7595517232    -1.2968876325     0.6525836683
   10      C       2.1087722505    -0.0226724951     1.2042144031
   11      C       3.6494217600     0.1716142427     0.9918298365
   12      C       4.0908610145     0.0931398312    -0.5296572699
   13      C       2.8951662852    -0.0511977508    -1.5367696470
   14      O       2.7913513092    -0.8715435267    -2.4746554646
   15      O      -2.7523165806     1.4278197220     1.6028587464
   16      O       1.9479019481     0.9771025126    -1.2446647856
   17      O       1.3136211936     0.7498609099     1.7842901435
   18      C       0.8827350862     1.0238587150    -2.2746295647
   19      C       4.1220051574     1.6312394977     1.3808139527
   20      C       5.6876759511     1.6032570674     1.5748777201
   21      C       6.1725380098     1.4897698244     0.0809179133
   22      C       4.7936364732     1.5114322586    -0.6930604368
   23      O       3.9458463522     2.4034859693     0.1287684619
   24      H       4.1749831879    -0.5978034211     1.5870139521
   25      H       4.7917319099    -0.7404513461    -0.7090774489
   26      H       3.5369354422     2.0887538078     2.2021459570
   27      H       6.0356372476     2.5384780679     2.0416268570
   28      H       6.0165353058     0.7545537241     2.1955126739
   29      H       6.7911621085     2.3533965323    -0.2105233174
   30      H       6.7425547368     0.5664261630    -0.1116440941
   31      H       4.8462537600     1.8790354241    -1.7362692498
   32      O      -1.2686213153    -1.0088857644    -2.4705555791
   33      C      -1.5125340516     1.9895534729     2.2053599254
   34      C      -4.7566935268    -0.4771216124     0.7280902360
   35      C      -6.1896641153    -0.5715175371     0.0718466701
   36      C      -5.9544568508    -1.6934936915    -1.0061781390
   37      C      -4.4332806557    -2.0435331300    -0.7595049775
   38      O      -4.2697485302    -1.8744798850     0.7033885223
   39      H      -4.3029322331     1.1328996899    -0.7542449594
   40      H      -3.8944827031    -0.5617346284    -2.3646446979
   41      H      -1.3376173635     3.0125972433     1.8147950742
   42      H      -4.7246066834    -0.0662152543     1.7557062328
   43      H      -6.9357400972    -0.8802245175     0.8213653823
   44      H      -6.5078174706     0.3858706298    -0.3707169199
   45      H      -6.5862808565    -2.5757805852    -0.8168257587
   46      H      -6.1387096348    -1.3423118384    -2.0341288030
   47      H      -4.1278343826    -3.0620494479    -1.0674055367
   48      H      -0.6095157653     1.3708395038     1.9979427281
   49      H      -1.6999142807     2.0440477691     3.2934252080
   50      H       0.2821189645     1.9199375123    -2.0348582662
   51      H       0.2180078581     0.1284873414    -2.2597982418
   52      H       1.3176756610     1.1298317739    -3.2889316658
   53      H      -0.2321043388    -0.5518635282     0.7532730897
   54      H       0.0925708855    -2.0161634694     1.7785379995
   55      H       0.2485634763    -2.0952958210    -1.3384597589
   56      H      -0.0567439201    -3.4879297642    -0.2115674831
 ----------------------------------------------------------------

    9   -1510.2979543151      7.45E-09 Convergence criterion met
 Total energy in the final basis set = -1510.29795432
 Final energy is   -1510.29795431507
 **  OPTIMIZATION CONVERGED  **

                    Orbital Energies (a.u.)
 --------------------------------------------------------------

 Alpha MOs
 -- Occupied --
-18.948 -18.928 -18.928 -18.918 -18.890 -18.888 -18.883 -18.875
-18.874 -18.859 -10.112 -10.102 -10.100 -10.085 -10.063 -10.063
-10.062 -10.055 -10.055 -10.054 -10.053 -10.045 -10.039 -10.033
-10.033 -10.029 -10.023 -10.022 -10.017 -10.016  -1.023  -1.010
 -1.006  -0.994  -0.972  -0.964  -0.946  -0.937  -0.932  -0.920
 -0.766  -0.758  -0.727  -0.720  -0.713  -0.701  -0.691  -0.661
 -0.641  -0.611  -0.595  -0.576  -0.548  -0.541  -0.539  -0.532
 -0.516  -0.504  -0.485  -0.471  -0.466  -0.460  -0.449  -0.438
 -0.436  -0.431  -0.425  -0.417  -0.407  -0.402  -0.397  -0.396
 -0.392  -0.381  -0.371  -0.364  -0.356  -0.354  -0.352  -0.343
 -0.342  -0.334  -0.333  -0.326  -0.325  -0.322  -0.317  -0.315
 -0.307  -0.304  -0.301  -0.299  -0.287  -0.285  -0.283  -0.282
 -0.266  -0.263  -0.245  -0.239  -0.236  -0.233  -0.229  -0.189
 -0.177  -0.167  -0.165  -0.160  -0.153  -0.151  -0.146  -0.138
 -0.137

          Ground-State Mulliken Net Atomic Charges

     Atom                 Charge (a.u.)
  ----------------------------------------
      1 O                    -0.214224
      2 C                     0.219021
      3 C                    -0.077797
      4 C                    -0.079928
      5 C                     0.219198
      6 O                    -0.172373
      7 C                    -0.053165
      8 C                    -0.063196
      9 O                    -0.175617
     10 C                     0.222994
     11 C                    -0.077992
     12 C                    -0.078318
     13 C                     0.208514
     14 O                    -0.216935
     15 O                    -0.165925
     16 O                    -0.170708
     17 O                    -0.217058
     18 C                    -0.138684
     19 C                     0.024653
     20 C                    -0.143885
     21 C                    -0.144177
     22 C                     0.025866
     23 O                    -0.185630
     24 H                     0.083625
     25 H                     0.083573
     26 H                     0.087981
     27 H                     0.076993
     28 H                     0.072222
     29 H                     0.077137
     30 H                     0.073283
     31 H                     0.082057
     32 O                    -0.217317
     33 C                    -0.140715
     34 C                     0.024163
     35 C                    -0.143671
     36 C                    -0.144365
     37 C                     0.026750
     38 O                    -0.186722
     39 H                     0.087112
     40 H                     0.084982
     41 H                     0.085669
     42 H                     0.090722
     43 H                     0.078727
     44 H                     0.073609
     45 H                     0.078565
     46 H                     0.074032
     47 H                     0.086561
     48 H                     0.119367
     49 H                     0.088542
     50 H                     0.085445
     51 H                     0.108049
     52 H                     0.079509
     53 H                     0.109727
     54 H                     0.078372
     55 H                     0.104777
     56 H                     0.086606
  ----------------------------------------
  Sum of atomic charges =     0.000000

                    Cartesian Multipole Moments
 -----------------------------------------------------------------
    Charge (ESU x 10^10)
                 0.0000
    Dipole Moment (Debye)
         X      -1.3278      Y       0.3346      Z       1.2750
       Tot       1.8710
    Quadrupole Moments (Debye-Ang)
        XX    -135.6057     XY      -2.1272     YY    -161.5799
        XZ       9.7175     YZ      -1.2903     ZZ    -162.0131

 Total job time:  146.82s(wall), 6999.34s(cpu)
        *  Thank you very much for using Q-Chem.  Have a nice day.  *
