 Q-Chem 5.0, Q-Chem, Inc., Pleasanton, CA (2017)
 Q-Chem 5.0.1 for Intel X86 EM64T Linux

User input:
--------------------------------------------------------------
$molecule
0  1
O -3.94934 -3.66094 2.70899
C -3.26408 -4.56952 2.26188
C -3.36658 -6.02376 2.66595
C -4.04485 -6.33327 4.01057
C -4.70306 -5.16926 4.71763
O -5.71853 -5.62226 5.51074
C -6.13364 -4.66819 6.49394
C -7.58538 -4.91825 6.88897
O -8.13266 -3.74461 7.5102
C -9.34087 -3.34591 7.04073
C -9.83649 -2.0776 7.69374
C -8.73394 -1.11107 8.15033
C -7.35247 -1.36917 7.5832
O -6.45504 -1.97493 8.15086
O -2.45021 -4.31003 1.20488
O -7.05207 -0.76511 6.39788
O -10.09832 -4.07509 6.41173
C -5.78743 -0.65874 5.85494
C -10.64059 -1.1559 6.74857
C -11.58047 -0.28065 7.57637
C -10.58363 0.63566 8.25738
C -9.29132 0.20006 7.55445
O -9.7143 -0.21155 6.27773
H -10.51631 -2.39504 8.51648
H -8.63357 -1.05921 9.25675
H -11.21508 -1.70518 5.97133
H -12.17765 0.31868 6.85172
H -12.27319 -0.81763 8.25947
H -10.84669 1.68726 8.00719
H -10.49959 0.51198 9.35889
H -8.54022 1.02052 7.57906
O -4.02048 -4.20978 5.0676
C -2.27155 -3.06023 0.64974
C -4.22785 -6.8257 1.68137
C -3.85631 -8.30423 1.75274
C -4.4463 -8.67413 3.09512
C -5.10443 -7.3461 3.48892
O -5.50754 -6.79509 2.25917
H -2.31996 -6.40433 2.67675
H -3.36272 -6.81807 4.74437
H -1.85942 -2.36061 1.40815
H -4.1534 -6.45937 0.63375
H -4.42686 -8.83275 0.95573
H -2.77204 -8.51751 1.63457
H -5.22615 -9.45105 2.92982
H -3.7177 -9.02694 3.85665
H -5.92194 -7.56304 4.20838
H -3.23783 -2.67025 0.26435
H -1.55495 -3.13582 -0.19362
H -5.85253 -0.11512 4.89032
H -5.34638 -1.65562 5.6669
H -5.12761 -0.08718 6.54168
H -8.12848 -5.19714 5.95666
H -7.62774 -5.78514 7.58159
H -6.18777 -3.67248 6.00551
H -5.44464 -4.61409 7.36477
$end

$opt
CONSTRAINT
tors           1           2           3           4     -19.943
tors           3           4           5           6    +153.156
tors           4           5           6           7    +162.895
tors           5           6           7           8    +154.184
tors           6           7           8           9    -161.053
tors           7           8           9          10    +131.609
tors           8           9          10          11    -177.692
tors           9          10          11          12     +30.207
tors          11          12          13          14     -97.873
ENDCONSTRAINT
$end

$rem
JOBTYPE                   OPT
METHOD                    B3LYP
DFT_D                     d3_op
BASIS                     STO-3G
GEOM_OPT_MAX_CYCLES       100
GEOM_OPT_TOL_GRADIENT     300
GEOM_OPT_TOL_DISPLACEMENT 1200
GEOM_OPT_TOL_ENERGY       100
SYMMETRY                  False
THRESH                    12
SCF_CONVERGENCE           8
MAX_SUB_FILE_NUM          128
MEM_STATIC                400
MEM_TOTAL                 4000
$end
--------------------------------------------------------------

   15   -1510.1221990701      7.91E-09 Convergence criterion met
 Total energy in the final basis set = -1510.12219907
   14   -1510.1940399416      6.55E-09 Convergence criterion met
 Total energy in the final basis set = -1510.19403994
   15   -1510.2332184819      1.64E-09 Convergence criterion met
 Total energy in the final basis set = -1510.23321848
   14   -1510.2532050566      8.70E-09 Convergence criterion met
 Total energy in the final basis set = -1510.25320506
   14   -1510.2630144027      5.82E-09 Convergence criterion met
 Total energy in the final basis set = -1510.26301440
   13   -1510.2676099561      5.38E-09 Convergence criterion met
 Total energy in the final basis set = -1510.26760996
   13   -1510.2701101181      3.60E-09 Convergence criterion met
 Total energy in the final basis set = -1510.27011012
    2   -1510.2701101180      5.41E-09 Convergence criterion met
   10   -1510.2760319207      7.11E-09 Convergence criterion met
 Total energy in the final basis set = -1510.27603192
   10   -1510.2760474456      8.64E-09 Convergence criterion met
 Total energy in the final basis set = -1510.27604745
   10   -1510.2760709236      5.82E-09 Convergence criterion met
 Total energy in the final basis set = -1510.27607092
    9   -1510.2760728435      9.65E-09 Convergence criterion met
 Total energy in the final basis set = -1510.27607284
   10   -1510.2760886726      4.17E-09 Convergence criterion met
 Total energy in the final basis set = -1510.27608867
    9   -1510.2760905820      3.46E-09 Convergence criterion met
 Total energy in the final basis set = -1510.27609058

             Standard Nuclear Orientation (Angstroms)
    I     Atom           X                Y                Z
 ----------------------------------------------------------------
    1      O       2.7522255455    -1.3742261473     1.4073463609
    2      C       3.8511981985    -1.5098317113     0.8298114107
    3      C       4.5953029635    -0.4772014010    -0.0887755939
    4      C       3.6510834779     0.6423057342    -0.6792547824
    5      C       2.1261023323     0.2812046585    -0.7537422896
    6      O       1.3694053010     1.4998566729    -0.6871484348
    7      C      -0.0109085967     1.2441789329    -1.1621688658
    8      C      -1.0040442994     2.2695936353    -0.5306126805
    9      O      -2.3428921553     1.6466087938    -0.6878344857
   10      C      -3.0777099493     1.6823832060     0.5338804718
   11      C      -4.4583943376     0.9630709143     0.3379016935
   12      C      -4.5270409552    -0.2216995556    -0.7220475657
   13      C      -3.2636349256    -0.5044601361    -1.6187910929
   14      O      -3.0895020051    -0.1016211627    -2.7910303019
   15      O       4.6814879036    -2.6720832387     0.9438461274
   16      O      -2.3699321706    -1.3914739336    -0.9295665497
   17      O      -2.6610144241     2.2083184120     1.5892727907
   18      C      -1.3171375731    -1.8910874503    -1.8509884497
   19      C      -4.8578151060     0.1992689602     1.6697676799
   20      C      -6.4009411014    -0.1332443277     1.6246675178
   21      C      -6.4232087483    -1.3359704188     0.6093736938
   22      C      -4.8927977384    -1.4423624101     0.2326963067
   23      O      -4.2051929920    -1.1191866700     1.5028309435
   24      H      -5.2034323606     1.7405695329     0.0834852229
   25      H      -5.3524206083    -0.0202022508    -1.4282931157
   26      H      -4.4981379061     0.7011964398     2.5893438521
   27      H      -6.7603787156    -0.4364612175     2.6208354387
   28      H      -6.9986892787     0.7256089789     1.2796139298
   29      H      -6.7629864506    -2.2652852069     1.0937195624
   30      H      -7.0581462291    -1.1429070351    -0.2701197830
   31      H      -4.5637758594    -2.4294887417    -0.1443343935
   32      O       1.6258618972    -0.8394477846    -1.0010493835
   33      C       4.0405927079    -3.6626572187     1.8394535100
   34      C       5.5117890715     0.4166362980     0.8582995446
   35      C       6.3951367216     1.3963566254    -0.0137542063
   36      C       5.3502423481     2.5168185560    -0.3775250017
   37      C       4.0331201965     1.8938462415     0.2256116230
   38      O       4.5075244029     1.3003035800     1.4970877098
   39      H       5.1700428472    -1.0125157700    -0.8644248799
   40      H       3.9471799433     0.8486130695    -1.7259657941
   41      H       3.0654797483    -4.0052190311     1.4364907310
   42      H       6.0664048031    -0.1601472497     1.6239940576
   43      H       7.2316517526     1.7957414056     0.5810056994
   44      H       6.8042429192     0.8930784235    -0.9044409747
   45      H       5.5886753859     3.4665122796     0.1276154323
   46      H       5.2748004757     2.6998044038    -1.4613064392
   47      H       3.1991767723     2.5992076135     0.4042441330
   48      H       3.8740910962    -3.2487294949     2.8549262471
   49      H       4.7380449570    -4.5184417269     1.8974946529
   50      H      -1.4627771836    -2.9799215080    -1.9968285677
   51      H      -0.3138624268    -1.7088921127    -1.4097854875
   52      H      -1.4043911867    -1.3670125372    -2.8237990826
   53      H      -0.7993956841     2.4296799533     0.5505974604
   54      H      -0.9874134051     3.2465336338    -1.0574344496
   55      H      -0.3257121725     0.2284527909    -0.8535777646
   56      H      -0.0473134966     1.2968916744    -2.2717972798
 ----------------------------------------------------------------

    9   -1510.2760912840      1.80E-09 Convergence criterion met
 Total energy in the final basis set = -1510.27609128
 Final energy is   -1510.27609128395
 **  OPTIMIZATION CONVERGED  **

                    Orbital Energies (a.u.)
 --------------------------------------------------------------

 Alpha MOs
 -- Occupied --
-18.940 -18.934 -18.930 -18.920 -18.888 -18.884 -18.880 -18.879
-18.873 -18.862 -10.105 -10.104 -10.095 -10.092 -10.072 -10.069
-10.061 -10.061 -10.059 -10.056 -10.055 -10.040 -10.040 -10.039
-10.038 -10.033 -10.022 -10.020 -10.018 -10.016  -1.018  -1.014
 -1.006  -0.998  -0.971  -0.966  -0.943  -0.938  -0.931  -0.924
 -0.764  -0.760  -0.727  -0.722  -0.713  -0.703  -0.696  -0.660
 -0.648  -0.613  -0.596  -0.581  -0.546  -0.541  -0.539  -0.534
 -0.518  -0.508  -0.482  -0.468  -0.463  -0.461  -0.451  -0.448
 -0.435  -0.434  -0.428  -0.413  -0.409  -0.407  -0.405  -0.401
 -0.394  -0.374  -0.372  -0.366  -0.363  -0.361  -0.347  -0.342
 -0.339  -0.335  -0.332  -0.330  -0.327  -0.324  -0.320  -0.312
 -0.310  -0.304  -0.303  -0.294  -0.293  -0.290  -0.286  -0.277
 -0.273  -0.256  -0.249  -0.242  -0.237  -0.234  -0.229  -0.185
 -0.176  -0.173  -0.164  -0.161  -0.158  -0.147  -0.146  -0.144
 -0.139

          Ground-State Mulliken Net Atomic Charges

     Atom                 Charge (a.u.)
  ----------------------------------------
      1 O                    -0.207003
      2 C                     0.212803
      3 C                    -0.077857
      4 C                    -0.078703
      5 C                     0.219356
      6 O                    -0.174170
      7 C                    -0.053348
      8 C                    -0.051067
      9 O                    -0.170235
     10 C                     0.214505
     11 C                    -0.077163
     12 C                    -0.079698
     13 C                     0.214175
     14 O                    -0.220781
     15 O                    -0.172690
     16 O                    -0.172990
     17 O                    -0.211969
     18 C                    -0.146224
     19 C                     0.024135
     20 C                    -0.144427
     21 C                    -0.144244
     22 C                     0.026222
     23 O                    -0.187392
     24 H                     0.085377
     25 H                     0.082958
     26 H                     0.090309
     27 H                     0.078129
     28 H                     0.072545
     29 H                     0.077462
     30 H                     0.072597
     31 H                     0.086505
     32 O                    -0.212936
     33 C                    -0.128763
     34 C                     0.024837
     35 C                    -0.145110
     36 C                    -0.142373
     37 C                     0.024363
     38 O                    -0.189381
     39 H                     0.087132
     40 H                     0.084341
     41 H                     0.090690
     42 H                     0.083857
     43 H                     0.078557
     44 H                     0.073845
     45 H                     0.078402
     46 H                     0.072992
     47 H                     0.093020
     48 H                     0.089471
     49 H                     0.089197
     50 H                     0.079447
     51 H                     0.102053
     52 H                     0.095063
     53 H                     0.106512
     54 H                     0.086855
     55 H                     0.105439
     56 H                     0.085374
  ----------------------------------------
  Sum of atomic charges =     0.000000

                    Cartesian Multipole Moments
 -----------------------------------------------------------------
    Charge (ESU x 10^10)
                 0.0000
    Dipole Moment (Debye)
         X       0.8318      Y       0.1859      Z      -1.7363
       Tot       1.9342
    Quadrupole Moments (Debye-Ang)
        XX    -131.9376     XY      -0.3461     YY    -153.4836
        XZ      -4.5245     YZ      -4.2264     ZZ    -166.7687

 Total job time:  95.31s(wall), 4523.92s(cpu)
        *  Thank you very much for using Q-Chem.  Have a nice day.  *
