 Q-Chem 5.0, Q-Chem, Inc., Pleasanton, CA (2017)
 Q-Chem 5.0.1 for Intel X86 EM64T Linux

User input:
--------------------------------------------------------------
$molecule
0  1
O -3.94934 -3.66094 2.70899
C -3.26408 -4.56952 2.26188
C -3.36658 -6.02376 2.66595
C -2.05243 -6.81106 2.7964
C -0.77325 -6.01189 2.68187
O 0.00611 -6.22326 3.78339
C 1.30124 -5.62214 3.68062
C 1.53062 -4.66538 4.84601
O 2.59368 -3.75327 4.52844
C 3.5942 -3.68337 5.44125
C 4.36805 -2.38859 5.36801
C 4.34223 -1.69565 3.99781
C 3.28516 -2.18632 3.02902
O 3.49829 -2.60968 1.90212
O -2.59897 -4.32644 1.10226
O 2.00309 -1.77943 3.29439
O 3.68007 -4.41263 6.4215
C 0.94184 -1.87252 2.41653
C 3.84456 -1.26018 6.27518
C 4.98356 -0.28844 6.58114
C 5.16991 0.36803 5.22514
C 4.00426 -0.26121 4.45128
O 3.02326 -0.48194 5.43914
H 5.41322 -2.64236 5.65862
H 5.32298 -1.77515 3.47818
H 3.38085 -1.63045 7.21526
H 4.57755 0.4689 7.28976
H 5.8998 -0.74057 7.01811
H 5.02426 1.46456 5.34405
H 6.14224 0.16248 4.72718
H 3.70264 0.38441 3.59709
O -0.40534 -5.4867 1.63837
C -2.48476 -3.0863 0.50807
C -3.97936 -6.23415 4.06512
C -4.62731 -7.61347 4.14105
C -3.40081 -8.49804 4.14889
C -2.29135 -7.43878 4.19688
O -2.86699 -6.37536 4.9147
H -4.02404 -6.48796 1.8962
H -1.97508 -7.60368 2.01928
H -1.97199 -2.38007 1.19545
H -4.71895 -5.45583 4.35286
H -5.12366 -7.68581 5.13556
H -5.36946 -7.83693 3.34468
H -3.41142 -9.10011 5.08483
H -3.29159 -9.16796 3.26872
H -1.38483 -7.90218 4.64198
H -3.48938 -2.69235 0.24408
H -1.88344 -3.1817 -0.41911
H 0.02967 -1.47507 2.90657
H 0.76115 -2.92796 2.13288
H 1.1478 -1.2729 1.50462
H 0.61891 -4.03526 4.92898
H 1.6125 -5.23204 5.79954
H 1.47547 -5.04113 2.75108
H 2.08683 -6.40673 3.69895
$end

$opt
CONSTRAINT
tors           1           2           3           4    -141.040
tors           3           4           5           6    +125.089
tors           4           5           6           7    +173.266
tors           5           6           7           8    +122.949
tors           6           7           8           9    -161.053
tors           7           8           9          10    -127.022
tors           8           9          10          11    -157.273
tors           9          10          11          12     -25.480
tors          11          12          13          14    -124.042
ENDCONSTRAINT
$end

$rem
JOBTYPE                   OPT
METHOD                    B3LYP
DFT_D                     d3_op
BASIS                     STO-3G
GEOM_OPT_MAX_CYCLES       100
GEOM_OPT_TOL_GRADIENT     300
GEOM_OPT_TOL_DISPLACEMENT 1200
GEOM_OPT_TOL_ENERGY       100
SYMMETRY                  False
THRESH                    12
SCF_CONVERGENCE           8
MAX_SUB_FILE_NUM          128
MEM_STATIC                400
MEM_TOTAL                 4000
$end
--------------------------------------------------------------

   15   -1510.1356096208      6.11E-09 Convergence criterion met
 Total energy in the final basis set = -1510.13560962
   14   -1510.2049070887      6.47E-09 Convergence criterion met
 Total energy in the final basis set = -1510.20490709
   14   -1510.2384999322      8.88E-09 Convergence criterion met
 Total energy in the final basis set = -1510.23849993
   14   -1510.2564358538      8.97E-09 Convergence criterion met
 Total energy in the final basis set = -1510.25643585
   14   -1510.2630671221      3.17E-09 Convergence criterion met
 Total energy in the final basis set = -1510.26306712
   14   -1510.2655866772      2.40E-09 Convergence criterion met
 Total energy in the final basis set = -1510.26558668
   13   -1510.2660929281      5.33E-09 Convergence criterion met
 Total energy in the final basis set = -1510.26609293
   12   -1510.2665399005      7.08E-09 Convergence criterion met
   10   -1510.2670447440      8.14E-09 Convergence criterion met
 Total energy in the final basis set = -1510.26704474
   11   -1510.2670485067      2.58E-09 Convergence criterion met
 Total energy in the final basis set = -1510.26704851
    9   -1510.2670528301      8.23E-09 Convergence criterion met
 Total energy in the final basis set = -1510.26705283
   10   -1510.2670559468      4.55E-09 Convergence criterion met
 Total energy in the final basis set = -1510.26705595
    9   -1510.2670537800      7.28E-09 Convergence criterion met
 Total energy in the final basis set = -1510.26705378
    9   -1510.2670567224      2.98E-09 Convergence criterion met
 Total energy in the final basis set = -1510.26705672

             Standard Nuclear Orientation (Angstroms)
    I     Atom           X                Y                Z
 ----------------------------------------------------------------
    1      O      -4.0285282761     2.0808207741     1.9863442782
    2      C      -3.8790704182     1.6720410770     0.8128148886
    3      C      -4.7198259547     0.5177366986     0.1444595280
    4      C      -4.0136307273    -0.5311382100    -0.8278098706
    5      C      -2.4992005873    -0.2988772624    -1.1781286301
    6      O      -1.7420723809    -1.4792711524    -0.8551273377
    7      C      -0.3478738253    -1.3232628432    -1.3330114826
    8      C       0.6342968810    -1.4982344745    -0.1237489974
    9      O       1.9360890830    -0.9009810860    -0.4973840233
   10      C       3.0237776754    -1.8053581124    -0.3138839600
   11      C       4.3719699560    -1.0241067633    -0.1537214888
   12      C       4.4966304253     0.4232733775    -0.7920134861
   13      C       3.1604863393     1.1875464086    -1.1319652089
   14      O       2.8492211166     1.6414452237    -2.2558347731
   15      O      -3.0265947537     2.3031922804    -0.1398980095
   16      O       2.4654506691     1.5258227800     0.0765814716
   17      O       2.8898670595    -3.0454174086    -0.2037924478
   18      C       1.2339484675     2.2790381919    -0.2490332869
   19      C       4.7989602055    -0.7432929392     1.3608160409
   20      C       6.3771448403    -0.7383288445     1.3886322748
   21      C       6.6751021431     0.5992959105     0.6129322403
   22      C       5.2154799490     1.1777690769     0.4117592406
   23      O       4.4671201887     0.6775921650     1.5892539040
   24      H       5.1382271081    -1.6773206136    -0.6104123139
   25      H       5.1076605136     0.4013997715    -1.7111800935
   26      H       4.3075638741    -1.3890708646     2.1142419054
   27      H       6.7385711284    -0.6891437135     2.4285063537
   28      H       6.8127425227    -1.6255111029     0.9019568318
   29      H       7.2861778936     1.2907000374     1.2142565165
   30      H       7.1821793732     0.4265891495    -0.3500248339
   31      H       5.1530550053     2.2817462467     0.3574810321
   32      O      -1.9996389511     0.6891582625    -1.7605607414
   33      C      -2.3024825202     3.4302333961     0.4928032439
   34      C      -5.2654053412    -0.4484294575     1.2783211899
   35      C      -6.5077182822    -1.2474778341     0.7259643667
   36      C      -5.8012430997    -2.2804476718    -0.2281751251
   37      C      -4.2838974413    -1.8843312695    -0.0390175489
   38      O      -4.2044599518    -1.4773339103     1.3822578059
   39      H      -5.5527380666     1.0100912900    -0.3930576398
   40      H      -4.5479658062    -0.5335749225    -1.7966805214
   41      H      -1.7202248999     3.0975141610     1.3758717694
   42      H      -5.4092459087     0.0644526723     2.2496359837
   43      H      -7.0363323341    -1.7538658339     1.5492163359
   44      H      -7.2213301612    -0.5953879453     0.1970989281
   45      H      -5.9696627092    -3.3171342346     0.1038178938
   46      H      -6.1291683184    -2.1885343583    -1.2759701587
   47      H      -3.5484083726    -2.6810211081    -0.2583382246
   48      H      -2.9970545774     4.2340454235     0.8122597942
   49      H      -1.6158086789     3.8179807638    -0.2818807542
   50      H       0.8071002888     2.5923057174     0.7211889401
   51      H       0.4958179133     1.6487434245    -0.7875146627
   52      H       1.4481647847     3.1732075577    -0.8692719125
   53      H       0.2447414659    -0.9438083883     0.7575959537
   54      H       0.7722136335    -2.5694994068     0.1352645665
   55      H      -0.2455182041    -0.3075649735    -1.7759543739
   56      H      -0.1509069479    -2.0905710605    -2.1102292413
 ----------------------------------------------------------------

    8   -1510.2670565876      4.70E-09 Convergence criterion met
 Total energy in the final basis set = -1510.26705659
 Final energy is   -1510.26705658759
 **  OPTIMIZATION CONVERGED  **

                    Orbital Energies (a.u.)
 --------------------------------------------------------------

 Alpha MOs
 -- Occupied --
-18.938 -18.936 -18.936 -18.923 -18.890 -18.885 -18.883 -18.878
-18.873 -18.861 -10.105 -10.104 -10.100 -10.092 -10.073 -10.067
-10.065 -10.063 -10.060 -10.057 -10.056 -10.054 -10.042 -10.039
-10.039 -10.036 -10.022 -10.021 -10.020 -10.019  -1.019  -1.015
 -1.011  -0.999  -0.971  -0.969  -0.943  -0.939  -0.934  -0.924
 -0.764  -0.762  -0.728  -0.722  -0.714  -0.706  -0.695  -0.664
 -0.653  -0.616  -0.599  -0.583  -0.545  -0.544  -0.538  -0.537
 -0.518  -0.512  -0.490  -0.474  -0.470  -0.462  -0.447  -0.443
 -0.433  -0.431  -0.423  -0.414  -0.411  -0.408  -0.404  -0.403
 -0.391  -0.388  -0.376  -0.368  -0.365  -0.356  -0.351  -0.343
 -0.341  -0.338  -0.334  -0.333  -0.330  -0.327  -0.325  -0.314
 -0.312  -0.308  -0.306  -0.298  -0.294  -0.290  -0.285  -0.278
 -0.276  -0.253  -0.250  -0.242  -0.239  -0.234  -0.233  -0.188
 -0.178  -0.172  -0.164  -0.157  -0.157  -0.153  -0.144  -0.143
 -0.141

          Ground-State Mulliken Net Atomic Charges

     Atom                 Charge (a.u.)
  ----------------------------------------
      1 O                    -0.215736
      2 C                     0.206538
      3 C                    -0.078059
      4 C                    -0.077847
      5 C                     0.209743
      6 O                    -0.173082
      7 C                    -0.057803
      8 C                    -0.049999
      9 O                    -0.173152
     10 C                     0.210449
     11 C                    -0.079928
     12 C                    -0.078829
     13 C                     0.214514
     14 O                    -0.220508
     15 O                    -0.161278
     16 O                    -0.162472
     17 O                    -0.214053
     18 C                    -0.128806
     19 C                     0.026630
     20 C                    -0.141608
     21 C                    -0.145501
     22 C                     0.026889
     23 O                    -0.182696
     24 H                     0.084137
     25 H                     0.084813
     26 H                     0.084794
     27 H                     0.078445
     28 H                     0.074787
     29 H                     0.078327
     30 H                     0.074034
     31 H                     0.083703
     32 O                    -0.203567
     33 C                    -0.127323
     34 C                     0.022690
     35 C                    -0.144435
     36 C                    -0.144436
     37 C                     0.022347
     38 O                    -0.191687
     39 H                     0.084765
     40 H                     0.085860
     41 H                     0.088652
     42 H                     0.091627
     43 H                     0.078404
     44 H                     0.072846
     45 H                     0.077998
     46 H                     0.072305
     47 H                     0.093362
     48 H                     0.088721
     49 H                     0.093543
     50 H                     0.085655
     51 H                     0.088267
     52 H                     0.086908
     53 H                     0.090766
     54 H                     0.099981
     55 H                     0.104867
     56 H                     0.085439
  ----------------------------------------
  Sum of atomic charges =    -0.000000

                    Cartesian Multipole Moments
 -----------------------------------------------------------------
    Charge (ESU x 10^10)
                 0.0000
    Dipole Moment (Debye)
         X      -0.1589      Y      -0.0637      Z      -0.7392
       Tot       0.7587
    Quadrupole Moments (Debye-Ang)
        XX    -134.2029     XY       2.3567     YY    -160.3969
        XZ       7.4697     YZ       3.3997     ZZ    -169.7067

 Total job time:  72.58s(wall), 3455.59s(cpu)
        *  Thank you very much for using Q-Chem.  Have a nice day.  *
