 Q-Chem 5.0, Q-Chem, Inc., Pleasanton, CA (2017)
 Q-Chem 5.0.1 for Intel X86 EM64T Linux

User input:
--------------------------------------------------------------
$molecule
0  1
O -4.0285282761 2.0808207741 1.9863442782
C -3.8790704182 1.672041077 0.8128148886
C -4.7198259547 0.5177366986 0.144459528
C -4.0136307273 -0.53113821 -0.8278098706
C -2.4992005873 -0.2988772624 -1.1781286301
O -1.7420723809 -1.4792711524 -0.8551273377
C -0.3478738253 -1.3232628432 -1.3330114826
C 0.634296881 -1.4982344745 -0.1237489974
O 1.936089083 -0.900981086 -0.4973840233
C 3.0237776754 -1.8053581124 -0.31388396
C 4.371969956 -1.0241067633 -0.1537214888
C 4.4966304253 0.4232733775 -0.7920134861
C 3.1604863393 1.1875464086 -1.1319652089
O 2.8492211166 1.6414452237 -2.2558347731
O -3.0265947537 2.3031922804 -0.1398980095
O 2.4654506691 1.52582278 0.0765814716
O 2.8898670595 -3.0454174086 -0.2037924478
C 1.2339484675 2.2790381919 -0.2490332869
C 4.7989602055 -0.7432929392 1.3608160409
C 6.3771448403 -0.7383288445 1.3886322748
C 6.6751021431 0.5992959105 0.6129322403
C 5.215479949 1.1777690769 0.4117592406
O 4.4671201887 0.677592165 1.589253904
H 5.1382271081 -1.6773206136 -0.6104123139
H 5.1076605136 0.4013997715 -1.7111800935
H 4.3075638741 -1.3890708646 2.1142419054
H 6.7385711284 -0.6891437135 2.4285063537
H 6.8127425227 -1.6255111029 0.9019568318
H 7.2861778936 1.2907000374 1.2142565165
H 7.1821793732 0.4265891495 -0.3500248339
H 5.1530550053 2.2817462467 0.3574810321
O -1.9996389511 0.6891582625 -1.7605607414
C -2.3024825202 3.4302333961 0.4928032439
C -5.2654053412 -0.4484294575 1.2783211899
C -6.5077182822 -1.2474778341 0.7259643667
C -5.8012430997 -2.2804476718 -0.2281751251
C -4.2838974413 -1.8843312695 -0.0390175489
O -4.2044599518 -1.4773339103 1.3822578059
H -5.5527380666 1.01009129 -0.3930576398
H -4.5479658062 -0.5335749225 -1.7966805214
H -1.7202248999 3.097514161 1.3758717694
H -5.4092459087 0.0644526723 2.2496359837
H -7.0363323341 -1.7538658339 1.5492163359
H -7.2213301612 -0.5953879453 0.1970989281
H -5.9696627092 -3.3171342346 0.1038178938
H -6.1291683184 -2.1885343583 -1.2759701587
H -3.5484083726 -2.6810211081 -0.2583382246
H -2.9970545774 4.2340454235 0.8122597942
H -1.6158086789 3.8179807638 -0.2818807542
H 0.8071002888 2.5923057174 0.7211889401
H 0.4958179133 1.6487434245 -0.7875146627
H 1.4481647847 3.1732075577 -0.8692719125
H 0.2447414659 -0.9438083883 0.7575959537
H 0.7722136335 -2.5694994068 0.1352645665
H -0.2455182041 -0.3075649735 -1.7759543739
H -0.1509069479 -2.0905710605 -2.1102292413
$end

$rem
JOBTYPE                   OPT
METHOD                    B3LYP
DFT_D                     d3_op
BASIS                     STO-3G
GEOM_OPT_MAX_CYCLES       100
GEOM_OPT_TOL_GRADIENT     300
GEOM_OPT_TOL_DISPLACEMENT 1200
GEOM_OPT_TOL_ENERGY       100
SYMMETRY                  False
THRESH                    12
SCF_CONVERGENCE           8
MAX_SUB_FILE_NUM          128
MEM_STATIC                400
MEM_TOTAL                 4000
$end
--------------------------------------------------------------

   16   -1510.2670888257      5.33E-09 Convergence criterion met
 Total energy in the final basis set = -1510.26708883
   14   -1510.2706793203      5.91E-09 Convergence criterion met
 Total energy in the final basis set = -1510.27067932
   14   -1510.2727342876      8.62E-09 Convergence criterion met
 Total energy in the final basis set = -1510.27273429
   14   -1510.2746847080      5.13E-09 Convergence criterion met
 Total energy in the final basis set = -1510.27468471
   14   -1510.2766729438      4.57E-09 Convergence criterion met
 Total energy in the final basis set = -1510.27667294
   13   -1510.2784166956      6.58E-09 Convergence criterion met
 Total energy in the final basis set = -1510.27841670
   13   -1510.2802789033      5.12E-09 Convergence criterion met
 Total energy in the final basis set = -1510.28027890
   13   -1510.2822888032      7.77E-09 Convergence criterion met
   11   -1510.3059309624      9.06E-09 Convergence criterion met
 Total energy in the final basis set = -1510.30593096
   11   -1510.3059391180      5.70E-09 Convergence criterion met
 Total energy in the final basis set = -1510.30593912
   11   -1510.3059437548      4.25E-09 Convergence criterion met
 Total energy in the final basis set = -1510.30594375
   10   -1510.3059420354      8.58E-09 Convergence criterion met
 Total energy in the final basis set = -1510.30594204
    9   -1510.3059434637      6.01E-09 Convergence criterion met
 Total energy in the final basis set = -1510.30594346
    9   -1510.3059442988      3.43E-09 Convergence criterion met
 Total energy in the final basis set = -1510.30594430

             Standard Nuclear Orientation (Angstroms)
    I     Atom           X                Y                Z
 ----------------------------------------------------------------
    1      O      -1.7621819457     0.0320075015     2.2739618332
    2      C      -2.0703593896     0.5558997458     1.1824796930
    3      C      -3.4762277602     0.5871609361     0.4778621159
    4      C      -3.4403253772    -0.0049470060    -0.9951157200
    5      C      -2.0382558679    -0.6015694103    -1.3616492672
    6      O      -1.7102125882    -1.5592535813    -0.3586014007
    7      C      -0.3816075635    -2.1792246286    -0.5806524916
    8      C       0.3468060906    -2.2618576141     0.8150076635
    9      O       1.4808741327    -1.3102298901     0.9020791743
   10      C       2.6377557353    -1.8439356794     0.2293507634
   11      C       3.8183409385    -0.8134413537     0.3228769785
   12      C       3.6450453567     0.4763580787    -0.5826405784
   13      C       2.3455230272     0.4365917645    -1.4645666853
   14      O       1.7726315555    -0.6024597127    -1.8697646104
   15      O      -1.1807785725     1.2904945197     0.3415635939
   16      O       1.9279395310     1.7610247521    -1.7646125731
   17      O       2.6878210952    -2.9969470140    -0.2489636719
   18      C       0.7587040711     1.7569836467    -2.6831512077
   19      C       3.9254256029    -0.1443619270     1.7615459921
   20      C       5.3460105829     0.5362224096     1.8889460806
   21      C       5.1517829191     1.8191979277     0.9972375007
   22      C       3.6616972236     1.6265308679     0.5104989998
   23      O       2.9977070771     1.0051007152     1.6785835654
   24      H       4.7404961876    -1.3597200400     0.0582047474
   25      H       4.5038719729     0.5855234383    -1.2711551768
   26      H       3.6423617005    -0.8097086170     2.5997906264
   27      H       5.5515565400     0.8006792116     2.9383849746
   28      H       6.1536630689    -0.1185440590     1.5248726477
   29      H       5.2451495703     2.7419676277     1.5915845944
   30      H       5.8620037974     1.8655137660     0.1562800310
   31      H       3.1348751339     2.5493967612     0.2017477742
   32      O      -1.3221484142    -0.3262143369    -2.3518365993
   33      C       0.1759466320     1.3689369830     0.9351793954
   34      C      -4.5326600765    -0.3665872589     1.1713629211
   35      C      -5.9721981086     0.0705175693     0.6924218518
   36      C      -5.9662579607    -0.4544573269    -0.7919142672
   37      C      -4.5453271352    -1.1424600843    -0.8705988777
   38      O      -4.3329942004    -1.6703428616     0.4950871896
   39      H      -3.8280811271     1.6351557719     0.4636051195
   40      H      -3.7030340478     0.7525079729    -1.7538249957
   41      H       0.6914085245     0.3790133194     0.9501198225
   42      H      -4.3948605413    -0.4737353730     2.2649731080
   43      H      -6.7475701390    -0.4311151247     1.2931615662
   44      H      -6.1225166217     1.1599049914     0.7586630613
   45      H      -6.7623562868    -1.1964922367    -0.9620992860
   46      H      -6.0751629997     0.3551863814    -1.5310719778
   47      H      -4.4566884786    -1.9543806948    -1.6184972294
   48      H       0.1410781409     1.7726082567     1.9659424031
   49      H       0.7393364549     2.0591460858     0.2819385430
   50      H       0.2818612240     2.7475258160    -2.5693287716
   51      H       0.0281772680     0.9464942491    -2.4480933753
   52      H       1.1018987449     1.6358313479    -3.7306605914
   53      H      -0.3609892114    -1.9505586039     1.6122210083
   54      H       0.7031375059    -3.2956333221     1.0026684980
   55      H       0.2258974836    -1.5728650480    -1.2954594092
   56      H      -0.5303191603    -3.1966495924    -0.9995412610
 ----------------------------------------------------------------

    9   -1510.3059443384      1.88E-09 Convergence criterion met
 Total energy in the final basis set = -1510.30594434
 Final energy is   -1510.30594433842
 **  OPTIMIZATION CONVERGED  **

                    Orbital Energies (a.u.)
 --------------------------------------------------------------

 Alpha MOs
 -- Occupied --
-18.944 -18.933 -18.931 -18.919 -18.892 -18.885 -18.884 -18.875
-18.874 -18.865 -10.110 -10.101 -10.100 -10.091 -10.064 -10.064
-10.063 -10.059 -10.054 -10.054 -10.049 -10.043 -10.040 -10.035
-10.032 -10.031 -10.023 -10.022 -10.019 -10.017  -1.020  -1.012
 -1.007  -0.997  -0.975  -0.966  -0.943  -0.938  -0.933  -0.926
 -0.767  -0.760  -0.727  -0.722  -0.712  -0.703  -0.690  -0.658
 -0.645  -0.612  -0.596  -0.578  -0.549  -0.543  -0.539  -0.534
 -0.516  -0.509  -0.484  -0.476  -0.469  -0.457  -0.447  -0.437
 -0.435  -0.429  -0.426  -0.419  -0.409  -0.402  -0.397  -0.395
 -0.390  -0.379  -0.370  -0.365  -0.359  -0.359  -0.352  -0.348
 -0.339  -0.335  -0.333  -0.329  -0.327  -0.325  -0.321  -0.315
 -0.308  -0.306  -0.302  -0.300  -0.292  -0.290  -0.282  -0.280
 -0.270  -0.260  -0.250  -0.244  -0.234  -0.232  -0.231  -0.189
 -0.178  -0.169  -0.163  -0.160  -0.155  -0.151  -0.146  -0.143
 -0.140

          Ground-State Mulliken Net Atomic Charges

     Atom                 Charge (a.u.)
  ----------------------------------------
      1 O                    -0.216884
      2 C                     0.212830
      3 C                    -0.078350
      4 C                    -0.077965
      5 C                     0.219721
      6 O                    -0.169701
      7 C                    -0.064498
      8 C                    -0.052876
      9 O                    -0.174120
     10 C                     0.214268
     11 C                    -0.080883
     12 C                    -0.078580
     13 C                     0.219127
     14 O                    -0.213260
     15 O                    -0.182088
     16 O                    -0.169328
     17 O                    -0.210708
     18 C                    -0.142873
     19 C                     0.026507
     20 C                    -0.144079
     21 C                    -0.143607
     22 C                     0.023701
     23 O                    -0.188016
     24 H                     0.085982
     25 H                     0.086836
     26 H                     0.086096
     27 H                     0.078844
     28 H                     0.074332
     29 H                     0.078795
     30 H                     0.073787
     31 H                     0.090398
     32 O                    -0.219752
     33 C                    -0.148580
     34 C                     0.024192
     35 C                    -0.143613
     36 C                    -0.144207
     37 C                     0.025985
     38 O                    -0.185584
     39 H                     0.082715
     40 H                     0.084121
     41 H                     0.110215
     42 H                     0.089524
     43 H                     0.077544
     44 H                     0.072651
     45 H                     0.077588
     46 H                     0.073141
     47 H                     0.082056
     48 H                     0.082983
     49 H                     0.083049
     50 H                     0.086535
     51 H                     0.120281
     52 H                     0.082058
     53 H                     0.105921
     54 H                     0.093217
     55 H                     0.119044
     56 H                     0.085510
  ----------------------------------------
  Sum of atomic charges =     0.000000

                    Cartesian Multipole Moments
 -----------------------------------------------------------------
    Charge (ESU x 10^10)
                 0.0000
    Dipole Moment (Debye)
         X       0.7642      Y       2.2892      Z      -0.5990
       Tot       2.4867
    Quadrupole Moments (Debye-Ang)
        XX    -136.1382     XY       0.0986     YY    -162.5571
        XZ       5.6357     YZ      -2.5366     ZZ    -163.6784

 Total job time:  139.43s(wall), 6643.27s(cpu)
        *  Thank you very much for using Q-Chem.  Have a nice day.  *
