 Q-Chem 5.0, Q-Chem, Inc., Pleasanton, CA (2017)
 Q-Chem 5.0.1 for Intel X86 EM64T Linux

User input:
--------------------------------------------------------------
$molecule
0  1
O 3.7004854954 -3.0847527547 0.1411562308
C 3.8982349773 -1.8907055791 0.4530539389
C 4.6843469084 -0.8214021648 -0.3879494778
C 3.7611057917 0.1520545772 -1.2370515316
C 2.240363353 0.0101713631 -0.8591094195
O 1.5906417933 1.2571566042 -1.0985032797
C 0.1352664434 1.231529986 -0.8002581494
C -0.2116038101 0.8498515088 0.6975643797
O -1.6115602996 0.395531305 0.8788816415
C -1.940805551 -0.7536298829 0.0960105818
C -3.4761352299 -1.0523093439 0.2357520131
C -4.4239689075 0.1267284168 0.6903243927
C -3.874574548 1.5648156032 0.3685743201
O -3.1794189402 1.9316400663 -0.6022190047
O 3.4705967761 -1.2950398644 1.6863925937
O -4.3505804945 2.4511904641 1.3910736219
O -1.1325288745 -1.4178241049 -0.5881063646
C -3.8830214794 3.8293968213 1.1187495803
C -4.1830439562 -1.5465167605 -1.1001838377
C -5.3453249459 -2.5221783468 -0.6713993605
C -6.3389045378 -1.5059838235 0.0070433837
C -5.6394593307 -0.1231717527 -0.3112040091
O -4.9249069411 -0.3608803568 -1.5885382953
H -3.5476292326 -1.8606628449 0.9892163962
H -4.7108047148 0.0668506573 1.753975378
H -3.4876852402 -1.9281324334 -1.8731427552
H -5.7969138905 -2.992303242 -1.5599785057
H -5.003879107 -3.3143062748 0.0141561919
H -7.3401078322 -1.5471716596 -0.4501821284
H -6.4405178187 -1.6731563371 1.0916432828
H -6.3305067775 0.7367479744 -0.4091135089
O 1.683289091 -1.0219474163 -0.4230076097
C 2.6195191242 -2.2506111003 2.4288342819
C 5.4997598723 0.2285326526 0.4846589817
C 6.6323459968 0.839264724 -0.4307638233
C 5.7805992744 1.7514233566 -1.3889952425
C 4.3309456773 1.5616870257 -0.7908471782
O 4.5630640639 1.3625619437 0.6593835371
H 5.3589871552 -1.3782909112 -1.0620700673
H 3.8722421701 -0.0234043196 -2.3232766629
H 3.1502907595 -3.2026952516 2.6339968993
H 5.8352982994 -0.1509908347 1.4687780766
H 7.3336869394 1.4354958911 0.1748222181
H 7.2007713808 0.0646889596 -0.9700342395
H 6.0893978733 2.8068174 -1.3260438014
H 5.8376759589 1.4299984121 -2.4413924795
H 3.6272928412 2.398659029 -0.9614620362
H 1.6922509498 -2.4784871838 1.8632754355
H 2.3617481085 -1.7555902183 3.3831879307
H -4.2838535307 4.4565182547 1.9361789785
H -4.2578460213 4.2052972606 0.1446770933
H -2.7754361592 3.890186148 1.1143819622
H 0.4897457194 0.0481391432 1.0147356089
H -0.1014233446 1.726735356 1.3647908156
H -0.3658408364 0.4963830969 -1.4652681082
H -0.2321086083 2.2481163173 -1.0412140246
$end

$rem
JOBTYPE                   OPT
METHOD                    B3LYP
DFT_D                     d3_op
BASIS                     STO-3G
GEOM_OPT_MAX_CYCLES       100
GEOM_OPT_TOL_GRADIENT     300
GEOM_OPT_TOL_DISPLACEMENT 1200
GEOM_OPT_TOL_ENERGY       100
SYMMETRY                  False
THRESH                    12
SCF_CONVERGENCE           8
MAX_SUB_FILE_NUM          128
MEM_STATIC                400
MEM_TOTAL                 4000
$end
--------------------------------------------------------------

   16   -1510.2753157528      5.55E-09 Convergence criterion met
 Total energy in the final basis set = -1510.27531575
   14   -1510.2780360291      2.39E-09 Convergence criterion met
 Total energy in the final basis set = -1510.27803603
   14   -1510.2808188301      2.29E-09 Convergence criterion met
 Total energy in the final basis set = -1510.28081883
   14   -1510.2829845089      1.44E-09 Convergence criterion met
 Total energy in the final basis set = -1510.28298451
   14   -1510.2850702315      2.20E-09 Convergence criterion met
 Total energy in the final basis set = -1510.28507023
   14   -1510.2851227007      2.74E-09 Convergence criterion met
 Total energy in the final basis set = -1510.28512270
   13   -1510.2865622195      9.38E-09 Convergence criterion met
 Total energy in the final basis set = -1510.28656222
   13   -1510.2874359769      7.79E-09 Convergence criterion met
   13   -1510.2934641651      2.65E-09 Convergence criterion met
 Total energy in the final basis set = -1510.29346417
   12   -1510.2935105800      4.64E-09 Convergence criterion met
 Total energy in the final basis set = -1510.29351058
   12   -1510.2935232436      5.57E-09 Convergence criterion met
 Total energy in the final basis set = -1510.29352324
   12   -1510.2935273263      4.11E-09 Convergence criterion met
 Total energy in the final basis set = -1510.29352733
   12   -1510.2935297171      3.10E-09 Convergence criterion met
 Total energy in the final basis set = -1510.29352972
   11   -1510.2935345740      4.11E-09 Convergence criterion met
 Total energy in the final basis set = -1510.29353457

             Standard Nuclear Orientation (Angstroms)
    I     Atom           X                Y                Z
 ----------------------------------------------------------------
    1      O       2.9836008396    -2.0396051980    -2.2452278516
    2      C       3.2284833648    -1.3462080143    -1.2324776259
    3      C       4.2456378210    -0.1558145252    -1.1539631579
    4      C       3.5973303392     1.2485470190    -0.7952103397
    5      C       2.0474567531     1.1523474623    -0.5493970621
    6      O       1.6888632645     1.9613599049     0.5766322310
    7      C       0.2500192839     1.8033080119     0.8902760169
    8      C       0.0210810971     0.5604537418     1.8306872929
    9      O      -1.4344770085     0.3103398924     1.9637752008
   10      C      -1.8536161958    -0.7580754633     1.1032765857
   11      C      -3.4173484040    -0.8888391481     1.2271837821
   12      C      -4.2391207314     0.1961678296     0.4186185865
   13      C      -3.3226125771     1.1166519879    -0.4513920992
   14      O      -2.1076282106     0.9408327557    -0.7040155294
   15      O       2.6645074458    -1.5634882691     0.0629413489
   16      O      -4.0957523448     2.1987479047    -0.9649167073
   17      O      -1.0917365809    -1.5375267235     0.4904137053
   18      C      -3.2509394052     3.0596331426    -1.8274602847
   19      C      -3.9361845909    -2.2288259493     0.5546238194
   20      C      -5.3763464507    -2.5388278767     1.1188068945
   21      C      -6.2290898675    -1.4392622062     0.3828033950
   22      C      -5.1280155469    -0.7424294891    -0.5116540966
   23      O      -4.1965142788    -1.8395690972    -0.8516411493
   24      H      -3.6770987552    -0.8440251269     2.3001661161
   25      H      -4.8640133953     0.8271943931     1.0756008371
   26      H      -3.2086189336    -3.0624350230     0.5932927205
   27      H      -5.6928999011    -3.5539122369     0.8301390302
   28      H      -5.4233686022    -2.4516404749     2.2160868944
   29      H      -7.0107156489    -1.8877640813    -0.2505999748
   30      H      -6.7033304226    -0.7302384778     1.0802907511
   31      H      -5.5054121711    -0.2478157825    -1.4278704322
   32      O       1.2294653543     0.5024860544    -1.2366293661
   33      C       1.6697372747    -2.6649202022     0.0170793312
   34      C       5.2777635620    -0.3146853247     0.0476280307
   35      C       6.5091254493     0.6330729749    -0.2343773402
   36      C       5.8801069144     2.0427524582     0.0722928206
   37      C       4.4149101077     1.6379269368     0.5040922602
   38      O       4.5962428559     0.3368581540     1.1885745223
   39      H       4.7662544327    -0.1102613455    -2.1264439964
   40      H       3.7654858478     1.9748930361    -1.6122321346
   41      H       1.7246545086    -3.1693434103    -0.9676213122
   42      H       5.5345292461    -1.3623546392     0.2970136095
   43      H       7.3373661875     0.4017838607     0.4543195099
   44      H       6.8753750638     0.5442801295    -1.2696683880
   45      H       6.4017428767     2.5475175148     0.9009810786
   46      H       5.8834538034     2.7087111669    -0.8053469518
   47      H       3.8912719767     2.3550514821     1.1640911199
   48      H       0.6497049900    -2.2459380567     0.1738481869
   49      H       1.9143801533    -3.3784857178     0.8270737510
   50      H      -3.9219440142     3.8433586616    -2.2242049218
   51      H      -2.8077087582     2.4848219970    -2.6658496075
   52      H      -2.4300875918     3.5309828873    -1.2492766155
   53      H       0.5237703261    -0.3285386693     1.3955118768
   54      H       0.4177197919     0.7536418231     2.8477216637
   55      H      -0.3599253074     1.6514142581    -0.0300151965
   56      H      -0.0596700926     2.7367432508     1.4007296549
 ----------------------------------------------------------------

   11   -1510.2935344926      3.44E-09 Convergence criterion met
 Total energy in the final basis set = -1510.29353449
 Final energy is   -1510.29353449256
 **  OPTIMIZATION CONVERGED  **

                    Orbital Energies (a.u.)
 --------------------------------------------------------------

 Alpha MOs
 -- Occupied --
-18.950 -18.928 -18.927 -18.910 -18.893 -18.890 -18.880 -18.876
-18.870 -18.854 -10.113 -10.102 -10.094 -10.081 -10.074 -10.065
-10.061 -10.059 -10.057 -10.053 -10.051 -10.045 -10.038 -10.031
-10.026 -10.023 -10.023 -10.022 -10.015 -10.014  -1.026  -1.009
 -1.004  -0.989  -0.973  -0.962  -0.949  -0.936  -0.930  -0.915
 -0.767  -0.755  -0.727  -0.718  -0.711  -0.703  -0.688  -0.671
 -0.636  -0.613  -0.594  -0.576  -0.548  -0.539  -0.538  -0.530
 -0.516  -0.502  -0.483  -0.472  -0.465  -0.458  -0.457  -0.437
 -0.433  -0.427  -0.424  -0.420  -0.414  -0.402  -0.398  -0.390
 -0.386  -0.380  -0.370  -0.366  -0.361  -0.356  -0.347  -0.343
 -0.339  -0.334  -0.331  -0.328  -0.325  -0.322  -0.315  -0.311
 -0.308  -0.304  -0.303  -0.297  -0.291  -0.283  -0.279  -0.275
 -0.265  -0.263  -0.248  -0.240  -0.237  -0.228  -0.226  -0.190
 -0.183  -0.167  -0.160  -0.157  -0.149  -0.148  -0.146  -0.137
 -0.135

          Ground-State Mulliken Net Atomic Charges

     Atom                 Charge (a.u.)
  ----------------------------------------
      1 O                    -0.217059
      2 C                     0.211194
      3 C                    -0.080162
      4 C                    -0.077727
      5 C                     0.212750
      6 O                    -0.174427
      7 C                    -0.060107
      8 C                    -0.054986
      9 O                    -0.178484
     10 C                     0.224478
     11 C                    -0.080264
     12 C                    -0.077687
     13 C                     0.217907
     14 O                    -0.204957
     15 O                    -0.176312
     16 O                    -0.166210
     17 O                    -0.211444
     18 C                    -0.128324
     19 C                     0.025326
     20 C                    -0.143757
     21 C                    -0.143826
     22 C                     0.025649
     23 O                    -0.187215
     24 H                     0.085418
     25 H                     0.088195
     26 H                     0.090997
     27 H                     0.079173
     28 H                     0.073682
     29 H                     0.079129
     30 H                     0.073861
     31 H                     0.085222
     32 O                    -0.207126
     33 C                    -0.152519
     34 C                     0.026203
     35 C                    -0.143929
     36 C                    -0.144647
     37 C                     0.022879
     38 O                    -0.188147
     39 H                     0.082637
     40 H                     0.083034
     41 H                     0.094881
     42 H                     0.083075
     43 H                     0.076459
     44 H                     0.073151
     45 H                     0.076309
     46 H                     0.071901
     47 H                     0.090996
     48 H                     0.109602
     49 H                     0.074412
     50 H                     0.093650
     51 H                     0.095467
     52 H                     0.089871
     53 H                     0.103843
     54 H                     0.085717
     55 H                     0.111262
     56 H                     0.080988
  ----------------------------------------
  Sum of atomic charges =     0.000000

                    Cartesian Multipole Moments
 -----------------------------------------------------------------
    Charge (ESU x 10^10)
                 0.0000
    Dipole Moment (Debye)
         X      -2.2496      Y       2.9907      Z       1.5733
       Tot       4.0596
    Quadrupole Moments (Debye-Ang)
        XX    -136.6488     XY       3.4507     YY    -153.3734
        XZ      -5.4873     YZ     -10.2394     ZZ    -162.8513

 Total job time:  100.20s(wall), 4777.39s(cpu)
        *  Thank you very much for using Q-Chem.  Have a nice day.  *
