 Q-Chem 5.0, Q-Chem, Inc., Pleasanton, CA (2017)
 Q-Chem 5.0.1 for Intel X86 EM64T Linux

User input:
--------------------------------------------------------------
$molecule
0  1
O -3.94934 -3.66094 2.70899
C -3.26408 -4.56952 2.26188
C -3.36658 -6.02376 2.66595
C -4.16773 -6.95509 1.74148
C -4.62699 -6.36719 0.4256
O -4.72979 -7.35418 -0.51287
C -5.1867 -6.87797 -1.78319
C -4.23424 -5.81426 -2.31934
O -4.89011 -5.03613 -3.33286
C -6.01362 -4.38898 -2.93529
C -6.73873 -3.71444 -4.07541
C -6.42152 -4.27828 -5.46816
C -5.72933 -5.62622 -5.49341
O -5.89864 -6.52526 -4.68247
O -2.47196 -4.30974 1.18677
O -4.74633 -5.76624 -6.42106
O -6.27247 -4.11915 -1.7702
C -3.9623 -6.89279 -6.55655
C -8.26292 -3.94918 -4.01629
C -8.98068 -2.85198 -4.80069
C -8.61094 -3.23438 -6.21835
C -7.85849 -4.54467 -5.95858
O -8.48235 -5.07975 -4.81816
H -6.54598 -2.62191 -3.98443
H -5.88744 -3.57359 -6.14361
H -8.66295 -4.00156 -2.98002
H -10.07367 -3.01566 -4.66224
H -8.72751 -1.81015 -4.50855
H -9.54887 -3.4237 -6.78627
H -7.97695 -2.4996 -6.76031
H -7.8792 -5.18768 -6.86713
O -5.29727 -5.34263 0.3981
C -2.33107 -3.06859 0.60285
C -1.99872 -6.72132 2.70927
C -2.05776 -7.92668 3.64376
C -2.89608 -8.87735 2.81852
C -3.08324 -8.05153 1.53983
O -1.8887 -7.31508 1.4404
H -3.82152 -6.01589 3.68256
H -5.07375 -7.37125 2.2358
H -1.92493 -2.34299 1.33956
H -1.17132 -6.04059 3.00799
H -1.0265 -8.33936 3.72316
H -2.44777 -7.7095 4.66146
H -2.2846 -9.78204 2.6025
H -3.86531 -9.17681 3.27262
H -3.28941 -8.74975 0.70158
H -3.31224 -2.71152 0.2229
H -1.62605 -3.14648 -0.24995
H -3.24485 -6.73904 -7.38843
H -4.59705 -7.77448 -6.78926
H -3.39194 -7.07691 -5.62084
H -3.88545 -5.09 -1.55512
H -3.3182 -6.29649 -2.72065
H -6.22539 -6.51885 -1.63268
H -5.26003 -7.7188 -2.50348
$end

$opt
CONSTRAINT
tors           1           2           3           4     +99.002
tors           3           4           5           6    +151.328
tors           4           5           6           7    +178.833
tors           5           6           7           8     +58.960
tors           6           7           8           9    -161.053
tors           7           8           9          10     +59.240
tors           8           9          10          11    -173.691
tors           9          10          11          12     +21.615
tors          11          12          13          14     +33.279
ENDCONSTRAINT
$end

$rem
JOBTYPE                   OPT
METHOD                    B3LYP
DFT_D                     d3_op
BASIS                     STO-3G
GEOM_OPT_MAX_CYCLES       100
GEOM_OPT_TOL_GRADIENT     300
GEOM_OPT_TOL_DISPLACEMENT 1200
GEOM_OPT_TOL_ENERGY       100
SYMMETRY                  False
THRESH                    12
SCF_CONVERGENCE           8
MAX_SUB_FILE_NUM          128
MEM_STATIC                400
MEM_TOTAL                 4000
$end
--------------------------------------------------------------

   16   -1510.1233502176      1.93E-09 Convergence criterion met
 Total energy in the final basis set = -1510.12335022
   14   -1510.1953885424      7.26E-09 Convergence criterion met
 Total energy in the final basis set = -1510.19538854
   14   -1510.2350677704      1.81E-09 Convergence criterion met
 Total energy in the final basis set = -1510.23506777
   14   -1510.2566660226      5.33E-09 Convergence criterion met
 Total energy in the final basis set = -1510.25666602
   13   -1510.2657832736      7.10E-09 Convergence criterion met
 Total energy in the final basis set = -1510.26578327
   13   -1510.2706912238      7.42E-09 Convergence criterion met
 Total energy in the final basis set = -1510.27069122
   13   -1510.2734267146      2.76E-09 Convergence criterion met
 Total energy in the final basis set = -1510.27342671
   13   -1510.2748211878      3.11E-09 Convergence criterion met
   11   -1510.2751954893      7.54E-09 Convergence criterion met
 Total energy in the final basis set = -1510.27519549
   11   -1510.2752328058      9.34E-09 Convergence criterion met
 Total energy in the final basis set = -1510.27523281
   10   -1510.2752489657      9.43E-09 Convergence criterion met
 Total energy in the final basis set = -1510.27524897
   10   -1510.2752558745      5.36E-09 Convergence criterion met
 Total energy in the final basis set = -1510.27525587
    9   -1510.2752584555      6.59E-09 Convergence criterion met
 Total energy in the final basis set = -1510.27525846
    9   -1510.2752598497      6.71E-09 Convergence criterion met
 Total energy in the final basis set = -1510.27525985

             Standard Nuclear Orientation (Angstroms)
    I     Atom           X                Y                Z
 ----------------------------------------------------------------
    1      O       3.7004854954    -3.0847527547     0.1411562308
    2      C       3.8982349773    -1.8907055791     0.4530539389
    3      C       4.6843469084    -0.8214021648    -0.3879494778
    4      C       3.7611057917     0.1520545772    -1.2370515316
    5      C       2.2403633530     0.0101713631    -0.8591094195
    6      O       1.5906417933     1.2571566042    -1.0985032797
    7      C       0.1352664434     1.2315299860    -0.8002581494
    8      C      -0.2116038101     0.8498515088     0.6975643797
    9      O      -1.6115602996     0.3955313050     0.8788816415
   10      C      -1.9408055510    -0.7536298829     0.0960105818
   11      C      -3.4761352299    -1.0523093439     0.2357520131
   12      C      -4.4239689075     0.1267284168     0.6903243927
   13      C      -3.8745745480     1.5648156032     0.3685743201
   14      O      -3.1794189402     1.9316400663    -0.6022190047
   15      O       3.4705967761    -1.2950398644     1.6863925937
   16      O      -4.3505804945     2.4511904641     1.3910736219
   17      O      -1.1325288745    -1.4178241049    -0.5881063646
   18      C      -3.8830214794     3.8293968213     1.1187495803
   19      C      -4.1830439562    -1.5465167605    -1.1001838377
   20      C      -5.3453249459    -2.5221783468    -0.6713993605
   21      C      -6.3389045378    -1.5059838235     0.0070433837
   22      C      -5.6394593307    -0.1231717527    -0.3112040091
   23      O      -4.9249069411    -0.3608803568    -1.5885382953
   24      H      -3.5476292326    -1.8606628449     0.9892163962
   25      H      -4.7108047148     0.0668506573     1.7539753780
   26      H      -3.4876852402    -1.9281324334    -1.8731427552
   27      H      -5.7969138905    -2.9923032420    -1.5599785057
   28      H      -5.0038791070    -3.3143062748     0.0141561919
   29      H      -7.3401078322    -1.5471716596    -0.4501821284
   30      H      -6.4405178187    -1.6731563371     1.0916432828
   31      H      -6.3305067775     0.7367479744    -0.4091135089
   32      O       1.6832890910    -1.0219474163    -0.4230076097
   33      C       2.6195191242    -2.2506111003     2.4288342819
   34      C       5.4997598723     0.2285326526     0.4846589817
   35      C       6.6323459968     0.8392647240    -0.4307638233
   36      C       5.7805992744     1.7514233566    -1.3889952425
   37      C       4.3309456773     1.5616870257    -0.7908471782
   38      O       4.5630640639     1.3625619437     0.6593835371
   39      H       5.3589871552    -1.3782909112    -1.0620700673
   40      H       3.8722421701    -0.0234043196    -2.3232766629
   41      H       3.1502907595    -3.2026952516     2.6339968993
   42      H       5.8352982994    -0.1509908347     1.4687780766
   43      H       7.3336869394     1.4354958911     0.1748222181
   44      H       7.2007713808     0.0646889596    -0.9700342395
   45      H       6.0893978733     2.8068174000    -1.3260438014
   46      H       5.8376759589     1.4299984121    -2.4413924795
   47      H       3.6272928412     2.3986590290    -0.9614620362
   48      H       1.6922509498    -2.4784871838     1.8632754355
   49      H       2.3617481085    -1.7555902183     3.3831879307
   50      H      -4.2838535307     4.4565182547     1.9361789785
   51      H      -4.2578460213     4.2052972606     0.1446770933
   52      H      -2.7754361592     3.8901861480     1.1143819622
   53      H       0.4897457194     0.0481391432     1.0147356089
   54      H      -0.1014233446     1.7267353560     1.3647908156
   55      H      -0.3658408364     0.4963830969    -1.4652681082
   56      H      -0.2321086083     2.2481163173    -1.0412140246
 ----------------------------------------------------------------

    9   -1510.2752602975      2.78E-09 Convergence criterion met
 Total energy in the final basis set = -1510.27526030
 Final energy is   -1510.27526029745
 **  OPTIMIZATION CONVERGED  **

                    Orbital Energies (a.u.)
 --------------------------------------------------------------

 Alpha MOs
 -- Occupied --
-18.939 -18.936 -18.930 -18.918 -18.887 -18.883 -18.882 -18.876
-18.867 -18.858 -10.104 -10.102 -10.096 -10.087 -10.071 -10.070
-10.063 -10.060 -10.059 -10.056 -10.055 -10.052 -10.037 -10.037
-10.036 -10.030 -10.021 -10.019 -10.018 -10.017  -1.017  -1.012
 -1.004  -0.996  -0.970  -0.966  -0.942  -0.938  -0.930  -0.922
 -0.763  -0.759  -0.726  -0.721  -0.711  -0.704  -0.693  -0.662
 -0.650  -0.620  -0.596  -0.585  -0.544  -0.542  -0.537  -0.534
 -0.512  -0.509  -0.483  -0.473  -0.463  -0.459  -0.451  -0.445
 -0.432  -0.430  -0.424  -0.411  -0.408  -0.404  -0.401  -0.392
 -0.388  -0.376  -0.374  -0.363  -0.362  -0.359  -0.352  -0.347
 -0.339  -0.337  -0.331  -0.330  -0.327  -0.324  -0.322  -0.312
 -0.310  -0.306  -0.303  -0.297  -0.295  -0.288  -0.278  -0.272
 -0.271  -0.261  -0.251  -0.243  -0.236  -0.233  -0.230  -0.194
 -0.176  -0.165  -0.163  -0.157  -0.150  -0.147  -0.142  -0.141
 -0.137

          Ground-State Mulliken Net Atomic Charges

     Atom                 Charge (a.u.)
  ----------------------------------------
      1 O                    -0.215599
      2 C                     0.212491
      3 C                    -0.082026
      4 C                    -0.076769
      5 C                     0.216789
      6 O                    -0.171067
      7 C                    -0.052122
      8 C                    -0.053024
      9 O                    -0.172140
     10 C                     0.213025
     11 C                    -0.080020
     12 C                    -0.077124
     13 C                     0.216851
     14 O                    -0.217807
     15 O                    -0.173960
     16 O                    -0.172131
     17 O                    -0.206960
     18 C                    -0.128514
     19 C                     0.025012
     20 C                    -0.141611
     21 C                    -0.145303
     22 C                     0.024565
     23 O                    -0.188691
     24 H                     0.083712
     25 H                     0.087520
     26 H                     0.090392
     27 H                     0.078406
     28 H                     0.074065
     29 H                     0.078223
     30 H                     0.073739
     31 H                     0.081745
     32 O                    -0.202935
     33 C                    -0.129271
     34 C                     0.025361
     35 C                    -0.143398
     36 C                    -0.144965
     37 C                     0.022696
     38 O                    -0.190697
     39 H                     0.082504
     40 H                     0.086552
     41 H                     0.086981
     42 H                     0.085784
     43 H                     0.076924
     44 H                     0.073307
     45 H                     0.077306
     46 H                     0.073157
     47 H                     0.090727
     48 H                     0.092596
     49 H                     0.085711
     50 H                     0.089268
     51 H                     0.087986
     52 H                     0.086747
     53 H                     0.101032
     54 H                     0.089506
     55 H                     0.100165
     56 H                     0.095291
  ----------------------------------------
  Sum of atomic charges =     0.000000

                    Cartesian Multipole Moments
 -----------------------------------------------------------------
    Charge (ESU x 10^10)
                 0.0000
    Dipole Moment (Debye)
         X      -0.7888      Y       1.4638      Z       1.2099
       Tot       2.0564
    Quadrupole Moments (Debye-Ang)
        XX    -141.2620     XY       6.0392     YY    -159.6577
        XZ     -10.1948     YZ      -3.3867     ZZ    -158.7346

 Total job time:  47.57s(wall), 2261.30s(cpu)
        *  Thank you very much for using Q-Chem.  Have a nice day.  *
