 Q-Chem 5.0, Q-Chem, Inc., Pleasanton, CA (2017)
 Q-Chem 5.0.1 for Intel X86 EM64T Linux

User input:
--------------------------------------------------------------
$molecule
0  1
O -3.94934 -3.66094 2.70899
C -3.26408 -4.56952 2.26188
C -3.36658 -6.02376 2.66595
C -2.14191 -6.91468 2.40081
C -0.88858 -6.21407 1.92497
O 0.00459 -6.11174 2.95317
C 1.28894 -5.63489 2.53806
C 1.99771 -4.95181 3.70304
O 3.14917 -4.23867 3.22506
C 3.26785 -2.96126 3.66468
C 4.08245 -2.09267 2.73589
C 3.75934 -0.59286 2.80258
C 2.954 -0.14325 4.00507
O 3.24615 -0.35488 5.17316
O -2.53698 -4.28011 1.15147
O 1.81409 0.54413 3.73195
O 3.11659 -2.74018 4.85565
C 0.94811 1.02535 4.69138
C 5.58442 -2.06428 3.0899
C 6.39345 -1.68548 1.85002
C 6.01493 -0.22461 1.70141
C 5.17993 -0.02776 2.9729
O 5.74646 -0.92475 3.8977
H 3.97451 -2.50346 1.70538
H 3.25066 -0.22858 1.88217
H 5.95325 -3.02331 3.5152
H 7.46769 -1.7466 2.13804
H 6.22285 -2.31331 0.94916
H 6.94574 0.38385 1.73465
H 5.42661 0.02375 0.7915
H 5.17039 1.04301 3.27564
O -0.63558 -6.00163 0.74387
C -2.40317 -3.02216 0.59966
C -3.51279 -6.18934 4.19568
C -4.2207 -7.5059 4.50603
C -3.13925 -8.49609 4.13743
C -1.98677 -7.53606 3.81512
O -2.20978 -6.43475 4.65783
H -4.29635 -6.4053 2.18767
H -2.3439 -7.72645 1.66745
H -1.93747 -2.33102 1.3344
H -4.05203 -5.34999 4.6867
H -4.37225 -7.53968 5.60907
H -5.19771 -7.6584 3.99901
H -2.90541 -9.10946 5.03597
H -3.37334 -9.15745 3.27536
H -1.01896 -8.06898 3.94461
H -3.39583 -2.63079 0.29029
H -1.74998 -3.08553 -0.29465
H 0.10421 1.5443 4.19237
H 1.47246 1.74828 5.3523
H 0.54422 0.18626 5.29742
H 1.26734 -4.27002 4.20111
H 2.30587 -5.72657 4.43674
H 1.16565 -4.81614 1.78952
H 1.90334 -6.44569 2.08986
$end

$opt
CONSTRAINT
tors           1           2           3           4    -158.648
tors           3           4           5           6    +103.476
tors           4           5           6           7    +171.521
tors           5           6           7           8    +154.184
tors           6           7           8           9    -168.147
tors           7           8           9          10    +131.609
tors           8           9          10          11    -155.256
tors           9          10          11          12    +154.117
tors          11          12          13          14     +54.033
ENDCONSTRAINT
$end

$rem
JOBTYPE                   OPT
METHOD                    B3LYP
DFT_D                     d3_op
BASIS                     STO-3G
GEOM_OPT_MAX_CYCLES       100
GEOM_OPT_TOL_GRADIENT     300
GEOM_OPT_TOL_DISPLACEMENT 1200
GEOM_OPT_TOL_ENERGY       100
SYMMETRY                  False
THRESH                    12
SCF_CONVERGENCE           8
MAX_SUB_FILE_NUM          128
MEM_STATIC                400
MEM_TOTAL                 4000
$end
--------------------------------------------------------------

   15   -1510.1229984637      6.24E-09 Convergence criterion met
 Total energy in the final basis set = -1510.12299846
   14   -1510.1952779371      5.14E-09 Convergence criterion met
 Total energy in the final basis set = -1510.19527794
   14   -1510.2340545019      4.13E-09 Convergence criterion met
 Total energy in the final basis set = -1510.23405450
   14   -1510.2518830694      7.40E-09 Convergence criterion met
 Total energy in the final basis set = -1510.25188307
   14   -1510.2588029515      3.96E-09 Convergence criterion met
 Total energy in the final basis set = -1510.25880295
   13   -1510.2620908248      8.64E-09 Convergence criterion met
 Total energy in the final basis set = -1510.26209082
   13   -1510.2639118214      4.56E-09 Convergence criterion met
 Total energy in the final basis set = -1510.26391182
   13   -1510.2648123135      4.85E-09 Convergence criterion met
   11   -1510.2684065930      9.38E-09 Convergence criterion met
 Total energy in the final basis set = -1510.26840659
   11   -1510.2684682668      4.89E-09 Convergence criterion met
 Total energy in the final basis set = -1510.26846827
   11   -1510.2685050073      3.68E-09 Convergence criterion met
 Total energy in the final basis set = -1510.26850501
   11   -1510.2685212227      4.43E-09 Convergence criterion met
 Total energy in the final basis set = -1510.26852122
   10   -1510.2685317054      7.36E-09 Convergence criterion met
 Total energy in the final basis set = -1510.26853171
    9   -1510.2685342508      7.34E-09 Convergence criterion met
 Total energy in the final basis set = -1510.26853425

             Standard Nuclear Orientation (Angstroms)
    I     Atom           X                Y                Z
 ----------------------------------------------------------------
    1      O       3.8216068264    -2.8552251398    -0.1472659078
    2      C       3.7012189667    -1.6731489898    -0.5362138148
    3      C       4.8536363620    -0.5977162079    -0.5630267295
    4      C       4.4174271181     0.9289745905    -0.5839991162
    5      C       2.9461287949     1.2270506574    -1.0498064138
    6      O       2.1360926193     1.5247016018     0.0983082460
    7      C       0.8011131609     2.0062259919    -0.3287758368
    8      C      -0.1872923559     1.6733162837     0.8391364872
    9      O      -1.5699302695     1.8730264519     0.3399053461
   10      C      -2.3934472999     0.7392176942     0.6703843366
   11      C      -3.5633763664     0.7019010898    -0.3739969963
   12      C      -4.2149417908    -0.7148124589    -0.6453835456
   13      C      -3.9984331277    -1.7871560879     0.4826844348
   14      O      -4.2578397366    -1.6957928044     1.7001003552
   15      O       2.4642325406    -1.1134075464    -0.9766263739
   16      O      -3.4285759514    -2.9545804463    -0.1298824318
   17      O      -2.0801838136    -0.1030223455     1.5383248998
   18      C      -3.1981325993    -3.9973945880     0.8964395650
   19      C      -4.8514724448     1.5783124811    -0.0188692571
   20      C      -5.5106565975     1.9969818057    -1.3901843874
   21      C      -6.0820951323     0.6121036541    -1.8727848592
   22      C      -5.7554301769    -0.3106659865    -0.6313807732
   23      O      -5.8208224805     0.6060545688     0.5305922357
   24      H      -3.1222220225     1.0862299018    -1.3110958719
   25      H      -3.8880544745    -1.1391464199    -1.6104215285
   26      H      -4.6721770306     2.4026581195     0.6981665719
   27      H      -6.3176312949     2.7273382892    -1.2186525069
   28      H      -4.7816572169     2.4303033327    -2.0933483509
   29      H      -7.1690588411     0.6582789511    -2.0444830497
   30      H      -5.5957800504     0.2497057876    -2.7926583404
   31      H      -6.4462250685    -1.1640840792    -0.4883918643
   32      O       2.5587855553     1.3584944384    -2.2313364709
   33      C       1.3633547334    -2.0938695886    -0.8432064336
   34      C       5.5714453315    -0.6636498675     0.8519376878
   35      C       6.8992404825     0.1912781828     0.8247550750
   36      C       6.3291800368     1.6535180428     0.9459061790
   37      C       4.7774567804     1.3697474511     0.9011066718
   38      O       4.6458347447     0.1279509637     1.6979236450
   39      H       5.5396973069    -0.8354297748    -1.3968111266
   40      H       5.0631169171     1.4641284395    -1.3043199457
   41      H       1.2390882811    -2.4234275702     0.2085153930
   42      H       5.6739861838    -1.6945109006     1.2441035200
   43      H       7.5432591580    -0.0666919062     1.6802230558
   44      H       7.4698310767     0.0348771402    -0.1051189163
   45      H       6.6055646059     2.1127143636     1.9084703857
   46      H       6.6618969798     2.3134050773     0.1289140910
   47      H       4.1278637245     2.1658634551     1.3115360019
   48      H       1.5340594415    -2.9870973286    -1.4781598202
   49      H       0.4494988905    -1.5696242833    -1.1786646589
   50      H      -2.7407867779    -4.8534404579     0.3668821081
   51      H      -4.1466259456    -4.3201623267     1.3724060626
   52      H      -2.5117731211    -3.6403215212     1.6912782475
   53      H      -0.0563071640     0.6235461085     1.1787851413
   54      H       0.0021898214     2.3419340612     1.7063705456
   55      H       0.4881735059     1.4978275933    -1.2662780602
   56      H       0.8283320243     3.1005787191    -0.5234150015
 ----------------------------------------------------------------

    9   -1510.2685344493      4.66E-09 Convergence criterion met
 Total energy in the final basis set = -1510.26853445
 Final energy is   -1510.26853444934
 **  OPTIMIZATION CONVERGED  **

                    Orbital Energies (a.u.)
 --------------------------------------------------------------

 Alpha MOs
 -- Occupied --
-18.946 -18.928 -18.927 -18.927 -18.891 -18.886 -18.885 -18.878
-18.870 -18.864 -10.104 -10.103 -10.099 -10.092 -10.071 -10.070
-10.070 -10.063 -10.062 -10.059 -10.059 -10.058 -10.041 -10.040
-10.038 -10.036 -10.022 -10.021 -10.021 -10.020  -1.019  -1.014
 -1.005  -1.003  -0.972  -0.970  -0.941  -0.940  -0.931  -0.927
 -0.765  -0.763  -0.727  -0.723  -0.716  -0.706  -0.694  -0.667
 -0.659  -0.615  -0.598  -0.578  -0.546  -0.545  -0.539  -0.538
 -0.519  -0.512  -0.486  -0.472  -0.465  -0.461  -0.451  -0.443
 -0.439  -0.435  -0.432  -0.417  -0.411  -0.410  -0.407  -0.402
 -0.395  -0.388  -0.374  -0.366  -0.363  -0.356  -0.353  -0.346
 -0.341  -0.336  -0.333  -0.331  -0.330  -0.327  -0.324  -0.314
 -0.313  -0.307  -0.306  -0.302  -0.299  -0.293  -0.282  -0.278
 -0.271  -0.254  -0.250  -0.246  -0.242  -0.235  -0.234  -0.185
 -0.180  -0.174  -0.168  -0.159  -0.158  -0.149  -0.147  -0.142
 -0.141

          Ground-State Mulliken Net Atomic Charges

     Atom                 Charge (a.u.)
  ----------------------------------------
      1 O                    -0.213158
      2 C                     0.213533
      3 C                    -0.076764
      4 C                    -0.081577
      5 C                     0.219584
      6 O                    -0.175644
      7 C                    -0.049107
      8 C                    -0.051313
      9 O                    -0.180408
     10 C                     0.209103
     11 C                    -0.079773
     12 C                    -0.080014
     13 C                     0.210226
     14 O                    -0.201547
     15 O                    -0.166414
     16 O                    -0.174320
     17 O                    -0.203338
     18 C                    -0.129685
     19 C                     0.027090
     20 C                    -0.142101
     21 C                    -0.145359
     22 C                     0.026348
     23 O                    -0.183893
     24 H                     0.086107
     25 H                     0.085405
     26 H                     0.086054
     27 H                     0.078658
     28 H                     0.074540
     29 H                     0.078656
     30 H                     0.073957
     31 H                     0.083198
     32 O                    -0.221566
     33 C                    -0.125204
     34 C                     0.023898
     35 C                    -0.145145
     36 C                    -0.143096
     37 C                     0.024039
     38 O                    -0.190967
     39 H                     0.086445
     40 H                     0.083411
     41 H                     0.094046
     42 H                     0.089114
     43 H                     0.078716
     44 H                     0.073478
     45 H                     0.077907
     46 H                     0.073051
     47 H                     0.089490
     48 H                     0.092185
     49 H                     0.092187
     50 H                     0.087613
     51 H                     0.087626
     52 H                     0.091832
     53 H                     0.099554
     54 H                     0.085930
     55 H                     0.094278
     56 H                     0.083136
  ----------------------------------------
  Sum of atomic charges =    -0.000000

                    Cartesian Multipole Moments
 -----------------------------------------------------------------
    Charge (ESU x 10^10)
                 0.0000
    Dipole Moment (Debye)
         X       1.0464      Y       0.8598      Z      -2.6314
       Tot       2.9595
    Quadrupole Moments (Debye-Ang)
        XX    -149.3633     XY       5.6925     YY    -153.6501
        XZ      11.4369     YZ       3.0359     ZZ    -168.7409

 Total job time:  59.95s(wall), 2854.77s(cpu)
        *  Thank you very much for using Q-Chem.  Have a nice day.  *
