 Q-Chem 5.0, Q-Chem, Inc., Pleasanton, CA (2017)
 Q-Chem 5.0.1 for Intel X86 EM64T Linux

User input:
--------------------------------------------------------------
$molecule
0  1
O 3.8216068264 -2.8552251398 -0.1472659078
C 3.7012189667 -1.6731489898 -0.5362138148
C 4.853636362 -0.5977162079 -0.5630267295
C 4.4174271181 0.9289745905 -0.5839991162
C 2.9461287949 1.2270506574 -1.0498064138
O 2.1360926193 1.5247016018 0.098308246
C 0.8011131609 2.0062259919 -0.3287758368
C -0.1872923559 1.6733162837 0.8391364872
O -1.5699302695 1.8730264519 0.3399053461
C -2.3934472999 0.7392176942 0.6703843366
C -3.5633763664 0.7019010898 -0.3739969963
C -4.2149417908 -0.7148124589 -0.6453835456
C -3.9984331277 -1.7871560879 0.4826844348
O -4.2578397366 -1.6957928044 1.7001003552
O 2.4642325406 -1.1134075464 -0.9766263739
O -3.4285759514 -2.9545804463 -0.1298824318
O -2.0801838136 -0.1030223455 1.5383248998
C -3.1981325993 -3.997394588 0.896439565
C -4.8514724448 1.5783124811 -0.0188692571
C -5.5106565975 1.9969818057 -1.3901843874
C -6.0820951323 0.6121036541 -1.8727848592
C -5.7554301769 -0.3106659865 -0.6313807732
O -5.8208224805 0.6060545688 0.5305922357
H -3.1222220225 1.0862299018 -1.3110958719
H -3.8880544745 -1.1391464199 -1.6104215285
H -4.6721770306 2.4026581195 0.6981665719
H -6.3176312949 2.7273382892 -1.2186525069
H -4.7816572169 2.4303033327 -2.0933483509
H -7.1690588411 0.6582789511 -2.0444830497
H -5.5957800504 0.2497057876 -2.7926583404
H -6.4462250685 -1.1640840792 -0.4883918643
O 2.5587855553 1.3584944384 -2.2313364709
C 1.3633547334 -2.0938695886 -0.8432064336
C 5.5714453315 -0.6636498675 0.8519376878
C 6.8992404825 0.1912781828 0.824755075
C 6.3291800368 1.6535180428 0.945906179
C 4.7774567804 1.3697474511 0.9011066718
O 4.6458347447 0.1279509637 1.697923645
H 5.5396973069 -0.8354297748 -1.3968111266
H 5.0631169171 1.4641284395 -1.3043199457
H 1.2390882811 -2.4234275702 0.208515393
H 5.6739861838 -1.6945109006 1.24410352
H 7.543259158 -0.0666919062 1.6802230558
H 7.4698310767 0.0348771402 -0.1051189163
H 6.6055646059 2.1127143636 1.9084703857
H 6.6618969798 2.3134050773 0.128914091
H 4.1278637245 2.1658634551 1.3115360019
H 1.5340594415 -2.9870973286 -1.4781598202
H 0.4494988905 -1.5696242833 -1.1786646589
H -2.7407867779 -4.8534404579 0.3668821081
H -4.1466259456 -4.3201623267 1.3724060626
H -2.5117731211 -3.6403215212 1.6912782475
H -0.056307164 0.6235461085 1.1787851413
H 0.0021898214 2.3419340612 1.7063705456
H 0.4881735059 1.4978275933 -1.2662780602
H 0.8283320243 3.1005787191 -0.5234150015
$end

$rem
JOBTYPE                   OPT
METHOD                    B3LYP
DFT_D                     d3_op
BASIS                     STO-3G
GEOM_OPT_MAX_CYCLES       100
GEOM_OPT_TOL_GRADIENT     300
GEOM_OPT_TOL_DISPLACEMENT 1200
GEOM_OPT_TOL_ENERGY       100
SYMMETRY                  False
THRESH                    12
SCF_CONVERGENCE           8
MAX_SUB_FILE_NUM          128
MEM_STATIC                400
MEM_TOTAL                 4000
$end
--------------------------------------------------------------

   16   -1510.2686831694      6.02E-09 Convergence criterion met
 Total energy in the final basis set = -1510.26868317
   14   -1510.2727556764      1.51E-09 Convergence criterion met
 Total energy in the final basis set = -1510.27275568
   14   -1510.2759310779      6.31E-09 Convergence criterion met
 Total energy in the final basis set = -1510.27593108
   15   -1510.2777717039      3.60E-09 Convergence criterion met
 Total energy in the final basis set = -1510.27777170
   14   -1510.2796597900      2.22E-09 Convergence criterion met
 Total energy in the final basis set = -1510.27965979
   13   -1510.2816163975      3.15E-09 Convergence criterion met
 Total energy in the final basis set = -1510.28161640
   13   -1510.2836831263      5.25E-09 Convergence criterion met
 Total energy in the final basis set = -1510.28368313
   13   -1510.2857585776      4.25E-09 Convergence criterion met
   10   -1510.2936865467      6.26E-09 Convergence criterion met
 Total energy in the final basis set = -1510.29368655
   10   -1510.2936910168      8.01E-09 Convergence criterion met
 Total energy in the final basis set = -1510.29369102
   11   -1510.2936924175      9.98E-09 Convergence criterion met
 Total energy in the final basis set = -1510.29369242
    9   -1510.2936953725      8.07E-09 Convergence criterion met
 Total energy in the final basis set = -1510.29369537
    9   -1510.2936929742      8.19E-09 Convergence criterion met
 Total energy in the final basis set = -1510.29369297
    9   -1510.2936941414      6.10E-09 Convergence criterion met
 Total energy in the final basis set = -1510.29369414

             Standard Nuclear Orientation (Angstroms)
    I     Atom           X                Y                Z
 ----------------------------------------------------------------
    1      O       2.0386984050    -1.2424023480     1.4237865214
    2      C       2.7283041796    -1.1425578910     0.3869707860
    3      C       4.2385837520    -0.7155717552     0.2685829847
    4      C       4.4979063010     0.4650957170    -0.7598748623
    5      C       3.1666245025     1.0471131423    -1.3393131457
    6      O       2.2939115891     1.2725163784    -0.2231281701
    7      C       0.9437646161     1.6765679070    -0.6732763845
    8      C       0.0384904724     1.5768734967     0.6041246101
    9      O      -1.3815828941     1.8093405534     0.2444548150
   10      C      -2.0509366181     0.5788753049    -0.0231423066
   11      C      -3.5204708267     0.9073075709    -0.4456427340
   12      C      -4.4071403773    -0.3750027924    -0.7226553058
   13      C      -3.6744238764    -1.7494694466    -0.4993287187
   14      O      -3.7371977750    -2.4849059452     0.5082065797
   15      O       2.2781870061    -1.4902443144    -0.9282062444
   16      O      -3.0124447295    -2.1063809680    -1.7225834288
   17      O      -1.5291312104    -0.5559531737     0.0859829658
   18      C      -2.3327316189    -3.4098289342    -1.5540045815
   19      C      -4.3372567392     1.5920842738     0.7374752252
   20      C      -5.6324214298     2.2528564121     0.1219912723
   21      C      -6.5164074298     0.9813146758    -0.1595732283
   22      C      -5.5628757830    -0.1712774813     0.3452977198
   23      O      -4.8598241878     0.4377390605     1.4993614745
   24      H      -3.4784033052     1.5697135288    -1.3294764979
   25      H      -4.7937646546    -0.3589521307    -1.7572062477
   26      H      -3.7273339243     2.2510203030     1.3857164983
   27      H      -6.1077192264     2.9216411266     0.8570382483
   28      H      -5.4101348269     2.8302134986    -0.7897864635
   29      H      -7.4464330107     0.9981379973     0.4303566096
   30      H      -6.7750729416     0.8693531968    -1.2245848311
   31      H      -6.0641347897    -1.1087746755     0.6543668974
   32      O       2.8703177466     1.2917730753    -2.5270636101
   33      C       0.9048688618    -2.0461558753    -0.8863979863
   34      C       4.7837688710    -0.0829080535     1.6140046062
   35      C       6.3599787140    -0.1416305928     1.5763683846
   36      C       6.6748571789     0.9785339225     0.5152690742
   37      C       5.2230211257     1.5148252115     0.1911411852
   38      O       4.4956819584     1.3640737181     1.4700609117
   39      H       4.8216628638    -1.6103998066    -0.0169781757
   40      H       5.1388150022     0.1524410391    -1.6023007083
   41      H       0.1544035056    -1.3463968337    -0.4510946134
   42      H       4.3005936562    -0.4845709365     2.5259731763
   43      H       6.7787117416     0.1109034815     2.5635901864
   44      H       6.7347283493    -1.1330691532     1.2755436811
   45      H       7.2944693394     1.7819013418     0.9444233531
   46      H       7.1795719503     0.5852759866    -0.3818673778
   47      H       5.1767751026     2.5633546582    -0.1624094511
   48      H       0.8782269157    -2.9909374812    -0.3064549493
   49      H       0.6401198433    -2.2593965732    -1.9380340860
   50      H      -1.7560171437    -3.5795811628    -2.4818832939
   51      H      -3.0620612747    -4.2350795523    -1.4178299768
   52      H      -1.6470766064    -3.4009277769    -0.6833137070
   53      H       0.1716095782     0.5755927542     1.0685615247
   54      H       0.3141522913     2.3653371157     1.3324549317
   55      H       0.5716902566     0.9941256327    -1.4684548708
   56      H       0.9463530448     2.7118539144    -1.0789987472
 ----------------------------------------------------------------

    9   -1510.2936936076      2.18E-09 Convergence criterion met
 Total energy in the final basis set = -1510.29369361
 Final energy is   -1510.29369360758
 **  OPTIMIZATION CONVERGED  **

                    Orbital Energies (a.u.)
 --------------------------------------------------------------

 Alpha MOs
 -- Occupied --
-18.950 -18.935 -18.924 -18.922 -18.898 -18.889 -18.887 -18.878
-18.868 -18.863 -10.117 -10.101 -10.095 -10.092 -10.078 -10.076
-10.063 -10.061 -10.059 -10.056 -10.056 -10.046 -10.045 -10.037
-10.035 -10.034 -10.022 -10.021 -10.020 -10.019  -1.028  -1.016
 -1.001  -1.000  -0.972  -0.969  -0.953  -0.939  -0.929  -0.926
 -0.766  -0.763  -0.731  -0.723  -0.714  -0.705  -0.697  -0.658
 -0.652  -0.619  -0.597  -0.582  -0.547  -0.545  -0.539  -0.536
 -0.519  -0.510  -0.488  -0.476  -0.467  -0.459  -0.456  -0.443
 -0.434  -0.433  -0.429  -0.412  -0.409  -0.406  -0.404  -0.401
 -0.398  -0.380  -0.370  -0.369  -0.362  -0.358  -0.350  -0.348
 -0.345  -0.338  -0.336  -0.335  -0.331  -0.328  -0.325  -0.315
 -0.310  -0.307  -0.304  -0.303  -0.292  -0.291  -0.278  -0.276
 -0.273  -0.262  -0.251  -0.247  -0.244  -0.236  -0.233  -0.192
 -0.178  -0.175  -0.167  -0.164  -0.156  -0.146  -0.146  -0.143
 -0.143

          Ground-State Mulliken Net Atomic Charges

     Atom                 Charge (a.u.)
  ----------------------------------------
      1 O                    -0.216756
      2 C                     0.214541
      3 C                    -0.078138
      4 C                    -0.078431
      5 C                     0.215068
      6 O                    -0.170490
      7 C                    -0.047369
      8 C                    -0.051410
      9 O                    -0.169454
     10 C                     0.220299
     11 C                    -0.077662
     12 C                    -0.081447
     13 C                     0.214619
     14 O                    -0.214706
     15 O                    -0.179619
     16 O                    -0.175291
     17 O                    -0.206474
     18 C                    -0.128530
     19 C                     0.025572
     20 C                    -0.143482
     21 C                    -0.144364
     22 C                     0.025673
     23 O                    -0.187267
     24 H                     0.087786
     25 H                     0.084403
     26 H                     0.087451
     27 H                     0.078993
     28 H                     0.073642
     29 H                     0.078684
     30 H                     0.073593
     31 H                     0.088752
     32 O                    -0.210193
     33 C                    -0.142883
     34 C                     0.024244
     35 C                    -0.143560
     36 C                    -0.144045
     37 C                     0.025649
     38 O                    -0.186992
     39 H                     0.083305
     40 H                     0.085840
     41 H                     0.105561
     42 H                     0.090571
     43 H                     0.077944
     44 H                     0.073207
     45 H                     0.077783
     46 H                     0.073683
     47 H                     0.081709
     48 H                     0.080723
     49 H                     0.083400
     50 H                     0.085393
     51 H                     0.084811
     52 H                     0.093069
     53 H                     0.109076
     54 H                     0.096540
     55 H                     0.089735
     56 H                     0.087245
  ----------------------------------------
  Sum of atomic charges =    -0.000000

                    Cartesian Multipole Moments
 -----------------------------------------------------------------
    Charge (ESU x 10^10)
                 0.0000
    Dipole Moment (Debye)
         X       0.4470      Y       0.9816      Z      -2.0610
       Tot       2.3262
    Quadrupole Moments (Debye-Ang)
        XX    -138.5052     XY      -8.8742     YY    -155.1148
        XZ       9.7778     YZ       4.2415     ZZ    -169.8843

 Total job time:  96.53s(wall), 4600.86s(cpu)
        *  Thank you very much for using Q-Chem.  Have a nice day.  *
