 Q-Chem 5.0, Q-Chem, Inc., Pleasanton, CA (2017)
 Q-Chem 5.0.1 for Intel X86 EM64T Linux

User input:
--------------------------------------------------------------
$molecule
0  1
O -2.2339817179 -1.7204849044 1.0402715908
C -3.3278453989 -1.4376039443 0.5001613766
C -4.3435260289 -0.3295609107 0.9465807301
C -4.0547302061 1.1273477482 0.3682331884
C -2.7655734344 1.2850434343 -0.5240176604
O -1.5724888283 1.0785702777 0.2597577325
C -0.6147973728 0.1973197735 -0.4577349399
C 0.8361252011 0.5640736525 0.0127554308
O 1.743450628 0.2333853271 -1.127262387
C 2.8826111192 1.109256644 -1.1741444642
C 3.8069908529 1.2594414763 0.1100216445
C 3.9769135516 0.0431111473 1.124428652
C 3.2558343867 -1.3038529502 0.7620975837
O 2.1001746591 -1.6520037139 1.1041984069
O -3.8155752153 -2.0810313038 -0.6797571337
O 4.0983075868 -2.0923470803 -0.0740825925
O 3.2079902018 1.605452407 -2.275817441
C 3.3877151539 -3.324466661 -0.4906048634
C 5.3139007745 1.5071904973 -0.3259656957
C 6.0534941312 2.2580559279 0.8480524848
C 6.2031193473 1.0944378133 1.8976025585
C 5.5593570344 -0.1157160815 1.1095208264
O 5.9129667879 0.1539435976 -0.3018697879
H 3.4281321392 2.1329497912 0.6742222538
H 3.6077398329 0.3405421009 2.1226788758
H 5.4049538434 1.961217121 -1.3323512259
H 7.0356120506 2.6264528625 0.5111294815
H 5.4688336902 3.1089478101 1.2320471378
H 7.2609142453 0.8853100268 2.1225126841
H 5.6754194034 1.3018161261 2.8423058847
H 5.9155670951 -1.1186646817 1.4135775466
O -2.7594063813 1.4962675459 -1.7562749125
C -2.8493742576 -3.1024925128 -1.1461938935
C -5.8037242672 -0.5794234523 0.3749251661
C -6.824728619 0.3251988948 1.1734103706
C -6.5405515136 1.7386293727 0.5428431998
C -5.378970178 1.3895562219 -0.466905247
O -5.7517101063 0.045872486 -0.9663572064
H -4.3288059605 -0.3019948313 2.0510069467
H -3.9708550149 1.8382353579 1.21139718
H -2.5726428884 -3.8060753363 -0.3351832161
H -6.0823823167 -1.6473604979 0.2941929016
H -7.8586572243 -0.0028151916 0.9819269504
H -6.6412163129 0.2980288556 2.2593904161
H -7.4191687714 2.1205117066 -0.0011345163
H -6.2354024336 2.4874425492 1.2913082192
H -5.2434309863 2.0916389067 -1.312216265
H -1.9235616989 -2.6346223666 -1.5392935043
H -3.3565311295 -3.6497686109 -1.9618810288
H 4.0805886238 -3.8591319418 -1.1658216051
H 2.4489959753 -3.0845468638 -1.0301328971
H 3.142599453 -3.9684168783 0.3787112752
H 0.8726180071 1.6443893356 0.2649059933
H 1.1195289985 -0.0547657567 0.8941933909
H -0.6976398024 0.3417290169 -1.5574261025
H -0.849524275 -0.8573158177 -0.1949222108
$end

$rem
JOBTYPE                   OPT
METHOD                    B3LYP
DFT_D                     d3_op
BASIS                     STO-3G
GEOM_OPT_MAX_CYCLES       100
GEOM_OPT_TOL_GRADIENT     300
GEOM_OPT_TOL_DISPLACEMENT 1200
GEOM_OPT_TOL_ENERGY       100
SYMMETRY                  False
THRESH                    12
SCF_CONVERGENCE           8
MAX_SUB_FILE_NUM          128
MEM_STATIC                400
MEM_TOTAL                 4000
$end
--------------------------------------------------------------

   16   -1510.2506296820      4.11E-09 Convergence criterion met
 Total energy in the final basis set = -1510.25062968
   14   -1510.2552266573      5.07E-09 Convergence criterion met
 Total energy in the final basis set = -1510.25522666
   14   -1510.2594915466      1.88E-09 Convergence criterion met
 Total energy in the final basis set = -1510.25949155
   13   -1510.2632823509      9.60E-09 Convergence criterion met
 Total energy in the final basis set = -1510.26328235
   13   -1510.2657923049      6.78E-09 Convergence criterion met
 Total energy in the final basis set = -1510.26579230
   13   -1510.2677290915      4.84E-09 Convergence criterion met
 Total energy in the final basis set = -1510.26772909
   13   -1510.2692029882      3.95E-09 Convergence criterion met
 Total energy in the final basis set = -1510.26920299
   13   -1510.2704730724      2.83E-09 Convergence criterion met
   11   -1510.2927852386      3.38E-09 Convergence criterion met
 Total energy in the final basis set = -1510.29278524
    9   -1510.2927873848      7.09E-09 Convergence criterion met
 Total energy in the final basis set = -1510.29278738
   10   -1510.2927888077      6.72E-09 Convergence criterion met
 Total energy in the final basis set = -1510.29278881
   11   -1510.2927888737      4.19E-09 Convergence criterion met
 Total energy in the final basis set = -1510.29278887
   11   -1510.2927882250      2.57E-09 Convergence criterion met
 Total energy in the final basis set = -1510.29278823
   10   -1510.2927880087      9.26E-09 Convergence criterion met
 Total energy in the final basis set = -1510.29278801

             Standard Nuclear Orientation (Angstroms)
    I     Atom           X                Y                Z
 ----------------------------------------------------------------
    1      O      -0.3229012412    -1.1942369773     1.7151294670
    2      C      -1.4137928866    -0.9232131051     1.1541741153
    3      C      -2.3721809748     0.2524981813     1.5281239034
    4      C      -2.7567402746     1.1867600842     0.3045855654
    5      C      -2.1587889267     0.7242407967    -1.0701353147
    6      O      -0.7339381412     0.6086688076    -0.9448039871
    7      C      -0.1324017325     0.1989096077    -2.2417598846
    8      C       0.7540900125     1.3796184429    -2.8059124636
    9      O       2.1969868899     1.0795324259    -2.9061885393
   10      C       2.9352373500     0.9766443262    -1.6727836622
   11      C       2.1908844774     0.9292062196    -0.2790212829
   12      C       2.1304150693    -0.5507690121     0.3051147391
   13      C       2.4457811378    -1.6449682899    -0.7556945096
   14      O       1.6172556831    -2.0823460078    -1.6039160037
   15      O      -1.9796850109    -1.6824564747     0.0933076691
   16      O       3.7825269012    -2.1034204753    -0.6654306498
   17      O       4.1771672900     0.8758252781    -1.7890725210
   18      C       4.0559673616    -3.1096611014    -1.7216189165
   19      C       3.0974569794     1.6234461665     0.8223733672
   20      C       2.2614369560     1.7363346071     2.1604150545
   21      C       2.3252834784     0.2569003572     2.6937719070
   22      C       3.1336144546    -0.4403463973     1.5289008898
   23      O       4.1136382095     0.5901464658     1.1205581513
   24      H       1.1754471332     1.3575078116    -0.3278901859
   25      H       1.1118074804    -0.7735957448     0.6895132682
   26      H       3.5859332468     2.5587620882     0.4870610646
   27      H       2.7408155940     2.4426344171     2.8566118622
   28      H       1.2291027681     2.0722417466     1.9712065618
   29      H       2.8767096503     0.1925100821     3.6449689250
   30      H       1.3248849221    -0.1936679628     2.8135794429
   31      H       3.6477448854    -1.3832560667     1.7959665724
   32      O      -2.7912220449     0.5166132456    -2.1280956591
   33      C      -1.0822105297    -2.8006873676    -0.2940327082
   34      C      -3.8154359854    -0.2595039071     1.9669434168
   35      C      -4.5443873334     0.9219016414     2.7205986921
   36      C      -4.9198973485     1.8638125975     1.5158542126
   37      C      -4.3345172998     1.0486985032     0.2975773409
   38      O      -4.5491771675    -0.3648154613     0.6880734559
   39      H      -1.8856267502     0.8282248164     2.3347468813
   40      H      -2.4320644428     2.2272627670     0.4916336713
   41      H      -0.8270274870    -3.4271759417     0.5840187877
   42      H      -3.8165668624    -1.2313579194     2.4975324541
   43      H      -5.4431498055     0.5499448447     3.2376992509
   44      H      -3.8885634995     1.4106451938     3.4585682731
   45      H      -6.0113418217     1.9743934576     1.4154435230
   46      H      -4.4701385151     2.8659219414     1.6020306453
   47      H      -4.7940315741     1.2498503235    -0.6896040048
   48      H      -0.1394597029    -2.4404654132    -0.7707113627
   49      H      -1.6576966898    -3.4000475032    -1.0224974112
   50      H       5.1157179750    -3.3968699877    -1.5957541403
   51      H       3.9008789756    -2.6820881872    -2.7326738326
   52      H       3.4082427512    -4.0025981675    -1.6071088193
   53      H       0.4585697652     1.5942743359    -3.8533404633
   54      H       0.5654501850     2.2977698916    -2.2063428172
   55      H      -0.9628310002    -0.0291578480    -2.9416009412
   56      H       0.4927639804    -0.7145562991    -2.0639648964
 ----------------------------------------------------------------

    9   -1510.2927878241      8.52E-09 Convergence criterion met
 Total energy in the final basis set = -1510.29278782
 Final energy is   -1510.29278782408
 **  OPTIMIZATION CONVERGED  **

                    Orbital Energies (a.u.)
 --------------------------------------------------------------

 Alpha MOs
 -- Occupied --
-18.955 -18.948 -18.935 -18.925 -18.895 -18.886 -18.886 -18.885
-18.879 -18.867 -10.113 -10.112 -10.108 -10.091 -10.073 -10.070
-10.068 -10.064 -10.057 -10.053 -10.051 -10.050 -10.047 -10.046
-10.029 -10.027 -10.025 -10.023 -10.013 -10.006  -1.025  -1.024
 -1.014  -0.999  -0.977  -0.962  -0.947  -0.946  -0.943  -0.928
 -0.772  -0.757  -0.732  -0.714  -0.714  -0.700  -0.699  -0.666
 -0.663  -0.618  -0.596  -0.588  -0.552  -0.543  -0.542  -0.531
 -0.519  -0.513  -0.489  -0.478  -0.476  -0.467  -0.453  -0.442
 -0.438  -0.429  -0.425  -0.419  -0.417  -0.415  -0.412  -0.396
 -0.392  -0.385  -0.381  -0.374  -0.372  -0.369  -0.361  -0.354
 -0.347  -0.339  -0.338  -0.333  -0.328  -0.324  -0.317  -0.311
 -0.311  -0.306  -0.304  -0.298  -0.295  -0.288  -0.283  -0.280
 -0.273  -0.262  -0.255  -0.251  -0.240  -0.235  -0.225  -0.192
 -0.189  -0.179  -0.169  -0.166  -0.161  -0.158  -0.150  -0.141
 -0.133

          Ground-State Mulliken Net Atomic Charges

     Atom                 Charge (a.u.)
  ----------------------------------------
      1 O                    -0.222756
      2 C                     0.219958
      3 C                    -0.079732
      4 C                    -0.078282
      5 C                     0.215756
      6 O                    -0.186289
      7 C                    -0.080451
      8 C                    -0.051885
      9 O                    -0.173160
     10 C                     0.197302
     11 C                    -0.089341
     12 C                    -0.094666
     13 C                     0.215563
     14 O                    -0.226371
     15 O                    -0.162137
     16 O                    -0.151509
     17 O                    -0.197836
     18 C                    -0.126133
     19 C                     0.026449
     20 C                    -0.144825
     21 C                    -0.148831
     22 C                     0.025765
     23 O                    -0.185205
     24 H                     0.089053
     25 H                     0.107261
     26 H                     0.082179
     27 H                     0.074998
     28 H                     0.068919
     29 H                     0.072968
     30 H                     0.087445
     31 H                     0.085158
     32 O                    -0.208425
     33 C                    -0.139584
     34 C                     0.026648
     35 C                    -0.143629
     36 C                    -0.144228
     37 C                     0.025115
     38 O                    -0.184526
     39 H                     0.084938
     40 H                     0.083961
     41 H                     0.085624
     42 H                     0.083961
     43 H                     0.079503
     44 H                     0.074102
     45 H                     0.079752
     46 H                     0.073478
     47 H                     0.092305
     48 H                     0.103898
     49 H                     0.091865
     50 H                     0.097336
     51 H                     0.096787
     52 H                     0.090424
     53 H                     0.091969
     54 H                     0.080647
     55 H                     0.098246
     56 H                     0.110467
  ----------------------------------------
  Sum of atomic charges =    -0.000000

                    Cartesian Multipole Moments
 -----------------------------------------------------------------
    Charge (ESU x 10^10)
                -0.0000
    Dipole Moment (Debye)
         X      -2.7260      Y       0.4155      Z       2.1603
       Tot       3.5029
    Quadrupole Moments (Debye-Ang)
        XX    -179.9229     XY     -13.1140     YY    -146.6882
        XZ      -4.7631     YZ       3.6081     ZZ    -160.9944

 Total job time:  262.12s(wall), 12497.43s(cpu)
        *  Thank you very much for using Q-Chem.  Have a nice day.  *
