 Q-Chem 5.0, Q-Chem, Inc., Pleasanton, CA (2017)
 Q-Chem 5.0.1 for Intel X86 EM64T Linux

User input:
--------------------------------------------------------------
$molecule
0  1
O -3.94934 -3.66094 2.70899
C -3.26408 -4.56952 2.26188
C -3.36658 -6.02376 2.66595
C -4.40587 -6.88575 1.93062
C -5.10267 -6.243 0.75188
O -5.8867 -5.21095 1.18267
C -5.75313 -4.03072 0.38362
C -7.04292 -3.21789 0.42692
O -7.18759 -2.46444 -0.78727
C -8.46407 -2.25071 -1.19232
C -9.31783 -1.60158 -0.12913
C -8.55956 -0.67788 0.83528
C -7.17058 -0.26055 0.39566
O -6.13461 -0.85135 0.66455
O -2.22789 -4.23767 1.4426
O -7.06328 0.89065 -0.3255
O -8.71285 -2.12664 -2.38137
C -5.87639 1.41072 -0.79804
C -10.41504 -0.65562 -0.65965
C -11.53568 -0.53981 0.37245
C -10.84461 0.27163 1.44695
C -9.50276 0.54985 0.75872
O -9.82892 0.61787 -0.60836
H -9.80852 -2.4413 0.41217
H -8.51106 -1.01815 1.89274
H -10.83712 -0.96392 -1.64057
H -12.33787 0.08407 -0.08341
H -11.9713 -1.50392 0.71253
H -11.41331 1.21718 1.59112
H -10.71011 -0.24449 2.42206
H -9.03832 1.46256 1.19409
O -4.94279 -6.55144 -0.4233
C -1.89658 -2.95135 1.06869
C -2.085 -6.83049 2.33352
C -1.99608 -8.07314 3.21962
C -3.0795 -8.93123 2.60816
C -3.50932 -8.03962 1.43977
O -2.32954 -7.3771 1.06256
H -3.47863 -6.03405 3.77317
H -5.20567 -7.2618 2.60676
H -1.65008 -2.34453 1.96592
H -1.14857 -6.24053 2.44201
H -1.01136 -8.55368 3.01975
H -2.09623 -7.88364 4.30997
H -2.61361 -9.86713 2.22656
H -3.92884 -9.17762 3.2815
H -3.9974 -8.65797 0.65439
H -2.73296 -2.47764 0.51462
H -1.00781 -2.98436 0.4059
H -6.08528 2.34978 -1.35022
H -5.39172 0.68872 -1.4896
H -5.19362 1.63729 0.04853
H -7.83846 -4.00186 0.40892
H -7.18273 -2.72795 1.40618
H -5.67425 -4.32693 -0.68851
H -4.86912 -3.40966 0.58301
$end

$opt
CONSTRAINT
tors           1           2           3           4     +85.906
tors           3           4           5           6     -66.334
tors           4           5           6           7    +134.742
tors           5           6           7           8    +151.932
tors           6           7           8           9    -151.764
tors           7           8           9          10    +148.663
tors           8           9          10          11     +54.721
tors           9          10          11          12     +30.207
tors          11          12          13          14     -91.021
ENDCONSTRAINT
$end

$rem
JOBTYPE                   OPT
METHOD                    B3LYP
DFT_D                     d3_op
BASIS                     STO-3G
GEOM_OPT_MAX_CYCLES       100
GEOM_OPT_TOL_GRADIENT     300
GEOM_OPT_TOL_DISPLACEMENT 1200
GEOM_OPT_TOL_ENERGY       100
SYMMETRY                  False
THRESH                    12
SCF_CONVERGENCE           8
MAX_SUB_FILE_NUM          128
MEM_STATIC                400
MEM_TOTAL                 4000
$end
--------------------------------------------------------------

   16   -1510.1013259400      2.18E-09 Convergence criterion met
 Total energy in the final basis set = -1510.10132594
   14   -1510.1741625581      1.93E-09 Convergence criterion met
 Total energy in the final basis set = -1510.17416256
   13   -1510.2129526971      9.71E-09 Convergence criterion met
 Total energy in the final basis set = -1510.21295270
   14   -1510.2327615637      3.15E-09 Convergence criterion met
 Total energy in the final basis set = -1510.23276156
   13   -1510.2414293879      7.53E-09 Convergence criterion met
 Total energy in the final basis set = -1510.24142939
   13   -1510.2458119868      4.25E-09 Convergence criterion met
 Total energy in the final basis set = -1510.24581199
   13   -1510.2483297832      2.81E-09 Convergence criterion met
 Total energy in the final basis set = -1510.24832978
   13   -1510.2495663047      3.03E-09 Convergence criterion met
   10   -1510.2506470356      7.43E-09 Convergence criterion met
 Total energy in the final basis set = -1510.25064704
   11   -1510.2506672002      2.42E-09 Convergence criterion met
 Total energy in the final basis set = -1510.25066720
   11   -1510.2506813045      2.30E-09 Convergence criterion met
 Total energy in the final basis set = -1510.25068130
   10   -1510.2506873456      6.95E-09 Convergence criterion met
 Total energy in the final basis set = -1510.25068735
    9   -1510.2506903922      4.59E-09 Convergence criterion met
 Total energy in the final basis set = -1510.25069039
    9   -1510.2506918742      4.42E-09 Convergence criterion met
 Total energy in the final basis set = -1510.25069187

             Standard Nuclear Orientation (Angstroms)
    I     Atom           X                Y                Z
 ----------------------------------------------------------------
    1      O      -2.2339817179    -1.7204849044     1.0402715908
    2      C      -3.3278453989    -1.4376039443     0.5001613766
    3      C      -4.3435260289    -0.3295609107     0.9465807301
    4      C      -4.0547302061     1.1273477482     0.3682331884
    5      C      -2.7655734344     1.2850434343    -0.5240176604
    6      O      -1.5724888283     1.0785702777     0.2597577325
    7      C      -0.6147973728     0.1973197735    -0.4577349399
    8      C       0.8361252011     0.5640736525     0.0127554308
    9      O       1.7434506280     0.2333853271    -1.1272623870
   10      C       2.8826111192     1.1092566440    -1.1741444642
   11      C       3.8069908529     1.2594414763     0.1100216445
   12      C       3.9769135516     0.0431111473     1.1244286520
   13      C       3.2558343867    -1.3038529502     0.7620975837
   14      O       2.1001746591    -1.6520037139     1.1041984069
   15      O      -3.8155752153    -2.0810313038    -0.6797571337
   16      O       4.0983075868    -2.0923470803    -0.0740825925
   17      O       3.2079902018     1.6054524070    -2.2758174410
   18      C       3.3877151539    -3.3244666610    -0.4906048634
   19      C       5.3139007745     1.5071904973    -0.3259656957
   20      C       6.0534941312     2.2580559279     0.8480524848
   21      C       6.2031193473     1.0944378133     1.8976025585
   22      C       5.5593570344    -0.1157160815     1.1095208264
   23      O       5.9129667879     0.1539435976    -0.3018697879
   24      H       3.4281321392     2.1329497912     0.6742222538
   25      H       3.6077398329     0.3405421009     2.1226788758
   26      H       5.4049538434     1.9612171210    -1.3323512259
   27      H       7.0356120506     2.6264528625     0.5111294815
   28      H       5.4688336902     3.1089478101     1.2320471378
   29      H       7.2609142453     0.8853100268     2.1225126841
   30      H       5.6754194034     1.3018161261     2.8423058847
   31      H       5.9155670951    -1.1186646817     1.4135775466
   32      O      -2.7594063813     1.4962675459    -1.7562749125
   33      C      -2.8493742576    -3.1024925128    -1.1461938935
   34      C      -5.8037242672    -0.5794234523     0.3749251661
   35      C      -6.8247286190     0.3251988948     1.1734103706
   36      C      -6.5405515136     1.7386293727     0.5428431998
   37      C      -5.3789701780     1.3895562219    -0.4669052470
   38      O      -5.7517101063     0.0458724860    -0.9663572064
   39      H      -4.3288059605    -0.3019948313     2.0510069467
   40      H      -3.9708550149     1.8382353579     1.2113971800
   41      H      -2.5726428884    -3.8060753363    -0.3351832161
   42      H      -6.0823823167    -1.6473604979     0.2941929016
   43      H      -7.8586572243    -0.0028151916     0.9819269504
   44      H      -6.6412163129     0.2980288556     2.2593904161
   45      H      -7.4191687714     2.1205117066    -0.0011345163
   46      H      -6.2354024336     2.4874425492     1.2913082192
   47      H      -5.2434309863     2.0916389067    -1.3122162650
   48      H      -1.9235616989    -2.6346223666    -1.5392935043
   49      H      -3.3565311295    -3.6497686109    -1.9618810288
   50      H       4.0805886238    -3.8591319418    -1.1658216051
   51      H       2.4489959753    -3.0845468638    -1.0301328971
   52      H       3.1425994530    -3.9684168783     0.3787112752
   53      H       0.8726180071     1.6443893356     0.2649059933
   54      H       1.1195289985    -0.0547657567     0.8941933909
   55      H      -0.6976398024     0.3417290169    -1.5574261025
   56      H      -0.8495242750    -0.8573158177    -0.1949222108
 ----------------------------------------------------------------

    9   -1510.2506918279      3.44E-09 Convergence criterion met
 Total energy in the final basis set = -1510.25069183
 Final energy is   -1510.25069182785
 **  OPTIMIZATION CONVERGED  **

                    Orbital Energies (a.u.)
 --------------------------------------------------------------

 Alpha MOs
 -- Occupied --
-18.943 -18.940 -18.915 -18.913 -18.888 -18.886 -18.886 -18.885
-18.880 -18.879 -10.105 -10.102 -10.101 -10.101 -10.066 -10.066
-10.061 -10.059 -10.058 -10.057 -10.056 -10.056 -10.042 -10.041
-10.038 -10.038 -10.021 -10.020 -10.020 -10.019  -1.018  -1.016
 -1.005  -1.001  -0.970  -0.968  -0.942  -0.940  -0.936  -0.930
 -0.763  -0.762  -0.724  -0.722  -0.708  -0.706  -0.694  -0.663
 -0.663  -0.605  -0.601  -0.578  -0.547  -0.544  -0.539  -0.536
 -0.515  -0.513  -0.486  -0.477  -0.469  -0.455  -0.448  -0.442
 -0.434  -0.431  -0.429  -0.415  -0.415  -0.413  -0.412  -0.402
 -0.394  -0.380  -0.378  -0.373  -0.364  -0.356  -0.354  -0.347
 -0.343  -0.335  -0.333  -0.330  -0.329  -0.328  -0.323  -0.311
 -0.310  -0.306  -0.305  -0.299  -0.297  -0.285  -0.282  -0.278
 -0.273  -0.258  -0.256  -0.242  -0.236  -0.233  -0.232  -0.181
 -0.181  -0.172  -0.165  -0.159  -0.158  -0.149  -0.148  -0.143
 -0.142

          Ground-State Mulliken Net Atomic Charges

     Atom                 Charge (a.u.)
  ----------------------------------------
      1 O                    -0.212882
      2 C                     0.206758
      3 C                    -0.078026
      4 C                    -0.077984
      5 C                     0.209792
      6 O                    -0.187109
      7 C                    -0.054799
      8 C                    -0.061227
      9 O                    -0.184026
     10 C                     0.212083
     11 C                    -0.084310
     12 C                    -0.082387
     13 C                     0.211576
     14 O                    -0.215192
     15 O                    -0.162731
     16 O                    -0.160624
     17 O                    -0.190223
     18 C                    -0.126988
     19 C                     0.023578
     20 C                    -0.143854
     21 C                    -0.144937
     22 C                     0.026787
     23 O                    -0.186333
     24 H                     0.079890
     25 H                     0.082480
     26 H                     0.093741
     27 H                     0.078753
     28 H                     0.072787
     29 H                     0.078227
     30 H                     0.072436
     31 H                     0.085949
     32 O                    -0.197108
     33 C                    -0.128742
     34 C                     0.026032
     35 C                    -0.144842
     36 C                    -0.143803
     37 C                     0.023607
     38 O                    -0.186074
     39 H                     0.085997
     40 H                     0.084372
     41 H                     0.091095
     42 H                     0.086716
     43 H                     0.077864
     44 H                     0.072625
     45 H                     0.078109
     46 H                     0.072704
     47 H                     0.089837
     48 H                     0.088232
     49 H                     0.093827
     50 H                     0.093788
     51 H                     0.093775
     52 H                     0.088744
     53 H                     0.078778
     54 H                     0.105433
     55 H                     0.093483
     56 H                     0.094350
  ----------------------------------------
  Sum of atomic charges =     0.000000

                    Cartesian Multipole Moments
 -----------------------------------------------------------------
    Charge (ESU x 10^10)
                -0.0000
    Dipole Moment (Debye)
         X      -0.5216      Y      -0.5124      Z       3.9627
       Tot       4.0296
    Quadrupole Moments (Debye-Ang)
        XX    -152.9915     XY       0.6903     YY    -147.8175
        XZ       1.9521     YZ       8.8040     ZZ    -167.0354

 Total job time:  59.89s(wall), 2845.01s(cpu)
        *  Thank you very much for using Q-Chem.  Have a nice day.  *
