 Q-Chem 5.0, Q-Chem, Inc., Pleasanton, CA (2017)
 Q-Chem 5.0.1 for Intel X86 EM64T Linux

User input:
--------------------------------------------------------------
$molecule
0  1
O -3.94934 -3.66094 2.70899
C -3.26408 -4.56952 2.26188
C -3.36658 -6.02376 2.66595
C -3.27498 -6.34409 4.1669
C -3.26957 -5.16132 5.10983
O -4.3409 -5.23576 5.9537
C -4.02931 -4.84505 7.29516
C -4.93795 -3.70143 7.73405
O -4.36255 -3.02471 8.86269
C -4.32048 -1.67223 8.77235
C -3.04458 -1.0849 9.32713
C -2.9475 0.44554 9.24573
C -4.24547 1.17602 8.96577
O -4.61249 1.57433 7.86977
O -2.30276 -4.27138 1.34845
O -5.13683 1.25121 9.99332
O -5.19132 -1.05666 8.17247
C -6.3889 1.82274 9.90362
C -2.83888 -1.29803 10.84146
C -1.34587 -1.23584 11.1616
C -1.06986 0.24008 10.9422
C -2.4938 0.75013 10.68616
O -3.30689 -0.11609 11.44254
H -2.2109 -1.58146 8.7797
H -2.22046 0.76841 8.4681
H -3.27729 -2.24702 11.21957
H -1.24265 -1.45885 12.24802
H -0.6966 -1.92987 10.58572
H -0.65475 0.66271 11.88386
H -0.39962 0.47614 10.08733
H -2.57563 1.83302 10.92735
O -2.36871 -4.33389 5.17512
C -2.0522 -3.00246 0.86969
C -4.74862 -6.61986 2.32843
C -4.62231 -8.12697 2.12754
C -4.35206 -8.57425 3.54737
C -4.53183 -7.24561 4.29607
O -5.47716 -6.54313 3.52934
H -2.59316 -6.57678 2.08428
H -2.35154 -6.91675 4.4049
H -1.76061 -2.32918 1.70402
H -5.22447 -6.1536 1.43763
H -5.62926 -8.4938 1.82367
H -3.87312 -8.45619 1.37576
H -5.13542 -9.30977 3.83636
H -3.34218 -9.00285 3.7262
H -4.81196 -7.46543 5.34907
H -2.95412 -2.60082 0.36012
H -1.21905 -3.0473 0.13871
H -6.89434 1.74676 10.88806
H -7.00046 1.28861 9.1454
H -6.30032 2.89539 9.62824
H -5.03043 -3.01786 6.85728
H -5.94936 -4.09519 7.97045
H -2.97602 -4.49875 7.41358
H -4.14941 -5.70223 7.99111
$end

$opt
CONSTRAINT
tors           1           2           3           4     -53.329
tors           3           4           5           6    +119.639
tors           4           5           6           7    +140.237
tors           5           6           7           8    +122.892
tors           6           7           8           9    -161.053
tors           7           8           9          10    +131.609
tors           8           9          10          11    -140.637
tors           9          10          11          12    +179.906
tors          11          12          13          14     -97.873
ENDCONSTRAINT
$end

$rem
JOBTYPE                   OPT
METHOD                    B3LYP
DFT_D                     d3_op
BASIS                     STO-3G
GEOM_OPT_MAX_CYCLES       100
GEOM_OPT_TOL_GRADIENT     300
GEOM_OPT_TOL_DISPLACEMENT 1200
GEOM_OPT_TOL_ENERGY       100
SYMMETRY                  False
THRESH                    12
SCF_CONVERGENCE           8
MAX_SUB_FILE_NUM          128
MEM_STATIC                400
MEM_TOTAL                 4000
$end
--------------------------------------------------------------

   15   -1510.1347951306      6.68E-09 Convergence criterion met
 Total energy in the final basis set = -1510.13479513
   14   -1510.2043720020      4.85E-09 Convergence criterion met
 Total energy in the final basis set = -1510.20437200
   14   -1510.2410524851      4.98E-09 Convergence criterion met
 Total energy in the final basis set = -1510.24105249
   14   -1510.2559517661      4.33E-09 Convergence criterion met
 Total energy in the final basis set = -1510.25595177
   13   -1510.2596385258      6.19E-09 Convergence criterion met
 Total energy in the final basis set = -1510.25963853
   13   -1510.2608137922      2.31E-09 Convergence criterion met
 Total energy in the final basis set = -1510.26081379
   12   -1510.2616518007      8.79E-09 Convergence criterion met
 Total energy in the final basis set = -1510.26165180
   12   -1510.2621474708      5.12E-09 Convergence criterion met
   10   -1510.2632008940      8.79E-09 Convergence criterion met
 Total energy in the final basis set = -1510.26320089
   11   -1510.2632199770      3.65E-09 Convergence criterion met
 Total energy in the final basis set = -1510.26321998
   10   -1510.2632260055      5.13E-09 Convergence criterion met
 Total energy in the final basis set = -1510.26322601
    9   -1510.2632292688      7.57E-09 Convergence criterion met
 Total energy in the final basis set = -1510.26322927
    9   -1510.2632306176      5.09E-09 Convergence criterion met
 Total energy in the final basis set = -1510.26323062
    9   -1510.2632317506      5.00E-09 Convergence criterion met
 Total energy in the final basis set = -1510.26323175

             Standard Nuclear Orientation (Angstroms)
    I     Atom           X                Y                Z
 ----------------------------------------------------------------
    1      O      -3.1719891519     1.7304730831     0.8753311532
    2      C      -4.0167789875     1.6711004420    -0.0447942824
    3      C      -4.9291976618     0.4532016696    -0.4132458949
    4      C      -4.1002889528    -0.8840968847    -0.6391601541
    5      C      -2.5416925390    -0.6823203255    -0.5242149561
    6      O      -1.9846655435    -1.4870215692     0.5324309351
    7      C      -0.6835719068    -2.0606661046     0.1134071888
    8      C       0.4431187143    -1.6336851655     1.1263028738
    9      O       1.7420813031    -1.8258200289     0.4328599940
   10      C       2.5797663383    -0.6666649883     0.5695765228
   11      C       3.3204975139    -0.4233808279    -0.7902283692
   12      C       4.2832699879     0.8339247464    -0.7827860412
   13      C       4.2827340141     1.6464609167     0.5659451443
   14      O       3.6310498300     2.6873362708     0.8010895404
   15      O      -4.3187071584     2.7522198197    -0.9328096041
   16      O       5.2268981787     1.0584042519     1.4687568779
   17      O       2.5943801053     0.0707091559     1.5795023841
   18      C       5.1816958925     1.7672111696     2.7663923634
   19      C       4.3436889443    -1.5908772636    -1.1376166285
   20      C       4.7303418762    -1.4777601203    -2.6647127410
   21      C       5.6945805415    -0.2337770294    -2.6413538193
   22      C       5.6746496877     0.1394693556    -1.1056853662
   23      O       5.5764081554    -1.1772745335    -0.4325481074
   24      H       2.5405905180    -0.3354508502    -1.5688917449
   25      H       3.9910092097     1.5381314336    -1.5818925330
   26      H       4.0157175760    -2.5950833968    -0.8051143421
   27      H       5.2532315663    -2.3888306699    -2.9965760761
   28      H       3.8479036772    -1.3238541463    -3.3062663356
   29      H       6.7135606061    -0.5074131695    -2.9583539690
   30      H       5.3371274937     0.5939809715    -3.2745676945
   31      H       6.5602858351     0.6937979691    -0.7408468805
   32      O      -1.8434158895    -0.0234563342    -1.3259783480
   33      C      -3.4683722169     3.9223825323    -0.6100910569
   34      C      -5.8553742504     0.0201577855     0.8067016524
   35      C      -6.9795940639    -0.9434059138     0.2562691907
   36      C      -6.1573225359    -2.2649774950     0.0210136995
   37      C      -4.7159021535    -1.8152678800     0.4846565927
   38      O      -4.9847350602    -0.8761402961     1.5983283907
   39      H      -5.5239881369     0.7193919701    -1.3043335098
   40      H      -4.2849796689    -1.2876404708    -1.6520329632
   41      H      -2.3905092665     3.6790099182    -0.7047990010
   42      H      -6.2165166896     0.8605060558     1.4307105937
   43      H      -7.7652761604    -1.0863631778     1.0149440073
   44      H      -7.4441815911    -0.5589057342    -0.6658031815
   45      H      -6.5254628518    -3.0876040709     0.6543953607
   46      H      -6.1722462260    -2.5949703899    -1.0301276800
   47      H      -4.0410167230    -2.6259606945     0.8186321229
   48      H      -3.6566404953     4.2915999696     0.4187478276
   49      H      -3.7382526322     4.7068619291    -1.3406532482
   50      H       5.9396723247     1.2807126267     3.4074206792
   51      H       4.1814347861     1.6758623642     3.2371963805
   52      H       5.4235749440     2.8442013725     2.6552422507
   53      H       0.3034840152    -0.5731878335     1.4254344023
   54      H       0.4009208182    -2.2596198808     2.0439038739
   55      H      -0.4067566938    -1.6886449059    -0.8964767481
   56      H      -0.7872229405    -3.1665194749     0.0888358879
 ----------------------------------------------------------------

    9   -1510.2632323666      3.44E-09 Convergence criterion met
 Total energy in the final basis set = -1510.26323237
 Final energy is   -1510.26323236661
 **  OPTIMIZATION CONVERGED  **

                    Orbital Energies (a.u.)
 --------------------------------------------------------------

 Alpha MOs
 -- Occupied --
-18.934 -18.928 -18.925 -18.917 -18.891 -18.889 -18.885 -18.884
-18.872 -18.854 -10.106 -10.106 -10.097 -10.086 -10.075 -10.072
-10.062 -10.062 -10.060 -10.059 -10.056 -10.049 -10.042 -10.038
-10.038 -10.030 -10.022 -10.021 -10.019 -10.017  -1.015  -1.012
 -1.008  -0.993  -0.971  -0.967  -0.944  -0.938  -0.934  -0.919
 -0.764  -0.760  -0.727  -0.721  -0.714  -0.705  -0.695  -0.662
 -0.648  -0.613  -0.596  -0.580  -0.548  -0.543  -0.539  -0.535
 -0.517  -0.509  -0.486  -0.472  -0.463  -0.458  -0.453  -0.443
 -0.434  -0.432  -0.430  -0.411  -0.409  -0.404  -0.400  -0.398
 -0.397  -0.381  -0.375  -0.365  -0.361  -0.356  -0.351  -0.346
 -0.344  -0.335  -0.332  -0.330  -0.329  -0.326  -0.323  -0.311
 -0.310  -0.308  -0.305  -0.296  -0.293  -0.283  -0.278  -0.277
 -0.271  -0.255  -0.252  -0.247  -0.238  -0.234  -0.231  -0.185
 -0.176  -0.166  -0.162  -0.160  -0.158  -0.150  -0.144  -0.142
 -0.135

          Ground-State Mulliken Net Atomic Charges

     Atom                 Charge (a.u.)
  ----------------------------------------
      1 O                    -0.210564
      2 C                     0.207831
      3 C                    -0.079659
      4 C                    -0.077783
      5 C                     0.216426
      6 O                    -0.175777
      7 C                    -0.048925
      8 C                    -0.048182
      9 O                    -0.184648
     10 C                     0.219050
     11 C                    -0.077533
     12 C                    -0.081946
     13 C                     0.213193
     14 O                    -0.220169
     15 O                    -0.168591
     16 O                    -0.169761
     17 O                    -0.196472
     18 C                    -0.127425
     19 C                     0.025299
     20 C                    -0.143883
     21 C                    -0.144250
     22 C                     0.026322
     23 O                    -0.186974
     24 H                     0.086586
     25 H                     0.082577
     26 H                     0.086199
     27 H                     0.077510
     28 H                     0.073026
     29 H                     0.077256
     30 H                     0.073283
     31 H                     0.086747
     32 O                    -0.209753
     33 C                    -0.128887
     34 C                     0.026028
     35 C                    -0.143799
     36 C                    -0.144527
     37 C                     0.024560
     38 O                    -0.185570
     39 H                     0.086132
     40 H                     0.085509
     41 H                     0.093099
     42 H                     0.083720
     43 H                     0.078510
     44 H                     0.074007
     45 H                     0.078192
     46 H                     0.072383
     47 H                     0.090973
     48 H                     0.089022
     49 H                     0.090235
     50 H                     0.087274
     51 H                     0.093103
     52 H                     0.085152
     53 H                     0.099717
     54 H                     0.086690
     55 H                     0.094928
     56 H                     0.084536
  ----------------------------------------
  Sum of atomic charges =    -0.000000

                    Cartesian Multipole Moments
 -----------------------------------------------------------------
    Charge (ESU x 10^10)
                -0.0000
    Dipole Moment (Debye)
         X      -2.2074      Y      -1.3853      Z      -2.9879
       Tot       3.9647
    Quadrupole Moments (Debye-Ang)
        XX    -146.7894     XY       3.7154     YY    -154.0425
        XZ      -0.1231     YZ       1.7026     ZZ    -159.0346

 Total job time:  53.38s(wall), 2534.13s(cpu)
        *  Thank you very much for using Q-Chem.  Have a nice day.  *
