 Q-Chem 5.0, Q-Chem, Inc., Pleasanton, CA (2017)
 Q-Chem 5.0.1 for Intel X86 EM64T Linux

User input:
--------------------------------------------------------------
$molecule
0  1
O -3.1719891519 1.7304730831 0.8753311532
C -4.0167789875 1.671100442 -0.0447942824
C -4.9291976618 0.4532016696 -0.4132458949
C -4.1002889528 -0.8840968847 -0.6391601541
C -2.541692539 -0.6823203255 -0.5242149561
O -1.9846655435 -1.4870215692 0.5324309351
C -0.6835719068 -2.0606661046 0.1134071888
C 0.4431187143 -1.6336851655 1.1263028738
O 1.7420813031 -1.8258200289 0.432859994
C 2.5797663383 -0.6666649883 0.5695765228
C 3.3204975139 -0.4233808279 -0.7902283692
C 4.2832699879 0.8339247464 -0.7827860412
C 4.2827340141 1.6464609167 0.5659451443
O 3.63104983 2.6873362708 0.8010895404
O -4.3187071584 2.7522198197 -0.9328096041
O 5.2268981787 1.0584042519 1.4687568779
O 2.5943801053 0.0707091559 1.5795023841
C 5.1816958925 1.7672111696 2.7663923634
C 4.3436889443 -1.5908772636 -1.1376166285
C 4.7303418762 -1.4777601203 -2.664712741
C 5.6945805415 -0.2337770294 -2.6413538193
C 5.6746496877 0.1394693556 -1.1056853662
O 5.5764081554 -1.1772745335 -0.4325481074
H 2.540590518 -0.3354508502 -1.5688917449
H 3.9910092097 1.5381314336 -1.581892533
H 4.015717576 -2.5950833968 -0.8051143421
H 5.2532315663 -2.3888306699 -2.9965760761
H 3.8479036772 -1.3238541463 -3.3062663356
H 6.7135606061 -0.5074131695 -2.958353969
H 5.3371274937 0.5939809715 -3.2745676945
H 6.5602858351 0.6937979691 -0.7408468805
O -1.8434158895 -0.0234563342 -1.325978348
C -3.4683722169 3.9223825323 -0.6100910569
C -5.8553742504 0.0201577855 0.8067016524
C -6.9795940639 -0.9434059138 0.2562691907
C -6.1573225359 -2.264977495 0.0210136995
C -4.7159021535 -1.81526788 0.4846565927
O -4.9847350602 -0.8761402961 1.5983283907
H -5.5239881369 0.7193919701 -1.3043335098
H -4.2849796689 -1.2876404708 -1.6520329632
H -2.3905092665 3.6790099182 -0.704799001
H -6.2165166896 0.8605060558 1.4307105937
H -7.7652761604 -1.0863631778 1.0149440073
H -7.4441815911 -0.5589057342 -0.6658031815
H -6.5254628518 -3.0876040709 0.6543953607
H -6.172246226 -2.5949703899 -1.03012768
H -4.041016723 -2.6259606945 0.8186321229
H -3.6566404953 4.2915999696 0.4187478276
H -3.7382526322 4.7068619291 -1.3406532482
H 5.9396723247 1.2807126267 3.4074206792
H 4.1814347861 1.6758623642 3.2371963805
H 5.423574944 2.8442013725 2.6552422507
H 0.3034840152 -0.5731878335 1.4254344023
H 0.4009208182 -2.2596198808 2.0439038739
H -0.4067566938 -1.6886449059 -0.8964767481
H -0.7872229405 -3.1665194749 0.0888358879
$end

$rem
JOBTYPE                   OPT
METHOD                    B3LYP
DFT_D                     d3_op
BASIS                     STO-3G
GEOM_OPT_MAX_CYCLES       100
GEOM_OPT_TOL_GRADIENT     300
GEOM_OPT_TOL_DISPLACEMENT 1200
GEOM_OPT_TOL_ENERGY       100
SYMMETRY                  False
THRESH                    12
SCF_CONVERGENCE           8
MAX_SUB_FILE_NUM          128
MEM_STATIC                400
MEM_TOTAL                 4000
$end
--------------------------------------------------------------

   16   -1510.2630015856      4.94E-09 Convergence criterion met
 Total energy in the final basis set = -1510.26300159
   14   -1510.2700010584      3.30E-09 Convergence criterion met
 Total energy in the final basis set = -1510.27000106
   14   -1510.2757674712      3.48E-09 Convergence criterion met
 Total energy in the final basis set = -1510.27576747
   14   -1510.2800003831      4.17E-09 Convergence criterion met
 Total energy in the final basis set = -1510.28000038
   14   -1510.2830998652      3.31E-09 Convergence criterion met
 Total energy in the final basis set = -1510.28309987
   15   -1510.2774418556      5.06E-09 Convergence criterion met
 Total energy in the final basis set = -1510.27744186
   15   -1510.2825202421      1.84E-09 Convergence criterion met
 Total energy in the final basis set = -1510.28252024
   14   -1510.2816319117      4.52E-09 Convergence criterion met
   12   -1510.2991535453      4.31E-09 Convergence criterion met
 Total energy in the final basis set = -1510.29915355
   11   -1510.2991605637      8.77E-09 Convergence criterion met
 Total energy in the final basis set = -1510.29916056
   11   -1510.2991678021      5.49E-09 Convergence criterion met
 Total energy in the final basis set = -1510.29916780
   11   -1510.2991623403      4.64E-09 Convergence criterion met
 Total energy in the final basis set = -1510.29916234
   11   -1510.2991571026      2.20E-09 Convergence criterion met
 Total energy in the final basis set = -1510.29915710
    9   -1510.2991541124      6.31E-09 Convergence criterion met
 Total energy in the final basis set = -1510.29915411

             Standard Nuclear Orientation (Angstroms)
    I     Atom           X                Y                Z
 ----------------------------------------------------------------
    1      O      -1.3812055491     0.8364640808     0.6821812261
    2      C      -2.2984645909     1.1898493749    -0.1017673608
    3      C      -3.7923913505     0.7140313570    -0.0641304505
    4      C      -3.9865394343    -0.7715460714    -0.6112582908
    5      C      -2.6146326140    -1.4208057034    -1.0161552557
    6      O      -2.1870185514    -2.3180533855     0.0153823033
    7      C      -0.7715358764    -2.7035258512    -0.2000973990
    8      C       0.1317131543    -1.7887675086     0.7162624630
    9      O       1.5294647503    -1.7114960625     0.2232626793
   10      C       1.6335571712    -0.7363449737    -0.8120583264
   11      C       3.1201605086    -0.6086049892    -1.3082235950
   12      C       3.7278854783     0.8387190278    -1.0529532243
   13      C       2.7616439890     1.7903540975    -0.2698487812
   14      O       2.4761743634     2.9766934777    -0.5461410174
   15      O      -2.1453029736     2.0853344139    -1.1885778073
   16      O       2.2559686886     1.0686322306     0.8539038185
   17      O       0.6485259235    -0.1267294396    -1.2910525718
   18      C       1.2518948550     1.8686059264     1.5987054456
   19      C       4.1475987240    -1.5169552173    -0.5138750237
   20      C       5.4745384240    -1.6181745754    -1.3643012496
   21      C       6.0856904743    -0.1848772646    -1.1440164044
   22      C       5.0088562913     0.4629673318    -0.1861288285
   23      O       4.5411655384    -0.6725603173     0.6384076657
   24      H       3.1281378638    -0.8403719532    -2.3893087780
   25      H       4.0065553884     1.3378727500    -1.9973961450
   26      H       3.7267011999    -2.4780859484    -0.1633323241
   27      H       6.1316766705    -2.4033810309    -0.9579325382
   28      H       5.2747049964    -1.8384755897    -2.4251210864
   29      H       7.0657338783    -0.2350460681    -0.6436638490
   30      H       6.1964612042     0.3792406278    -2.0838072033
   31      H       5.3834676303     1.2827851876     0.4569394775
   32      O      -1.9659663121    -1.1886072762    -2.0606716165
   33      C      -0.7184492491     2.4589241619    -1.3834778049
   34      C      -4.3410877948     0.5551926552     1.4187702404
   35      C      -5.9175317567     0.5010528097     1.3514631284
   36      C      -6.1444649064    -0.9459991508     0.7757551534
   37      C      -4.6567087698    -1.4634962301     0.6461795560
   38      O      -3.9618608553    -0.8262056452     1.7895050824
   39      H      -4.3912557417     1.4301721961    -0.6535881164
   40      H      -4.6459746975    -0.7743321615    -1.4977422058
   41      H      -0.0769775290     1.5461830551    -1.4105709793
   42      H      -3.9204340680     1.2787553120     2.1436422421
   43      H      -6.3476038255     0.6067818006     2.3601947852
   44      H      -6.3353655860     1.2888365363     0.7046702132
   45      H      -6.7114379555    -1.5770053733     1.4784145734
   46      H      -6.6674705009    -0.9400318673    -0.1939461327
   47      H      -4.5328545813    -2.5623308689     0.6818447244
   48      H      -0.3707631702     3.1403660521    -0.5819362034
   49      H      -0.6805941309     2.9878720451    -2.3525964560
   50      H       1.3953027152     1.6486224585     2.6726838649
   51      H       0.2276037668     1.5610875349     1.2770099976
   52      H       1.4039730638     2.9481462282     1.4036189406
   53      H      -0.3400959049    -0.7765928257     0.7561619549
   54      H       0.1999212669    -2.2086508272     1.7385851755
   55      H      -0.5109558578    -2.5425970045    -1.2688176109
   56      H      -0.6732079417    -3.7751609411     0.0631292263
 ----------------------------------------------------------------

    9   -1510.2991542962      3.29E-09 Convergence criterion met
 Total energy in the final basis set = -1510.29915430
 Final energy is   -1510.29915429624
 **  OPTIMIZATION CONVERGED  **

                    Orbital Energies (a.u.)
 --------------------------------------------------------------

 Alpha MOs
 -- Occupied --
-18.941 -18.933 -18.931 -18.926 -18.888 -18.885 -18.882 -18.876
-18.870 -18.868 -10.108 -10.102 -10.098 -10.093 -10.062 -10.061
-10.059 -10.058 -10.055 -10.054 -10.042 -10.040 -10.039 -10.036
-10.035 -10.034 -10.021 -10.020 -10.019 -10.017  -1.016  -1.012
 -1.008  -1.001  -0.970  -0.967  -0.939  -0.937  -0.931  -0.929
 -0.764  -0.760  -0.726  -0.721  -0.712  -0.705  -0.688  -0.656
 -0.646  -0.612  -0.595  -0.577  -0.547  -0.543  -0.537  -0.534
 -0.513  -0.507  -0.481  -0.477  -0.466  -0.460  -0.451  -0.438
 -0.433  -0.431  -0.423  -0.420  -0.408  -0.405  -0.399  -0.397
 -0.381  -0.378  -0.370  -0.364  -0.359  -0.355  -0.352  -0.349
 -0.342  -0.338  -0.332  -0.328  -0.326  -0.323  -0.315  -0.310
 -0.306  -0.305  -0.301  -0.299  -0.290  -0.288  -0.284  -0.277
 -0.274  -0.260  -0.245  -0.238  -0.238  -0.234  -0.230  -0.188
 -0.176  -0.171  -0.160  -0.159  -0.153  -0.150  -0.146  -0.143
 -0.140

          Ground-State Mulliken Net Atomic Charges

     Atom                 Charge (a.u.)
  ----------------------------------------
      1 O                    -0.220319
      2 C                     0.220274
      3 C                    -0.078616
      4 C                    -0.077419
      5 C                     0.206645
      6 O                    -0.169200
      7 C                    -0.056196
      8 C                    -0.060137
      9 O                    -0.166405
     10 C                     0.222110
     11 C                    -0.078167
     12 C                    -0.079140
     13 C                     0.207770
     14 O                    -0.217862
     15 O                    -0.161932
     16 O                    -0.168760
     17 O                    -0.225711
     18 C                    -0.151054
     19 C                     0.024827
     20 C                    -0.144275
     21 C                    -0.144038
     22 C                     0.026095
     23 O                    -0.184886
     24 H                     0.083745
     25 H                     0.084215
     26 H                     0.091531
     27 H                     0.077450
     28 H                     0.072585
     29 H                     0.077691
     30 H                     0.073583
     31 H                     0.082752
     32 O                    -0.208011
     33 C                    -0.145207
     34 C                     0.025323
     35 C                    -0.143648
     36 C                    -0.144591
     37 C                     0.025792
     38 O                    -0.185440
     39 H                     0.087934
     40 H                     0.085872
     41 H                     0.119314
     42 H                     0.084054
     43 H                     0.078169
     44 H                     0.073862
     45 H                     0.078073
     46 H                     0.073359
     47 H                     0.089471
     48 H                     0.084153
     49 H                     0.087835
     50 H                     0.082852
     51 H                     0.109751
     52 H                     0.087485
     53 H                     0.114349
     54 H                     0.088327
     55 H                     0.098952
     56 H                     0.084814
  ----------------------------------------
  Sum of atomic charges =     0.000000

                    Cartesian Multipole Moments
 -----------------------------------------------------------------
    Charge (ESU x 10^10)
                 0.0000
    Dipole Moment (Debye)
         X      -0.9680      Y      -0.6590      Z      -0.8515
       Tot       1.4479
    Quadrupole Moments (Debye-Ang)
        XX    -138.3929     XY      -2.8741     YY    -157.8018
        XZ      -6.7882     YZ       5.2865     ZZ    -163.3916

 Total job time:  217.53s(wall), 10383.90s(cpu)
        *  Thank you very much for using Q-Chem.  Have a nice day.  *
