 Q-Chem 5.0, Q-Chem, Inc., Pleasanton, CA (2017)
 Q-Chem 5.0.1 for Intel X86 EM64T Linux

User input:
--------------------------------------------------------------
$molecule
0  1
O 2.904321426 -1.5310259862 0.6025681085
C 4.093019446 -1.3894976924 0.2451271248
C 4.8126590507 -0.0759173159 -0.2292546778
C 3.8141708052 1.047642118 -0.7130435848
C 2.4201882413 0.5237909049 -1.2051361316
O 1.4492159906 1.5603656447 -1.0106054728
C 0.1329556553 1.1234039469 -1.5366317189
C -0.9654156131 1.9139325083 -0.7533656659
O -2.2237837088 1.1552150764 -0.9430239447
C -3.177769632 1.5125293452 0.065313071
C -4.4688850472 0.6484331162 -0.1390917022
C -4.2723209958 -0.7884073843 -0.7608640422
C -2.9134419983 -1.5129467819 -0.424043405
O -2.5677081942 -2.6329823727 -0.8640719931
O 5.0595636378 -2.4467473311 0.2383656211
O -2.245454615 -0.8439313692 0.6519145044
O -2.9845603405 2.3825557967 0.9403703653
C -1.0409947495 -1.5983612457 1.0700423186
C -5.3237127179 0.332184834 1.1638555842
C -6.8322261419 0.2850801557 0.70809222
C -6.8151692743 -1.0099307309 -0.1886740754
C -5.3647730236 -1.574485018 0.0977981549
O -5.045707916 -1.0922392376 1.4647052187
H -5.1023793828 1.2314558904 -0.8357738979
H -4.4566275336 -0.8219251053 -1.8486819599
H -5.0931610017 0.9748228847 2.0358175231
H -7.490975754 0.1578749753 1.5823451758
H -7.1408181477 1.1878388184 0.1571374757
H -7.5827268513 -1.7351798499 0.1243469312
H -6.9598948909 -0.7847419748 -1.2577858207
H -5.2705540287 -2.6766252599 0.0418778791
O 2.177249516 -0.5522589641 -1.7924776966
C 4.4322216528 -3.7046054231 0.706691174
C 5.3900176464 0.6255828042 1.0791583121
C 6.2283502564 1.9066180972 0.6845699275
C 5.0857600582 2.9518647882 0.3989266557
C 3.8110265788 2.0326014618 0.5363078731
O 4.1548507443 1.1716347587 1.691310966
H 5.5922073771 -0.3196884533 -0.9714860196
H 4.2557764728 1.5691590801 -1.5838247211
H 3.575332438 -3.994951064 0.0651888101
H 5.8969219705 -0.0692293524 1.776833178
H 6.8698932263 2.2216903741 1.5225654054
H 6.8654097333 1.722849733 -0.1958071139
H 5.0697599088 3.7470377935 1.1618242801
H 5.1665552765 3.416371656 -0.5966540202
H 2.8495300067 2.5549408651 0.7034791831
H 4.0738640053 -3.6180812664 1.7529811596
H 5.2190284979 -4.4790268159 0.6483574902
H -0.1316418236 -1.00652441 0.8424004338
H -1.0062770685 -2.5643008646 0.5267450853
H -1.1009431863 -1.7711496129 2.1617457549
H -0.7014929863 1.9677939831 0.3250862717
H -1.0649285269 2.9528727176 -1.1366212767
H -0.0005097316 0.0308448536 -1.3848291938
H 0.0666994287 1.3270119687 -2.6275348756
$end

$rem
JOBTYPE                   OPT
METHOD                    B3LYP
DFT_D                     d3_op
BASIS                     STO-3G
GEOM_OPT_MAX_CYCLES       100
GEOM_OPT_TOL_GRADIENT     300
GEOM_OPT_TOL_DISPLACEMENT 1200
GEOM_OPT_TOL_ENERGY       100
SYMMETRY                  False
THRESH                    12
SCF_CONVERGENCE           8
MAX_SUB_FILE_NUM          128
MEM_STATIC                400
MEM_TOTAL                 4000
$end
--------------------------------------------------------------

   16   -1510.2722152957      5.90E-09 Convergence criterion met
 Total energy in the final basis set = -1510.27221530
   13   -1510.2751243090      5.26E-09 Convergence criterion met
 Total energy in the final basis set = -1510.27512431
   14   -1510.2775174572      2.26E-09 Convergence criterion met
 Total energy in the final basis set = -1510.27751746
   13   -1510.2795243132      5.44E-09 Convergence criterion met
 Total energy in the final basis set = -1510.27952431
   13   -1510.2809507625      7.03E-09 Convergence criterion met
 Total energy in the final basis set = -1510.28095076
   13   -1510.2827337086      8.82E-09 Convergence criterion met
 Total energy in the final basis set = -1510.28273371
   13   -1510.2844840762      7.84E-09 Convergence criterion met
 Total energy in the final basis set = -1510.28448408
   13   -1510.2863261301      8.88E-09 Convergence criterion met
   12   -1510.2981646930      7.94E-09 Convergence criterion met
 Total energy in the final basis set = -1510.29816469
   12   -1510.2981961033      5.10E-09 Convergence criterion met
 Total energy in the final basis set = -1510.29819610
   11   -1510.2982208958      7.64E-09 Convergence criterion met
 Total energy in the final basis set = -1510.29822090
   11   -1510.2982325814      6.02E-09 Convergence criterion met
 Total energy in the final basis set = -1510.29823258
   10   -1510.2982378063      8.08E-09 Convergence criterion met
 Total energy in the final basis set = -1510.29823781
   10   -1510.2982410856      3.43E-09 Convergence criterion met
 Total energy in the final basis set = -1510.29824109

             Standard Nuclear Orientation (Angstroms)
    I     Atom           X                Y                Z
 ----------------------------------------------------------------
    1      O       1.3964662382    -0.7087521849     0.1236127452
    2      C       2.4577594727    -0.6336678236     0.7901174432
    3      C       3.8741941511    -0.2655427293     0.2273820193
    4      C       3.8206263402     0.5105129307    -1.1591666429
    5      C       2.3654173633     0.7932603573    -1.6843323665
    6      O       1.8394499551     1.9238188657    -0.9736764533
    7      C       0.3783283636     2.0602490664    -1.2000441489
    8      C      -0.2981985379     1.6762062598     0.1600944394
    9      O      -1.7500012712     1.4421214502    -0.0283930295
   10      C      -2.1996220922     0.4261948100     0.8761953450
   11      C      -3.7402962188     0.2316511983     0.6465032622
   12      C      -4.1184613074    -0.1510105490    -0.8460070241
   13      C      -2.8658154251    -0.3770812814    -1.7592072701
   14      O      -2.6605671873     0.0965141977    -2.8984862975
   15      O       2.5285571018    -0.8820922710     2.1840288864
   16      O      -1.9779381606    -1.2560679104    -1.0644821555
   17      O      -1.4826921132    -0.1421675012     1.7300288605
   18      C      -0.7619133171    -1.5351646192    -1.8665549385
   19      C      -4.3043707320    -1.0167226521     1.4425406954
   20      C      -5.8710998370    -0.8637151467     1.5470550041
   21      C      -6.3009050118    -1.1789088879     0.0654727418
   22      C      -4.9044310640    -1.5123944992    -0.5976786031
   23      O      -4.1370682216    -2.1453055371     0.4974900144
   24      H      -4.2505212632     1.1657488175     0.9459693609
   25      H      -4.7564910768     0.6159796132    -1.3183291323
   26      H      -3.7702571980    -1.2239136833     2.3902457318
   27      H      -6.2837579923    -1.6031531875     2.2518732412
   28      H      -6.1724162499     0.1441782684     1.8746457255
   29      H      -6.9683426985    -2.0537049607     0.0146930398
   30      H      -6.7992645655    -0.3262386743    -0.4232200109
   31      H      -4.9499980277    -2.1826499330    -1.4780161224
   32      O       1.7800127714     0.2082670310    -2.6219057765
   33      C       1.2046125284    -1.3120908076     2.7119904377
   34      C       4.6509061069     0.7798537054     1.1365781314
   35      C       6.1762332825     0.7512330105     0.7284325295
   36      C       6.1338238478     1.5105290424    -0.6493083695
   37      C       4.5942644735     1.8427129274    -0.7702247409
   38      O       4.1798598961     2.0880810579     0.6307951400
   39      H       4.4479892190    -1.2063707683     0.1297812054
   40      H       4.3490412440    -0.0587327451    -1.9441089400
   41      H       1.0360487910    -2.3846111933     2.4856105442
   42      H       4.4405528544     0.6759228119     2.2185984025
   43      H       6.7818179591     1.2946140834     1.4710469917
   44      H       6.5645470523    -0.2758650216     0.6387563826
   45      H       6.7253737069     2.4391745941    -0.6160215402
   46      H       6.4932536636     0.8937413804    -1.4884140581
   47      H       4.3482157722     2.7161557235    -1.4040112620
   48      H       0.3549671573    -0.7246554753     2.2936395215
   49      H       1.2612646959    -1.1764600235     3.8073321296
   50      H       0.1249905071    -1.2953502133    -1.2436867102
   51      H      -0.7694356732    -0.9174969330    -2.7860021010
   52      H      -0.7532964426    -2.6088665110    -2.1386264362
   53      H       0.1838556693     0.7408085715     0.5202417715
   54      H      -0.1403514678     2.4800588306     0.9107687386
   55      H       0.0571905924     1.3736669572    -2.0127016588
   56      H       0.1639991374     3.1092466746    -1.4889993968
 ----------------------------------------------------------------

    9   -1510.2982408668      6.24E-09 Convergence criterion met
 Total energy in the final basis set = -1510.29824087
 Final energy is   -1510.29824086679
 **  OPTIMIZATION CONVERGED  **

                    Orbital Energies (a.u.)
 --------------------------------------------------------------

 Alpha MOs
 -- Occupied --
-18.950 -18.929 -18.922 -18.920 -18.891 -18.890 -18.884 -18.875
-18.868 -18.864 -10.116 -10.101 -10.096 -10.089 -10.062 -10.061
-10.061 -10.057 -10.056 -10.055 -10.055 -10.045 -10.038 -10.035
-10.032 -10.032 -10.023 -10.021 -10.018 -10.017  -1.026  -1.011
 -1.003  -0.996  -0.972  -0.966  -0.948  -0.936  -0.929  -0.924
 -0.766  -0.760  -0.727  -0.721  -0.713  -0.703  -0.690  -0.662
 -0.642  -0.610  -0.595  -0.576  -0.548  -0.541  -0.539  -0.534
 -0.516  -0.505  -0.485  -0.472  -0.466  -0.462  -0.449  -0.437
 -0.435  -0.432  -0.425  -0.418  -0.408  -0.405  -0.401  -0.396
 -0.392  -0.380  -0.374  -0.366  -0.357  -0.352  -0.350  -0.343
 -0.341  -0.336  -0.333  -0.329  -0.327  -0.325  -0.316  -0.316
 -0.308  -0.305  -0.301  -0.301  -0.287  -0.286  -0.285  -0.280
 -0.268  -0.265  -0.242  -0.240  -0.235  -0.233  -0.230  -0.191
 -0.176  -0.167  -0.164  -0.160  -0.156  -0.150  -0.145  -0.144
 -0.139

          Ground-State Mulliken Net Atomic Charges

     Atom                 Charge (a.u.)
  ----------------------------------------
      1 O                    -0.217331
      2 C                     0.222906
      3 C                    -0.077753
      4 C                    -0.080424
      5 C                     0.213258
      6 O                    -0.176023
      7 C                    -0.052947
      8 C                    -0.060671
      9 O                    -0.176112
     10 C                     0.223628
     11 C                    -0.077551
     12 C                    -0.077989
     13 C                     0.211175
     14 O                    -0.217020
     15 O                    -0.164797
     16 O                    -0.171260
     17 O                    -0.218803
     18 C                    -0.147543
     19 C                     0.024791
     20 C                    -0.143689
     21 C                    -0.144254
     22 C                     0.026028
     23 O                    -0.185618
     24 H                     0.083709
     25 H                     0.084471
     26 H                     0.088519
     27 H                     0.077341
     28 H                     0.072428
     29 H                     0.077451
     30 H                     0.073526
     31 H                     0.082684
     32 O                    -0.215499
     33 C                    -0.140462
     34 C                     0.024260
     35 C                    -0.143745
     36 C                    -0.144429
     37 C                     0.026847
     38 O                    -0.186766
     39 H                     0.087459
     40 H                     0.084381
     41 H                     0.086274
     42 H                     0.090626
     43 H                     0.078710
     44 H                     0.073534
     45 H                     0.078392
     46 H                     0.074010
     47 H                     0.086706
     48 H                     0.118662
     49 H                     0.089282
     50 H                     0.108035
     51 H                     0.098291
     52 H                     0.078869
     53 H                     0.105621
     54 H                     0.079695
     55 H                     0.103968
     56 H                     0.085150
  ----------------------------------------
  Sum of atomic charges =    -0.000000

                    Cartesian Multipole Moments
 -----------------------------------------------------------------
    Charge (ESU x 10^10)
                 0.0000
    Dipole Moment (Debye)
         X       1.0709      Y       0.1239      Z       1.6937
       Tot       2.0077
    Quadrupole Moments (Debye-Ang)
        XX    -133.2957     XY      -4.9983     YY    -161.3250
        XZ      -4.9807     YZ      -0.1183     ZZ    -165.1567

 Total job time:  114.71s(wall), 5469.37s(cpu)
        *  Thank you very much for using Q-Chem.  Have a nice day.  *
