 Q-Chem 5.0, Q-Chem, Inc., Pleasanton, CA (2017)
 Q-Chem 5.0.1 for Intel X86 EM64T Linux

User input:
--------------------------------------------------------------
$molecule
0  1
O -3.94934 -3.66094 2.70899
C -3.26408 -4.56952 2.26188
C -3.36658 -6.02376 2.66595
C -4.04485 -6.33327 4.01057
C -4.70306 -5.16926 4.71763
O -5.71853 -5.62226 5.51074
C -6.3461 -4.58368 6.27019
C -7.7821 -4.97253 6.60611
O -8.53566 -3.8025 6.96115
C -9.88346 -3.93119 6.88349
C -10.61669 -2.65399 7.21781
C -9.85862 -1.36344 6.87417
C -8.67273 -1.52145 5.9439
O -7.92366 -0.62193 5.5913
O -2.45316 -4.31083 1.20242
O -8.88084 -2.44316 4.94854
O -10.45105 -5.01539 6.8301
C -8.15544 -2.61138 3.77969
C -11.89727 -2.44184 6.3756
C -12.85047 -1.5122 7.12589
C -12.10659 -0.19638 7.01375
C -10.95378 -0.61419 6.09298
O -11.50157 -1.6346 5.29575
H -10.92292 -2.72854 8.28543
H -9.50459 -0.8158 7.77463
H -12.41755 -3.38812 6.11135
H -13.77997 -1.44749 6.5154
H -13.11678 -1.81981 8.15992
H -12.77291 0.54197 6.51514
H -11.7244 0.21698 7.97232
H -10.55126 0.26644 5.54492
O -4.03838 -4.19963 5.07046
C -2.2797 -3.06233 0.64273
C -4.22898 -6.82482 1.68149
C -3.85835 -8.30359 1.75202
C -4.44764 -8.67365 3.09464
C -5.10508 -7.34552 3.48914
O -5.50843 -6.79373 2.25984
H -2.32018 -6.40493 2.67598
H -3.36234 -6.81748 4.7443
H -1.86834 -2.35872 1.39782
H -4.15491 -6.45824 0.63393
H -4.42995 -8.83128 0.9552
H -2.77436 -8.51771 1.6329
H -5.22769 -9.45043 2.92968
H -3.71863 -9.0266 3.85571
H -5.92252 -7.56235 4.20873
H -3.24813 -2.67695 0.25802
H -1.56476 -3.13847 -0.20199
H -7.79166 -3.65709 3.71971
H -7.28072 -1.93096 3.71106
H -8.82135 -2.42705 2.91197
H -8.20181 -5.3772 5.65502
H -7.8367 -5.76475 7.3838
H -6.42155 -3.66427 5.64704
H -5.76742 -4.33169 7.18509
$end

$opt
CONSTRAINT
tors           1           2           3           4     -19.943
tors           3           4           5           6    +153.156
tors           4           5           6           7    +176.856
tors           5           6           7           8    +154.184
tors           6           7           8           9    -161.053
tors           7           8           9          10    +160.638
tors           8           9          10          11    -177.817
tors           9          10          11          12     +30.207
tors          11          12          13          14    -177.518
ENDCONSTRAINT
$end

$rem
JOBTYPE                   OPT
METHOD                    B3LYP
DFT_D                     d3_op
BASIS                     STO-3G
GEOM_OPT_MAX_CYCLES       100
GEOM_OPT_TOL_GRADIENT     300
GEOM_OPT_TOL_DISPLACEMENT 1200
GEOM_OPT_TOL_ENERGY       100
SYMMETRY                  False
THRESH                    12
SCF_CONVERGENCE           8
MAX_SUB_FILE_NUM          128
MEM_STATIC                400
MEM_TOTAL                 4000
$end
--------------------------------------------------------------

   15   -1510.1122865327      8.03E-09 Convergence criterion met
 Total energy in the final basis set = -1510.11228653
   14   -1510.1852701477      8.01E-09 Convergence criterion met
 Total energy in the final basis set = -1510.18527015
   14   -1510.2259075909      8.75E-09 Convergence criterion met
 Total energy in the final basis set = -1510.22590759
   14   -1510.2465577743      9.63E-09 Convergence criterion met
 Total energy in the final basis set = -1510.24655777
   14   -1510.2571026857      7.19E-09 Convergence criterion met
 Total energy in the final basis set = -1510.25710269
   14   -1510.2627026278      4.52E-09 Convergence criterion met
 Total energy in the final basis set = -1510.26270263
   13   -1510.2662071444      6.42E-09 Convergence criterion met
 Total energy in the final basis set = -1510.26620714
   13   -1510.2683411160      4.09E-09 Convergence criterion met
   12   -1510.2721371890      2.69E-09 Convergence criterion met
 Total energy in the final basis set = -1510.27213719
   11   -1510.2721895878      6.14E-09 Convergence criterion met
 Total energy in the final basis set = -1510.27218959
   11   -1510.2722173077      4.37E-09 Convergence criterion met
 Total energy in the final basis set = -1510.27221731
   11   -1510.2722322396      3.00E-09 Convergence criterion met
 Total energy in the final basis set = -1510.27223224
   11   -1510.2722370604      2.33E-09 Convergence criterion met
 Total energy in the final basis set = -1510.27223706
    9   -1510.2722386827      6.04E-09 Convergence criterion met
 Total energy in the final basis set = -1510.27223868

             Standard Nuclear Orientation (Angstroms)
    I     Atom           X                Y                Z
 ----------------------------------------------------------------
    1      O       2.9043214260    -1.5310259862     0.6025681085
    2      C       4.0930194460    -1.3894976924     0.2451271248
    3      C       4.8126590507    -0.0759173159    -0.2292546778
    4      C       3.8141708052     1.0476421180    -0.7130435848
    5      C       2.4201882413     0.5237909049    -1.2051361316
    6      O       1.4492159906     1.5603656447    -1.0106054728
    7      C       0.1329556553     1.1234039469    -1.5366317189
    8      C      -0.9654156131     1.9139325083    -0.7533656659
    9      O      -2.2237837088     1.1552150764    -0.9430239447
   10      C      -3.1777696320     1.5125293452     0.0653130710
   11      C      -4.4688850472     0.6484331162    -0.1390917022
   12      C      -4.2723209958    -0.7884073843    -0.7608640422
   13      C      -2.9134419983    -1.5129467819    -0.4240434050
   14      O      -2.5677081942    -2.6329823727    -0.8640719931
   15      O       5.0595636378    -2.4467473311     0.2383656211
   16      O      -2.2454546150    -0.8439313692     0.6519145044
   17      O      -2.9845603405     2.3825557967     0.9403703653
   18      C      -1.0409947495    -1.5983612457     1.0700423186
   19      C      -5.3237127179     0.3321848340     1.1638555842
   20      C      -6.8322261419     0.2850801557     0.7080922200
   21      C      -6.8151692743    -1.0099307309    -0.1886740754
   22      C      -5.3647730236    -1.5744850180     0.0977981549
   23      O      -5.0457079160    -1.0922392376     1.4647052187
   24      H      -5.1023793828     1.2314558904    -0.8357738979
   25      H      -4.4566275336    -0.8219251053    -1.8486819599
   26      H      -5.0931610017     0.9748228847     2.0358175231
   27      H      -7.4909757540     0.1578749753     1.5823451758
   28      H      -7.1408181477     1.1878388184     0.1571374757
   29      H      -7.5827268513    -1.7351798499     0.1243469312
   30      H      -6.9598948909    -0.7847419748    -1.2577858207
   31      H      -5.2705540287    -2.6766252599     0.0418778791
   32      O       2.1772495160    -0.5522589641    -1.7924776966
   33      C       4.4322216528    -3.7046054231     0.7066911740
   34      C       5.3900176464     0.6255828042     1.0791583121
   35      C       6.2283502564     1.9066180972     0.6845699275
   36      C       5.0857600582     2.9518647882     0.3989266557
   37      C       3.8110265788     2.0326014618     0.5363078731
   38      O       4.1548507443     1.1716347587     1.6913109660
   39      H       5.5922073771    -0.3196884533    -0.9714860196
   40      H       4.2557764728     1.5691590801    -1.5838247211
   41      H       3.5753324380    -3.9949510640     0.0651888101
   42      H       5.8969219705    -0.0692293524     1.7768331780
   43      H       6.8698932263     2.2216903741     1.5225654054
   44      H       6.8654097333     1.7228497330    -0.1958071139
   45      H       5.0697599088     3.7470377935     1.1618242801
   46      H       5.1665552765     3.4163716560    -0.5966540202
   47      H       2.8495300067     2.5549408651     0.7034791831
   48      H       4.0738640053    -3.6180812664     1.7529811596
   49      H       5.2190284979    -4.4790268159     0.6483574902
   50      H      -0.1316418236    -1.0065244100     0.8424004338
   51      H      -1.0062770685    -2.5643008646     0.5267450853
   52      H      -1.1009431863    -1.7711496129     2.1617457549
   53      H      -0.7014929863     1.9677939831     0.3250862717
   54      H      -1.0649285269     2.9528727176    -1.1366212767
   55      H      -0.0005097316     0.0308448536    -1.3848291938
   56      H       0.0666994287     1.3270119687    -2.6275348756
 ----------------------------------------------------------------

    9   -1510.2722394979      3.48E-09 Convergence criterion met
 Total energy in the final basis set = -1510.27223950
 Final energy is   -1510.27223949786
 **  OPTIMIZATION CONVERGED  **

                    Orbital Energies (a.u.)
 --------------------------------------------------------------

 Alpha MOs
 -- Occupied --
-18.933 -18.931 -18.929 -18.927 -18.888 -18.884 -18.874 -18.872
-18.871 -18.866 -10.101 -10.099 -10.096 -10.094 -10.072 -10.071
-10.061 -10.061 -10.059 -10.058 -10.057 -10.048 -10.039 -10.038
-10.037 -10.035 -10.022 -10.020 -10.020 -10.018  -1.014  -1.011
 -1.007  -1.001  -0.971  -0.968  -0.940  -0.934  -0.930  -0.927
 -0.764  -0.762  -0.727  -0.723  -0.715  -0.703  -0.694  -0.661
 -0.651  -0.612  -0.596  -0.579  -0.546  -0.543  -0.539  -0.535
 -0.517  -0.507  -0.482  -0.472  -0.463  -0.457  -0.450  -0.449
 -0.436  -0.435  -0.427  -0.410  -0.410  -0.409  -0.402  -0.398
 -0.393  -0.375  -0.371  -0.366  -0.361  -0.357  -0.355  -0.349
 -0.341  -0.336  -0.334  -0.330  -0.328  -0.319  -0.316  -0.313
 -0.309  -0.304  -0.302  -0.294  -0.294  -0.291  -0.286  -0.276
 -0.269  -0.257  -0.251  -0.247  -0.237  -0.235  -0.232  -0.182
 -0.178  -0.173  -0.160  -0.159  -0.154  -0.147  -0.145  -0.144
 -0.142

          Ground-State Mulliken Net Atomic Charges

     Atom                 Charge (a.u.)
  ----------------------------------------
      1 O                    -0.211405
      2 C                     0.213941
      3 C                    -0.077573
      4 C                    -0.079770
      5 C                     0.213993
      6 O                    -0.176262
      7 C                    -0.048767
      8 C                    -0.046457
      9 O                    -0.175129
     10 C                     0.218981
     11 C                    -0.079379
     12 C                    -0.074318
     13 C                     0.215545
     14 O                    -0.219248
     15 O                    -0.171915
     16 O                    -0.168729
     17 O                    -0.215755
     18 C                    -0.136219
     19 C                     0.025133
     20 C                    -0.141343
     21 C                    -0.145666
     22 C                     0.023564
     23 O                    -0.190305
     24 H                     0.081687
     25 H                     0.086695
     26 H                     0.090678
     27 H                     0.078062
     28 H                     0.073203
     29 H                     0.078479
     30 H                     0.073426
     31 H                     0.085153
     32 O                    -0.211844
     33 C                    -0.128738
     34 C                     0.024581
     35 C                    -0.145084
     36 C                    -0.142205
     37 C                     0.024245
     38 O                    -0.190367
     39 H                     0.087786
     40 H                     0.084037
     41 H                     0.091732
     42 H                     0.083515
     43 H                     0.078473
     44 H                     0.073959
     45 H                     0.078307
     46 H                     0.073266
     47 H                     0.091889
     48 H                     0.088076
     49 H                     0.089657
     50 H                     0.089287
     51 H                     0.102802
     52 H                     0.088507
     53 H                     0.097927
     54 H                     0.084209
     55 H                     0.101217
     56 H                     0.084464
  ----------------------------------------
  Sum of atomic charges =     0.000000

                    Cartesian Multipole Moments
 -----------------------------------------------------------------
    Charge (ESU x 10^10)
                 0.0000
    Dipole Moment (Debye)
         X       1.0504      Y       1.2582      Z      -1.5912
       Tot       2.2844
    Quadrupole Moments (Debye-Ang)
        XX    -133.1501     XY       0.3584     YY    -158.4477
        XZ       5.2775     YZ      -8.3829     ZZ    -163.2364

 Total job time:  61.59s(wall), 2924.99s(cpu)
        *  Thank you very much for using Q-Chem.  Have a nice day.  *
