 Q-Chem 5.0, Q-Chem, Inc., Pleasanton, CA (2017)
 Q-Chem 5.0.1 for Intel X86 EM64T Linux

User input:
--------------------------------------------------------------
$molecule
0  1
O -3.94934 -3.66094 2.70899
C -3.26408 -4.56952 2.26188
C -3.36658 -6.02376 2.66595
C -3.92833 -6.32642 4.06477
C -4.49026 -5.15178 4.83453
O -5.80272 -4.9663 4.5052
C -6.42941 -3.92095 5.25604
C -7.70221 -3.45969 4.55366
O -8.30635 -2.38546 5.29118
C -8.66275 -1.30229 4.55711
C -9.24034 -0.18721 5.39596
C -8.65688 -0.07349 6.81191
C -7.36693 -0.82997 7.05777
O -7.07925 -1.42516 8.08615
O -2.44161 -4.30784 1.21226
O -6.35492 -0.57913 6.17971
O -8.34699 -1.13164 3.38558
C -5.01358 -0.73719 6.47223
C -8.98796 1.23845 4.86221
C -10.04518 2.19001 5.42234
C -9.612 2.27371 6.8722
C -8.33092 1.43412 6.82502
O -7.82633 1.66069 5.53004
H -10.33631 -0.37806 5.42929
H -9.37392 -0.35158 7.61587
H -8.96883 1.30391 3.75298
H -9.87935 3.18278 4.94555
H -11.09899 1.87748 5.25891
H -9.3728 3.33501 7.1059
H -10.34054 1.87532 7.61113
H -7.65445 1.70805 7.665
O -3.95742 -4.69094 5.8374
C -2.2591 -3.05684 0.66102
C -4.34294 -6.82462 1.78496
C -3.96528 -8.30482 1.81016
C -4.37929 -8.67886 3.2194
C -5.01175 -7.36115 3.68299
O -5.55304 -6.81553 2.50274
H -2.33911 -6.44115 2.55906
H -3.14937 -6.78146 4.71724
H -1.85398 -2.3583 1.42421
H -4.39063 -6.45491 0.73719
H -4.63897 -8.82661 1.09307
H -2.9088 -8.53021 1.54954
H -5.14933 -9.47972 3.15756
H -3.55184 -8.99826 3.88922
H -5.72644 -7.54685 4.51485
H -3.22238 -2.66683 0.26821
H -1.53526 -3.13029 -0.17632
H -4.41362 -0.50463 5.56876
H -4.79235 -1.77337 6.80165
H -4.72253 -0.03658 7.28349
H -7.45556 -3.22604 3.49437
H -8.4086 -4.3168 4.54566
H -5.77393 -3.02891 5.24842
H -6.62829 -4.24339 6.30189
$end

$opt
CONSTRAINT
tors           1           2           3           4     -25.336
tors           3           4           5           6     +86.835
tors           4           5           6           7    +176.375
tors           5           6           7           8    +161.507
tors           6           7           8           9    -178.373
tors           7           8           9          10    +131.609
tors           8           9          10          11    -177.692
tors           9          10          11          12     +32.546
tors          11          12          13          14    -141.793
ENDCONSTRAINT
$end

$rem
JOBTYPE                   OPT
METHOD                    B3LYP
DFT_D                     d3_op
BASIS                     STO-3G
GEOM_OPT_MAX_CYCLES       100
GEOM_OPT_TOL_GRADIENT     300
GEOM_OPT_TOL_DISPLACEMENT 1200
GEOM_OPT_TOL_ENERGY       100
SYMMETRY                  False
THRESH                    12
SCF_CONVERGENCE           8
MAX_SUB_FILE_NUM          128
MEM_STATIC                400
MEM_TOTAL                 4000
$end
--------------------------------------------------------------

   15   -1510.1538041543      6.37E-09 Convergence criterion met
 Total energy in the final basis set = -1510.15380415
   13   -1510.2225650414      7.35E-09 Convergence criterion met
 Total energy in the final basis set = -1510.22256504
   14   -1510.2592694291      6.64E-09 Convergence criterion met
 Total energy in the final basis set = -1510.25926943
   14   -1510.2751422839      5.93E-09 Convergence criterion met
 Total energy in the final basis set = -1510.27514228
   14   -1510.2794870233      4.98E-09 Convergence criterion met
 Total energy in the final basis set = -1510.27948702
   14   -1510.2796045081      5.29E-09 Convergence criterion met
 Total energy in the final basis set = -1510.27960451
   13   -1510.2814321279      4.75E-09 Convergence criterion met
 Total energy in the final basis set = -1510.28143213
   13   -1510.2817513687      3.31E-09 Convergence criterion met
   10   -1510.2824780091      7.19E-09 Convergence criterion met
 Total energy in the final basis set = -1510.28247801
   10   -1510.2824983945      9.46E-09 Convergence criterion met
 Total energy in the final basis set = -1510.28249839
   10   -1510.2825128123      6.17E-09 Convergence criterion met
 Total energy in the final basis set = -1510.28251281
    9   -1510.2825248749      9.09E-09 Convergence criterion met
 Total energy in the final basis set = -1510.28252487
    9   -1510.2825310763      8.51E-09 Convergence criterion met
 Total energy in the final basis set = -1510.28253108
    9   -1510.2825324888      3.74E-09 Convergence criterion met
 Total energy in the final basis set = -1510.28253249

             Standard Nuclear Orientation (Angstroms)
    I     Atom           X                Y                Z
 ----------------------------------------------------------------
    1      O       2.2266802779    -1.4521155161    -0.3513337513
    2      C       3.4701199814    -1.5857519604    -0.3988270369
    3      C       4.5590301415    -0.4662765402    -0.3210529951
    4      C       4.0403472315     0.9561561147    -0.7948290200
    5      C       2.4984306648     0.9802839727    -1.1117447533
    6      O       1.7743876209     1.2481030919     0.0938015900
    7      C       0.3274495425     1.3601349546    -0.2062867768
    8      C      -0.4211523159     1.1706612276     1.1511493109
    9      O      -1.8814403209     1.2355570331     0.8949366213
   10      C      -2.5585583525     0.1385144101     1.5264667916
   11      C      -4.0802592807     0.2330160805     1.1690779218
   12      C      -4.4081997445     0.8327519636    -0.2556241544
   13      C      -3.2138053673     0.7734197183    -1.2735069378
   14      O      -2.8994835833     1.6407494130    -2.1176908185
   15      O       4.1328338034    -2.8502026679    -0.4885572943
   16      O      -2.6141234897    -0.5286840280    -1.1856637638
   17      O      -2.0003240257    -0.7228485863     2.2386632170
   18      C      -1.6719691948    -0.7514787978    -2.3058610007
   19      C      -4.8632576051    -1.1481861405     1.1323593157
   20      C      -6.3705455328    -0.8309098586     1.4752140146
   21      C      -6.8080097488    -0.0594416254     0.1729555690
   22      C      -5.5168832838    -0.2103548086    -0.7292873679
   23      O      -4.9329790108    -1.5034480614    -0.3038441153
   24      H      -4.5337710244     0.8816185317     1.9432914426
   25      H      -4.7835255125     1.8692908096    -0.2054668708
   26      H      -4.3887356497    -1.9599324505     1.7174059561
   27      H      -6.9390141370    -1.7670479416     1.5968172969
   28      H      -6.4810330992    -0.2269324805     2.3899310506
   29      H      -7.6757148319    -0.5354066426    -0.3107897420
   30      H      -7.0502731027     0.9976380272     0.3683702165
   31      H      -5.7055268670    -0.2112870400    -1.8205468322
   32      O       1.9708153016     0.8580927176    -2.2390418851
   33      C       3.1344724515    -3.9453247513    -0.5142841626
   34      C       5.0145096013    -0.1449488815     1.1727077039
   35      C       6.4081563203     0.5937280095     1.0983083163
   36      C       5.9691221922     2.0029433381     0.5529369918
   37      C       4.3989935873     1.8316826144     0.4774040080
   38      O       4.0879451791     0.9217456232     1.6063207504
   39      H       5.4237027991    -0.7989718298    -0.9225611875
   40      H       4.5749232172     1.2880879728    -1.7020774811
   41      H       2.4653558376    -3.8654447375    -1.3952411594
   42      H       4.9710223758    -1.0082261334     1.8648988987
   43      H       6.8523439584     0.6708251462     2.1036882091
   44      H       7.1209972810     0.0788273766     0.4348214003
   45      H       6.2370782018     2.8098925032     1.2530056488
   46      H       6.4069227699     2.2299784515    -0.4321673370
   47      H       3.8167078895     2.7685532123     0.5671289172
   48      H       2.5100003990    -3.9505318472     0.4024014106
   49      H       3.7141417804    -4.8847448917    -0.5737738088
   50      H      -0.7549317132    -1.2227983788    -1.9027931712
   51      H      -1.4291427504     0.2102361926    -2.8011089579
   52      H      -2.1355005320    -1.4374652430    -3.0439285495
   53      H      -0.1726141126     0.1886476526     1.6081414049
   54      H      -0.1419566493     1.9788187205     1.8607110787
   55      H       0.0229193190     0.5809195484    -0.9313949768
   56      H       0.0913363723     2.3537002664    -0.6469985030
 ----------------------------------------------------------------

    8   -1510.2825328217      9.32E-09 Convergence criterion met
 Total energy in the final basis set = -1510.28253282
 Final energy is   -1510.28253282171
 **  OPTIMIZATION CONVERGED  **

                    Orbital Energies (a.u.)
 --------------------------------------------------------------

 Alpha MOs
 -- Occupied --
-18.939 -18.931 -18.923 -18.921 -18.889 -18.885 -18.881 -18.876
-18.864 -18.862 -10.103 -10.100 -10.092 -10.091 -10.067 -10.063
-10.062 -10.061 -10.059 -10.058 -10.057 -10.049 -10.039 -10.036
-10.035 -10.034 -10.021 -10.020 -10.019 -10.018  -1.016  -1.011
 -1.001  -0.998  -0.970  -0.967  -0.940  -0.936  -0.926  -0.925
 -0.763  -0.762  -0.726  -0.722  -0.711  -0.703  -0.691  -0.665
 -0.651  -0.609  -0.595  -0.577  -0.546  -0.541  -0.538  -0.535
 -0.514  -0.507  -0.485  -0.473  -0.465  -0.460  -0.442  -0.437
 -0.434  -0.431  -0.425  -0.414  -0.409  -0.408  -0.401  -0.400
 -0.392  -0.377  -0.370  -0.368  -0.360  -0.356  -0.349  -0.345
 -0.338  -0.337  -0.331  -0.330  -0.328  -0.325  -0.318  -0.312
 -0.309  -0.305  -0.303  -0.299  -0.291  -0.287  -0.281  -0.276
 -0.270  -0.258  -0.247  -0.241  -0.237  -0.234  -0.231  -0.182
 -0.175  -0.166  -0.164  -0.157  -0.156  -0.145  -0.144  -0.142
 -0.139

          Ground-State Mulliken Net Atomic Charges

     Atom                 Charge (a.u.)
  ----------------------------------------
      1 O                    -0.210051
      2 C                     0.210380
      3 C                    -0.079709
      4 C                    -0.080364
      5 C                     0.213029
      6 O                    -0.168342
      7 C                    -0.047796
      8 C                    -0.051356
      9 O                    -0.174878
     10 C                     0.217194
     11 C                    -0.078238
     12 C                    -0.076184
     13 C                     0.214320
     14 O                    -0.219575
     15 O                    -0.169241
     16 O                    -0.171308
     17 O                    -0.211115
     18 C                    -0.136448
     19 C                     0.025673
     20 C                    -0.142125
     21 C                    -0.145028
     22 C                     0.025045
     23 O                    -0.185115
     24 H                     0.083296
     25 H                     0.085673
     26 H                     0.090432
     27 H                     0.077819
     28 H                     0.072915
     29 H                     0.077818
     30 H                     0.073491
     31 H                     0.081893
     32 O                    -0.220987
     33 C                    -0.128756
     34 C                     0.026120
     35 C                    -0.142821
     36 C                    -0.145006
     37 C                     0.026845
     38 O                    -0.184980
     39 H                     0.086450
     40 H                     0.084236
     41 H                     0.090528
     42 H                     0.083896
     43 H                     0.078264
     44 H                     0.074219
     45 H                     0.077941
     46 H                     0.073656
     47 H                     0.086214
     48 H                     0.091219
     49 H                     0.091517
     50 H                     0.090349
     51 H                     0.101542
     52 H                     0.083744
     53 H                     0.106054
     54 H                     0.085289
     55 H                     0.097771
     56 H                     0.084589
  ----------------------------------------
  Sum of atomic charges =     0.000000

                    Cartesian Multipole Moments
 -----------------------------------------------------------------
    Charge (ESU x 10^10)
                 0.0000
    Dipole Moment (Debye)
         X       1.1566      Y      -0.1015      Z       0.6655
       Tot       1.3382
    Quadrupole Moments (Debye-Ang)
        XX    -131.3074     XY      -3.3769     YY    -155.1468
        XZ      -5.1620     YZ       5.0331     ZZ    -165.2862

 Total job time:  70.65s(wall), 3360.75s(cpu)
        *  Thank you very much for using Q-Chem.  Have a nice day.  *
