 Q-Chem 5.0, Q-Chem, Inc., Pleasanton, CA (2017)
 Q-Chem 5.0.1 for Intel X86 EM64T Linux

User input:
--------------------------------------------------------------
$molecule
0  1
O 2.2266802779 -1.4521155161 -0.3513337513
C 3.4701199814 -1.5857519604 -0.3988270369
C 4.5590301415 -0.4662765402 -0.3210529951
C 4.0403472315 0.9561561147 -0.79482902
C 2.4984306648 0.9802839727 -1.1117447533
O 1.7743876209 1.2481030919 0.09380159
C 0.3274495425 1.3601349546 -0.2062867768
C -0.4211523159 1.1706612276 1.1511493109
O -1.8814403209 1.2355570331 0.8949366213
C -2.5585583525 0.1385144101 1.5264667916
C -4.0802592807 0.2330160805 1.1690779218
C -4.4081997445 0.8327519636 -0.2556241544
C -3.2138053673 0.7734197183 -1.2735069378
O -2.8994835833 1.640749413 -2.1176908185
O 4.1328338034 -2.8502026679 -0.4885572943
O -2.6141234897 -0.528684028 -1.1856637638
O -2.0003240257 -0.7228485863 2.238663217
C -1.6719691948 -0.7514787978 -2.3058610007
C -4.8632576051 -1.1481861405 1.1323593157
C -6.3705455328 -0.8309098586 1.4752140146
C -6.8080097488 -0.0594416254 0.172955569
C -5.5168832838 -0.2103548086 -0.7292873679
O -4.9329790108 -1.5034480614 -0.3038441153
H -4.5337710244 0.8816185317 1.9432914426
H -4.7835255125 1.8692908096 -0.2054668708
H -4.3887356497 -1.9599324505 1.7174059561
H -6.939014137 -1.7670479416 1.5968172969
H -6.4810330992 -0.2269324805 2.3899310506
H -7.6757148319 -0.5354066426 -0.310789742
H -7.0502731027 0.9976380272 0.3683702165
H -5.705526867 -0.21128704 -1.8205468322
O 1.9708153016 0.8580927176 -2.2390418851
C 3.1344724515 -3.9453247513 -0.5142841626
C 5.0145096013 -0.1449488815 1.1727077039
C 6.4081563203 0.5937280095 1.0983083163
C 5.9691221922 2.0029433381 0.5529369918
C 4.3989935873 1.8316826144 0.477404008
O 4.0879451791 0.9217456232 1.6063207504
H 5.4237027991 -0.7989718298 -0.9225611875
H 4.5749232172 1.2880879728 -1.7020774811
H 2.4653558376 -3.8654447375 -1.3952411594
H 4.9710223758 -1.0082261334 1.8648988987
H 6.8523439584 0.6708251462 2.1036882091
H 7.120997281 0.0788273766 0.4348214003
H 6.2370782018 2.8098925032 1.2530056488
H 6.4069227699 2.2299784515 -0.432167337
H 3.8167078895 2.7685532123 0.5671289172
H 2.510000399 -3.9505318472 0.4024014106
H 3.7141417804 -4.8847448917 -0.5737738088
H -0.7549317132 -1.2227983788 -1.9027931712
H -1.4291427504 0.2102361926 -2.8011089579
H -2.135500532 -1.437465243 -3.0439285495
H -0.1726141126 0.1886476526 1.6081414049
H -0.1419566493 1.9788187205 1.8607110787
H 0.022919319 0.5809195484 -0.9313949768
H 0.0913363723 2.3537002664 -0.646998503
$end

$rem
JOBTYPE                   OPT
METHOD                    B3LYP
DFT_D                     d3_op
BASIS                     STO-3G
GEOM_OPT_MAX_CYCLES       100
GEOM_OPT_TOL_GRADIENT     300
GEOM_OPT_TOL_DISPLACEMENT 1200
GEOM_OPT_TOL_ENERGY       100
SYMMETRY                  False
THRESH                    12
SCF_CONVERGENCE           8
MAX_SUB_FILE_NUM          128
MEM_STATIC                400
MEM_TOTAL                 4000
$end
--------------------------------------------------------------

   16   -1510.2824323307      5.05E-09 Convergence criterion met
 Total energy in the final basis set = -1510.28243233
   14   -1510.2828195197      2.05E-09 Convergence criterion met
 Total energy in the final basis set = -1510.28281952
   14   -1510.2851082203      2.72E-09 Convergence criterion met
 Total energy in the final basis set = -1510.28510822
   14   -1510.2872593863      7.03E-09 Convergence criterion met
 Total energy in the final basis set = -1510.28725939
   13   -1510.2891822038      4.59E-09 Convergence criterion met
 Total energy in the final basis set = -1510.28918220
   13   -1510.2897625208      9.07E-09 Convergence criterion met
 Total energy in the final basis set = -1510.28976252
   13   -1510.2913074156      9.89E-09 Convergence criterion met
 Total energy in the final basis set = -1510.29130742
   13   -1510.2921139808      5.17E-09 Convergence criterion met
   12   -1510.2982506245      6.04E-09 Convergence criterion met
 Total energy in the final basis set = -1510.29825062
   11   -1510.2982734165      7.17E-09 Convergence criterion met
 Total energy in the final basis set = -1510.29827342
   11   -1510.2982766814      6.40E-09 Convergence criterion met
 Total energy in the final basis set = -1510.29827668
   10   -1510.2982788005      4.70E-09 Convergence criterion met
 Total energy in the final basis set = -1510.29827880
    9   -1510.2982806876      7.19E-09 Convergence criterion met
 Total energy in the final basis set = -1510.29828069
    9   -1510.2982817288      5.93E-09 Convergence criterion met
 Total energy in the final basis set = -1510.29828173

             Standard Nuclear Orientation (Angstroms)
    I     Atom           X                Y                Z
 ----------------------------------------------------------------
    1      O       1.3245853485    -0.8382956522    -0.3543934395
    2      C       2.4051295787    -1.1558973419     0.2008294221
    3      C       3.8316120067    -0.6471310905    -0.2035434140
    4      C       3.8094839906     0.7137970738    -1.0246290089
    5      C       2.3732042441     1.3242841864    -1.2215880055
    6      O       1.9828217565     1.9632510235     0.0030061781
    7      C       0.5351547123     2.2961282723    -0.0096691151
    8      C      -0.1344738972     1.2926725154     0.9901851241
    9      O      -1.6086229547     1.3059026132     0.8328885228
   10      C      -2.1392678599     0.0154436760     1.1565840618
   11      C      -3.6965970257     0.0774115272     0.9682134851
   12      C      -4.1380413554     0.5227471455    -0.4888673640
   13      C      -2.9302689497     0.7180093699    -1.4678010953
   14      O      -2.6999644625     1.7036790809    -2.2024712655
   15      O       2.4901329804    -2.0504591315     1.2970438643
   16      O      -2.1246875450    -0.4613468420    -1.4005950024
   17      O      -1.4627073142    -0.9545038577     1.5659764927
   18      C      -0.9642979931    -0.3727570284    -2.3196488282
   19      C      -4.3608192918    -1.3568549069     1.0721205396
   20      C      -5.9073732304    -1.1646659149     1.3221541077
   21      C      -6.3817607336    -0.6785769558    -0.0979413360
   22      C      -5.0260394223    -0.7281727507    -0.9104368148
   23      O      -4.3017482493    -1.8732449928    -0.3154750735
   24      H      -4.1065347127     0.7694685007     1.7268980720
   25      H      -4.7236654345     1.4581968232    -0.4729360303
   26      H      -3.8370812267    -2.0450527412     1.7637215298
   27      H      -6.3752706084    -2.1235004886     1.5963131446
   28      H      -6.1146529279    -0.4294824340     2.1160925346
   29      H      -7.1196246905    -1.3690137545    -0.5365058590
   30      H      -6.8142009543     0.3346010218    -0.0771936088
   31      H      -5.1376745979    -0.8649540354    -2.0036506069
   32      O       1.7034122773     1.3418066123    -2.2773853524
   33      C       1.1494611049    -2.6047755254     1.6323040872
   34      C       4.7263248781    -0.2412840868     1.0445491127
   35      C       6.2311889389    -0.1798773313     0.5719592289
   36      C       6.2291518500     1.1510546507    -0.2678829939
   37      C       4.7283643441     1.6199016711    -0.0976412481
   38      O       4.3773648803     1.1782915249     1.2721189878
   39      H       4.3165482619    -1.4512492782    -0.7884899477
   40      H       4.2494058028     0.5710013748    -2.0271945301
   41      H       0.8792819591    -3.4062665213     0.9149817138
   42      H       4.5307045806    -0.8459409223     1.9511683544
   43      H       6.9021473656    -0.1069588620     1.4426906398
   44      H       6.5188830610    -1.0616251814    -0.0225761195
   45      H       6.9167535928     1.8992648803     0.1571872230
   46      H       6.4940224735     0.9879847000    -1.3247850989
   47      H       4.5589959123     2.7081040158    -0.2085151237
   48      H       0.3418205731    -1.8365011281     1.6244966230
   49      H       1.2519313541    -3.0407042663     2.6426749082
   50      H      -0.0427182774    -0.5679458570    -1.7328421262
   51      H      -0.9236854873     0.6343687856    -2.7789639231
   52      H      -1.0770621471    -1.1394017715    -3.1112792788
   53      H       0.2575324075     0.2789154551     0.7516282145
   54      H       0.1377459202     1.5510251255     2.0361174792
   55      H       0.1277731376     2.1677611887    -1.0354598794
   56      H       0.4158818202     3.3498695038     0.3141433927
 ----------------------------------------------------------------

    9   -1510.2982817858      8.36E-09 Convergence criterion met
 Total energy in the final basis set = -1510.29828179
 Final energy is   -1510.29828178577
 **  OPTIMIZATION CONVERGED  **

                    Orbital Energies (a.u.)
 --------------------------------------------------------------

 Alpha MOs
 -- Occupied --
-18.951 -18.930 -18.922 -18.919 -18.892 -18.890 -18.884 -18.876
-18.869 -18.863 -10.117 -10.101 -10.096 -10.089 -10.063 -10.062
-10.061 -10.057 -10.056 -10.055 -10.054 -10.045 -10.038 -10.035
-10.032 -10.031 -10.023 -10.021 -10.018 -10.017  -1.026  -1.011
 -1.003  -0.996  -0.972  -0.966  -0.948  -0.936  -0.929  -0.923
 -0.766  -0.760  -0.727  -0.721  -0.713  -0.702  -0.691  -0.662
 -0.642  -0.611  -0.595  -0.576  -0.548  -0.542  -0.539  -0.534
 -0.516  -0.505  -0.486  -0.472  -0.466  -0.462  -0.449  -0.437
 -0.435  -0.432  -0.425  -0.418  -0.408  -0.406  -0.400  -0.396
 -0.392  -0.380  -0.374  -0.366  -0.358  -0.352  -0.350  -0.344
 -0.341  -0.335  -0.333  -0.329  -0.326  -0.325  -0.317  -0.316
 -0.308  -0.305  -0.301  -0.301  -0.287  -0.286  -0.284  -0.280
 -0.269  -0.265  -0.242  -0.240  -0.236  -0.233  -0.230  -0.191
 -0.176  -0.168  -0.165  -0.160  -0.156  -0.150  -0.146  -0.144
 -0.139

          Ground-State Mulliken Net Atomic Charges

     Atom                 Charge (a.u.)
  ----------------------------------------
      1 O                    -0.217618
      2 C                     0.223189
      3 C                    -0.077915
      4 C                    -0.080158
      5 C                     0.212901
      6 O                    -0.175671
      7 C                    -0.053118
      8 C                    -0.061408
      9 O                    -0.175626
     10 C                     0.223189
     11 C                    -0.077502
     12 C                    -0.078137
     13 C                     0.211177
     14 O                    -0.217406
     15 O                    -0.164547
     16 O                    -0.171931
     17 O                    -0.218403
     18 C                    -0.147528
     19 C                     0.024698
     20 C                    -0.143884
     21 C                    -0.144176
     22 C                     0.026093
     23 O                    -0.185335
     24 H                     0.083834
     25 H                     0.084342
     26 H                     0.088430
     27 H                     0.077354
     28 H                     0.072435
     29 H                     0.077357
     30 H                     0.073432
     31 H                     0.082699
     32 O                    -0.214805
     33 C                    -0.140269
     34 C                     0.024337
     35 C                    -0.143661
     36 C                    -0.144457
     37 C                     0.026836
     38 O                    -0.186474
     39 H                     0.087537
     40 H                     0.084471
     41 H                     0.086469
     42 H                     0.090756
     43 H                     0.078736
     44 H                     0.073529
     45 H                     0.078436
     46 H                     0.073928
     47 H                     0.086488
     48 H                     0.118383
     49 H                     0.089452
     50 H                     0.107631
     51 H                     0.098317
     52 H                     0.078607
     53 H                     0.105912
     54 H                     0.079480
     55 H                     0.104102
     56 H                     0.085493
  ----------------------------------------
  Sum of atomic charges =    -0.000000

                    Cartesian Multipole Moments
 -----------------------------------------------------------------
    Charge (ESU x 10^10)
                 0.0000
    Dipole Moment (Debye)
         X       1.1523      Y      -0.8416      Z       1.4162
       Tot       2.0104
    Quadrupole Moments (Debye-Ang)
        XX    -134.6819     XY      -3.7550     YY    -161.9947
        XZ      -8.7276     YZ       2.2030     ZZ    -162.9057

 Total job time:  94.11s(wall), 4487.46s(cpu)
        *  Thank you very much for using Q-Chem.  Have a nice day.  *
