 Q-Chem 5.0, Q-Chem, Inc., Pleasanton, CA (2017)
 Q-Chem 5.0.1 for Intel X86 EM64T Linux

User input:
--------------------------------------------------------------
$molecule
0  1
O -0.7862495951 -0.6975484564 1.0409797296
C -1.7916826445 -1.4130947277 0.8267386579
C -3.2390269264 -0.9947654398 0.404094855
C -3.6930473648 0.4740950111 0.7882767462
C -2.5346107964 1.4251320895 1.2674165316
O -1.6798647322 1.6890664472 0.1585422652
C -0.6115143057 2.6528946727 0.5232046256
C 0.4914267004 2.4792066109 -0.5792491187
O 1.7915883443 3.0122838515 -0.0996801284
C 2.8519690255 2.034287475 -0.1941482292
C 2.6413539185 0.7570184455 0.7291133187
C 2.0261707148 -0.5700101455 0.1028729414
C 1.8942585637 -0.5281706548 -1.4540822001
O 0.9973391649 0.0817232478 -2.0890222271
O -1.7801341498 -2.8426163667 0.8851402502
O 2.9149173773 -1.2915208572 -2.0862908983
O 3.9210043625 2.32314429 -0.7713762871
C 2.7721825335 -1.2086536162 -3.5598018791
C 4.0232926426 0.2069289601 1.2975383094
C 3.7220401537 -0.5181229987 2.6651849534
C 2.9744028862 -1.8052636255 2.1550068452
C 3.0929904404 -1.6334717364 0.5857189874
O 4.3745859441 -0.9135869708 0.397367445
H 1.9909800159 1.0845739304 1.5600433925
H 1.0058902919 -0.7389528056 0.5159601634
H 4.8386569746 0.955636586 1.3181652208
H 4.6635615605 -0.7767625383 3.1757491393
H 3.1066167044 0.0949050564 3.3428464536
H 3.4764869996 -2.727947873 2.4858602952
H 1.9235622733 -1.8353088488 2.4835235901
H 3.0915324208 -2.576730472 0.0067638018
O -2.3872933547 1.9028654756 2.4140692941
C -0.4262801742 -3.347058322 1.2092814246
C -3.4696559884 -0.990690985 -1.1782334825
C -5.0132809651 -1.2147970906 -1.4197968702
C -5.5879322692 0.1735013773 -0.9501099025
C -4.259818216 0.9638011433 -0.6144170334
O -3.271250707 0.4177112776 -1.5739108966
H -3.9174549149 -1.7338465605 0.8669166221
H -4.4662363517 0.4574840677 1.5764646065
H -0.0535330314 -2.9319965239 2.1675668303
H -2.7947723703 -1.6583391633 -1.7483888537
H -5.20887089 -1.3901155046 -2.4899218295
H -5.412500395 -2.0639305559 -0.8427040263
H -6.1410222682 0.6765078241 -1.7590153057
H -6.249022245 0.0843629838 -0.073176761
H -4.3304336201 2.0637092982 -0.7178205278
H 0.303419589 -3.1043658467 0.4103360792
H -0.5233388955 -4.4448436191 1.2955622772
H 3.6023058208 -1.8071377897 -3.9774892389
H 2.8505510502 -0.1611883422 -3.914857175
H 1.8019865555 -1.6257555325 -3.8990607487
H 0.539453778 1.420120093 -0.9357406231
H 0.2070113114 3.0922222795 -1.462318776
H -0.2066320444 2.4175058973 1.5314813074
H -1.0123318892 3.6893088365 0.5447383184
$end

$rem
JOBTYPE                   OPT
METHOD                    B3LYP
DFT_D                     d3_op
BASIS                     STO-3G
GEOM_OPT_MAX_CYCLES       100
GEOM_OPT_TOL_GRADIENT     300
GEOM_OPT_TOL_DISPLACEMENT 1200
GEOM_OPT_TOL_ENERGY       100
SYMMETRY                  False
THRESH                    12
SCF_CONVERGENCE           8
MAX_SUB_FILE_NUM          128
MEM_STATIC                400
MEM_TOTAL                 4000
$end
--------------------------------------------------------------

   16   -1510.2704363513      4.22E-09 Convergence criterion met
 Total energy in the final basis set = -1510.27043635
   14   -1510.2616042669      7.02E-09 Convergence criterion met
 Total energy in the final basis set = -1510.26160427
   14   -1510.2695115601      4.60E-09 Convergence criterion met
 Total energy in the final basis set = -1510.26951156
   15   -1510.2719397290      8.72E-09 Convergence criterion met
 Total energy in the final basis set = -1510.27193973
   14   -1510.2672692227      7.73E-09 Convergence criterion met
 Total energy in the final basis set = -1510.26726922
   14   -1510.2726224473      9.11E-09 Convergence criterion met
 Total energy in the final basis set = -1510.27262245
   13   -1510.2759862335      3.59E-09 Convergence criterion met
 Total energy in the final basis set = -1510.27598623
   14   -1510.2750655743      3.24E-09 Convergence criterion met
   11   -1510.2962905572      3.69E-09 Convergence criterion met
 Total energy in the final basis set = -1510.29629056
   10   -1510.2962955162      9.99E-09 Convergence criterion met
 Total energy in the final basis set = -1510.29629552
    9   -1510.2962980477      7.72E-09 Convergence criterion met
 Total energy in the final basis set = -1510.29629805
    9   -1510.2963000977      9.88E-09 Convergence criterion met
 Total energy in the final basis set = -1510.29630010
   10   -1510.2963025107      9.89E-09 Convergence criterion met
 Total energy in the final basis set = -1510.29630251
   10   -1510.2963038721      7.18E-09 Convergence criterion met
 Total energy in the final basis set = -1510.29630387

             Standard Nuclear Orientation (Angstroms)
    I     Atom           X                Y                Z
 ----------------------------------------------------------------
    1      O      -0.7142687525    -0.7739451984    -0.4902271008
    2      C      -1.7268335667    -1.4993673221    -0.3369960882
    3      C      -3.0189769239    -1.0906513544     0.4418008543
    4      C      -2.9230485975     0.3664493965     1.0602595229
    5      C      -1.5399640876     1.0922108355     0.8294218157
    6      O      -1.6258834545     1.9069736627    -0.3428711754
    7      C      -0.3403611952     2.5977652632    -0.6104080594
    8      C       0.5818347142     1.6821016014    -1.5134789512
    9      O       1.9968471969     2.0990847674    -1.4951457026
   10      C       2.7573260577     1.7154154435    -0.3266389429
   11      C       2.1679619202     0.6546301568     0.6852007859
   12      C       2.0875460672    -0.8371587804     0.1452524007
   13      C       2.4131404472    -1.0126804317    -1.3672603544
   14      O       1.6925388842    -1.5875591169    -2.2225720274
   15      O      -1.8689921621    -2.8098194422    -0.8463491171
   16      O       3.6627527237    -0.4034363539    -1.6708221108
   17      O       3.8686931574     2.2704285300    -0.1866928519
   18      C       3.9349059271    -0.4769193634    -3.1254945105
   19      C       3.1809356680     0.4679877188     1.8886080129
   20      C       2.4262312782    -0.2821367447     3.0565956934
   21      C       2.4013086559    -1.7566698290     2.5066668873
   22      C       3.1177593185    -1.5689732382     1.1111044257
   23      O       4.1426427045    -0.5409397124     1.3828703765
   24      H       1.1617709817     0.9648518869     1.0496329905
   25      H       1.0590126724    -1.2181398951     0.2730406983
   26      H       3.7158580511     1.3940300070     2.1741703223
   27      H       2.9946191481    -0.2112280001     3.9974409124
   28      H       1.4151461697     0.1261791652     3.2168798845
   29      H       2.9822162658    -2.4385874589     3.1482595150
   30      H       1.3797624758    -2.1550620089     2.3990077604
   31      H       3.5820873214    -2.4819728962     0.6898960919
   32      O      -0.5755839675     1.0967090870     1.6350175066
   33      C      -0.6588750420    -3.2638420991    -1.5872349032
   34      C      -4.2645274265    -0.9271294101    -0.5348253653
   35      C      -5.5771344000    -0.8808741281     0.3413837079
   36      C      -5.4825567573     0.5665889957     0.9509985209
   37      C      -4.1309048301     1.0800558432     0.3139458984
   38      O      -4.1228028660     0.4588162588    -1.0312157609
   39      H      -3.2188927342    -1.8547387339     1.2147177815
   40      H      -3.0841291270     0.3283042594     2.1525587250
   41      H      -0.2104883155    -4.1046438774    -1.0217431678
   42      H      -4.2769558486    -1.6487000581    -1.3750316047
   43      H      -6.4675384378    -0.9933361602    -0.2975133893
   44      H      -5.5922890471    -1.6691658110     1.1110304308
   45      H      -6.3241957725     1.1977556750     0.6244908417
   46      H      -5.4485390895     0.5651867171     2.0521758976
   47      H      -4.0318324777     2.1790818750     0.2320640680
   48      H       0.1083142586    -2.4589465921    -1.7326065945
   49      H      -1.0015950072    -3.6399125881    -2.5701520018
   50      H       4.9300900376    -0.0184124383    -3.2698471688
   51      H       3.1766087357     0.0902133618    -3.7028876311
   52      H       3.9472115135    -1.5259913516    -3.4848307348
   53      H       0.4146183102     0.6287191997    -1.2061022964
   54      H       0.2666983746     1.7827173036    -2.5713693882
   55      H       0.1747512293     2.8379264770     0.3437384197
   56      H      -0.5989866624     3.5391883192    -1.1338528056
 ----------------------------------------------------------------

   10   -1510.2963031890      5.47E-09 Convergence criterion met
 Total energy in the final basis set = -1510.29630319
 Final energy is   -1510.29630318900
 **  OPTIMIZATION CONVERGED  **

                    Orbital Energies (a.u.)
 --------------------------------------------------------------

 Alpha MOs
 -- Occupied --
-18.955 -18.943 -18.939 -18.914 -18.899 -18.896 -18.879 -18.878
-18.877 -18.857 -10.123 -10.111 -10.102 -10.083 -10.070 -10.068
-10.066 -10.063 -10.056 -10.053 -10.052 -10.051 -10.046 -10.044
-10.028 -10.026 -10.024 -10.012 -10.011 -10.007  -1.031  -1.016
 -1.015  -0.989  -0.978  -0.959  -0.955  -0.942  -0.939  -0.921
 -0.772  -0.752  -0.731  -0.719  -0.712  -0.695  -0.693  -0.666
 -0.658  -0.615  -0.593  -0.585  -0.554  -0.545  -0.541  -0.528
 -0.522  -0.505  -0.490  -0.479  -0.473  -0.459  -0.454  -0.447
 -0.441  -0.426  -0.422  -0.416  -0.412  -0.409  -0.405  -0.397
 -0.393  -0.388  -0.378  -0.376  -0.368  -0.360  -0.352  -0.349
 -0.345  -0.343  -0.336  -0.331  -0.324  -0.322  -0.318  -0.312
 -0.309  -0.304  -0.299  -0.298  -0.295  -0.288  -0.284  -0.277
 -0.265  -0.264  -0.256  -0.247  -0.242  -0.227  -0.222  -0.192
 -0.185  -0.180  -0.175  -0.161  -0.156  -0.154  -0.151  -0.133
 -0.131

          Ground-State Mulliken Net Atomic Charges

     Atom                 Charge (a.u.)
  ----------------------------------------
      1 O                    -0.217396
      2 C                     0.224747
      3 C                    -0.078278
      4 C                    -0.080481
      5 C                     0.221076
      6 O                    -0.167576
      7 C                    -0.053586
      8 C                    -0.065179
      9 O                    -0.178726
     10 C                     0.206267
     11 C                    -0.101107
     12 C                    -0.089641
     13 C                     0.210908
     14 O                    -0.221434
     15 O                    -0.165764
     16 O                    -0.156832
     17 O                    -0.203658
     18 C                    -0.125954
     19 C                     0.025426
     20 C                    -0.146146
     21 C                    -0.142727
     22 C                     0.024976
     23 O                    -0.187466
     24 H                     0.105016
     25 H                     0.093245
     26 H                     0.088206
     27 H                     0.074359
     28 H                     0.080619
     29 H                     0.074773
     30 H                     0.070261
     31 H                     0.078229
     32 O                    -0.227420
     33 C                    -0.149401
     34 C                     0.025756
     35 C                    -0.143527
     36 C                    -0.144375
     37 C                     0.026466
     38 O                    -0.186803
     39 H                     0.088944
     40 H                     0.085336
     41 H                     0.081031
     42 H                     0.088104
     43 H                     0.079907
     44 H                     0.074618
     45 H                     0.079548
     46 H                     0.074242
     47 H                     0.089687
     48 H                     0.124928
     49 H                     0.085594
     50 H                     0.097201
     51 H                     0.092223
     52 H                     0.089059
     53 H                     0.106415
     54 H                     0.085873
     55 H                     0.090906
     56 H                     0.089533
  ----------------------------------------
  Sum of atomic charges =    -0.000000

                    Cartesian Multipole Moments
 -----------------------------------------------------------------
    Charge (ESU x 10^10)
                -0.0000
    Dipole Moment (Debye)
         X      -4.5898      Y      -2.4898      Z       0.7771
       Tot       5.2791
    Quadrupole Moments (Debye-Ang)
        XX    -167.0388     XY      -7.3903     YY    -157.2402
        XZ      -9.2349     YZ       1.9042     ZZ    -155.9788

 Total job time:  155.84s(wall), 7437.32s(cpu)
        *  Thank you very much for using Q-Chem.  Have a nice day.  *
