 Q-Chem 5.0, Q-Chem, Inc., Pleasanton, CA (2017)
 Q-Chem 5.0.1 for Intel X86 EM64T Linux

User input:
--------------------------------------------------------------
$molecule
0  1
O -3.94934 -3.66094 2.70899
C -3.26408 -4.56952 2.26188
C -3.36658 -6.02376 2.66595
C -3.93558 -6.32674 4.06176
C -4.50355 -5.15267 4.82795
O -5.63848 -4.7038 4.21486
C -6.28209 -3.64284 4.92857
C -7.23916 -2.89416 4.00683
O -7.52597 -1.59566 4.54953
C -7.29063 -0.55094 3.71748
C -5.83243 -0.40669 3.35208
C -5.43949 -1.02303 2.00153
C -6.58678 -1.36351 1.07175
O -7.31631 -2.33917 1.17391
O -2.4374 -4.31446 1.21382
O -6.81166 -0.52876 0.0181
O -8.06388 0.39403 3.68584
C -7.83098 -0.67891 -0.89889
C -5.37344 1.05535 3.17152
C -3.86878 1.15234 3.41225
C -3.34799 0.43961 2.18506
C -4.66255 0.19476 1.42941
O -5.47231 1.28529 1.79189
H -5.23831 -0.8266 4.19401
H -4.7595 -1.8391 2.00912
H -5.90727 1.77409 3.83109
H -3.59555 2.22972 3.34558
H -3.51083 0.74507 4.38287
H -2.69187 1.14269 1.62574
H -2.80887 -0.50837 2.38851
H -4.44844 0.08892 0.34288
O -4.09665 -4.7875 5.9246
C -2.20964 -3.06435 0.68022
C -4.34886 -6.82014 1.78639
C -3.99509 -8.30707 1.83042
C -4.44482 -8.66524 3.23367
C -5.04428 -7.3296 3.68412
O -5.56443 -6.78252 2.49437
H -2.34132 -6.44607 2.55864
H -3.16064 -6.78592 4.71594
H -1.76058 -2.40204 1.44894
H -4.381 -6.46027 0.73462
H -4.65816 -8.82853 1.10343
H -2.9352 -8.54463 1.59585
H -5.24458 -9.43562 3.15992
H -3.64168 -9.01589 3.91713
H -5.77002 -7.48397 4.51284
H -3.1575 -2.62651 0.30205
H -1.49766 -3.15529 -0.16538
H -7.77447 0.14227 -1.64248
H -8.81527 -0.62869 -0.38577
H -7.73122 -1.65025 -1.42835
H -6.63574 -2.86796 3.12402
H -8.16275 -3.4845 3.83076
H -5.50758 -2.89214 5.21127
H -6.78055 -3.99574 5.85764
$end

$opt
CONSTRAINT
tors           1           2           3           4     -25.007
tors           3           4           5           6     +67.937
tors           4           5           6           7    +176.375
tors           5           6           7           8    +161.507
tors           6           7           8           9    -160.277
tors           7           8           9          10    +125.553
tors           8           9          10          11     -63.931
tors           9          10          11          12     +97.609
tors          11          12          13          14     -77.502
ENDCONSTRAINT
$end

$rem
JOBTYPE                   OPT
METHOD                    B3LYP
DFT_D                     d3_op
BASIS                     STO-3G
GEOM_OPT_MAX_CYCLES       100
GEOM_OPT_TOL_GRADIENT     300
GEOM_OPT_TOL_DISPLACEMENT 1200
GEOM_OPT_TOL_ENERGY       100
SYMMETRY                  False
THRESH                    12
SCF_CONVERGENCE           8
MAX_SUB_FILE_NUM          128
MEM_STATIC                400
MEM_TOTAL                 4000
$end
--------------------------------------------------------------

   15   -1510.1293729929      6.17E-09 Convergence criterion met
 Total energy in the final basis set = -1510.12937299
   13   -1510.2023453859      7.28E-09 Convergence criterion met
 Total energy in the final basis set = -1510.20234539
   14   -1510.2393587787      7.29E-09 Convergence criterion met
 Total energy in the final basis set = -1510.23935878
   14   -1510.2554433716      9.36E-09 Convergence criterion met
 Total energy in the final basis set = -1510.25544337
   13   -1510.2642109780      7.99E-09 Convergence criterion met
 Total energy in the final basis set = -1510.26421098
   14   -1510.2682625522      2.04E-09 Convergence criterion met
 Total energy in the final basis set = -1510.26826255
   13   -1510.2695649010      3.82E-09 Convergence criterion met
 Total energy in the final basis set = -1510.26956490
   12   -1510.2701451439      8.27E-09 Convergence criterion met
   12   -1510.2701472416      5.91E-09 Convergence criterion met
 Total energy in the final basis set = -1510.27014724
   12   -1510.2703038209      5.00E-09 Convergence criterion met
 Total energy in the final basis set = -1510.27030382
   11   -1510.2703304195      4.44E-09 Convergence criterion met
 Total energy in the final basis set = -1510.27033042
   10   -1510.2703405857      6.38E-09 Convergence criterion met
 Total energy in the final basis set = -1510.27034059
   11   -1510.2703470178      6.12E-09 Convergence criterion met
 Total energy in the final basis set = -1510.27034702
   10   -1510.2703491548      9.59E-09 Convergence criterion met
 Total energy in the final basis set = -1510.27034915

             Standard Nuclear Orientation (Angstroms)
    I     Atom           X                Y                Z
 ----------------------------------------------------------------
    1      O      -0.7862495951    -0.6975484564     1.0409797296
    2      C      -1.7916826445    -1.4130947277     0.8267386579
    3      C      -3.2390269264    -0.9947654398     0.4040948550
    4      C      -3.6930473648     0.4740950111     0.7882767462
    5      C      -2.5346107964     1.4251320895     1.2674165316
    6      O      -1.6798647322     1.6890664472     0.1585422652
    7      C      -0.6115143057     2.6528946727     0.5232046256
    8      C       0.4914267004     2.4792066109    -0.5792491187
    9      O       1.7915883443     3.0122838515    -0.0996801284
   10      C       2.8519690255     2.0342874750    -0.1941482292
   11      C       2.6413539185     0.7570184455     0.7291133187
   12      C       2.0261707148    -0.5700101455     0.1028729414
   13      C       1.8942585637    -0.5281706548    -1.4540822001
   14      O       0.9973391649     0.0817232478    -2.0890222271
   15      O      -1.7801341498    -2.8426163667     0.8851402502
   16      O       2.9149173773    -1.2915208572    -2.0862908983
   17      O       3.9210043625     2.3231442900    -0.7713762871
   18      C       2.7721825335    -1.2086536162    -3.5598018791
   19      C       4.0232926426     0.2069289601     1.2975383094
   20      C       3.7220401537    -0.5181229987     2.6651849534
   21      C       2.9744028862    -1.8052636255     2.1550068452
   22      C       3.0929904404    -1.6334717364     0.5857189874
   23      O       4.3745859441    -0.9135869708     0.3973674450
   24      H       1.9909800159     1.0845739304     1.5600433925
   25      H       1.0058902919    -0.7389528056     0.5159601634
   26      H       4.8386569746     0.9556365860     1.3181652208
   27      H       4.6635615605    -0.7767625383     3.1757491393
   28      H       3.1066167044     0.0949050564     3.3428464536
   29      H       3.4764869996    -2.7279478730     2.4858602952
   30      H       1.9235622733    -1.8353088488     2.4835235901
   31      H       3.0915324208    -2.5767304720     0.0067638018
   32      O      -2.3872933547     1.9028654756     2.4140692941
   33      C      -0.4262801742    -3.3470583220     1.2092814246
   34      C      -3.4696559884    -0.9906909850    -1.1782334825
   35      C      -5.0132809651    -1.2147970906    -1.4197968702
   36      C      -5.5879322692     0.1735013773    -0.9501099025
   37      C      -4.2598182160     0.9638011433    -0.6144170334
   38      O      -3.2712507070     0.4177112776    -1.5739108966
   39      H      -3.9174549149    -1.7338465605     0.8669166221
   40      H      -4.4662363517     0.4574840677     1.5764646065
   41      H      -0.0535330314    -2.9319965239     2.1675668303
   42      H      -2.7947723703    -1.6583391633    -1.7483888537
   43      H      -5.2088708900    -1.3901155046    -2.4899218295
   44      H      -5.4125003950    -2.0639305559    -0.8427040263
   45      H      -6.1410222682     0.6765078241    -1.7590153057
   46      H      -6.2490222450     0.0843629838    -0.0731767610
   47      H      -4.3304336201     2.0637092982    -0.7178205278
   48      H       0.3034195890    -3.1043658467     0.4103360792
   49      H      -0.5233388955    -4.4448436191     1.2955622772
   50      H       3.6023058208    -1.8071377897    -3.9774892389
   51      H       2.8505510502    -0.1611883422    -3.9148571750
   52      H       1.8019865555    -1.6257555325    -3.8990607487
   53      H       0.5394537780     1.4201200930    -0.9357406231
   54      H       0.2070113114     3.0922222795    -1.4623187760
   55      H      -0.2066320444     2.4175058973     1.5314813074
   56      H      -1.0123318892     3.6893088365     0.5447383184
 ----------------------------------------------------------------

   10   -1510.2703491655      5.70E-09 Convergence criterion met
 Total energy in the final basis set = -1510.27034917
 Final energy is   -1510.27034916553
 **  OPTIMIZATION CONVERGED  **

                    Orbital Energies (a.u.)
 --------------------------------------------------------------

 Alpha MOs
 -- Occupied --
-18.952 -18.946 -18.926 -18.898 -18.898 -18.894 -18.884 -18.882
-18.881 -18.866 -10.118 -10.104 -10.094 -10.094 -10.079 -10.068
-10.067 -10.064 -10.058 -10.056 -10.053 -10.046 -10.043 -10.040
-10.027 -10.026 -10.025 -10.024 -10.018 -10.016  -1.029  -1.019
 -1.005  -0.993  -0.975  -0.965  -0.953  -0.942  -0.931  -0.924
 -0.768  -0.757  -0.728  -0.719  -0.715  -0.701  -0.688  -0.676
 -0.663  -0.608  -0.596  -0.574  -0.550  -0.543  -0.542  -0.534
 -0.520  -0.509  -0.491  -0.479  -0.469  -0.453  -0.442  -0.439
 -0.438  -0.432  -0.428  -0.423  -0.416  -0.415  -0.412  -0.399
 -0.395  -0.387  -0.375  -0.371  -0.363  -0.358  -0.354  -0.348
 -0.343  -0.337  -0.333  -0.331  -0.327  -0.326  -0.319  -0.317
 -0.311  -0.307  -0.303  -0.303  -0.296  -0.287  -0.287  -0.279
 -0.270  -0.263  -0.256  -0.243  -0.238  -0.229  -0.228  -0.195
 -0.183  -0.177  -0.164  -0.157  -0.151  -0.147  -0.147  -0.144
 -0.138

          Ground-State Mulliken Net Atomic Charges

     Atom                 Charge (a.u.)
  ----------------------------------------
      1 O                    -0.211669
      2 C                     0.217419
      3 C                    -0.079085
      4 C                    -0.079785
      5 C                     0.209478
      6 O                    -0.164901
      7 C                    -0.047758
      8 C                    -0.065300
      9 O                    -0.191517
     10 C                     0.212244
     11 C                    -0.086085
     12 C                    -0.096377
     13 C                     0.208783
     14 O                    -0.215550
     15 O                    -0.166864
     16 O                    -0.159434
     17 O                    -0.188262
     18 C                    -0.127019
     19 C                     0.024432
     20 C                    -0.142891
     21 C                    -0.145483
     22 C                     0.022828
     23 O                    -0.187241
     24 H                     0.081449
     25 H                     0.108513
     26 H                     0.087270
     27 H                     0.077193
     28 H                     0.073985
     29 H                     0.075242
     30 H                     0.070642
     31 H                     0.082661
     32 O                    -0.218599
     33 C                    -0.129258
     34 C                     0.027734
     35 C                    -0.142313
     36 C                    -0.145161
     37 C                     0.027484
     38 O                    -0.180389
     39 H                     0.087585
     40 H                     0.084606
     41 H                     0.089959
     42 H                     0.084566
     43 H                     0.079059
     44 H                     0.074347
     45 H                     0.079093
     46 H                     0.074221
     47 H                     0.085006
     48 H                     0.088553
     49 H                     0.094940
     50 H                     0.094194
     51 H                     0.094853
     52 H                     0.089028
     53 H                     0.113919
     54 H                     0.079434
     55 H                     0.088815
     56 H                     0.081410
  ----------------------------------------
  Sum of atomic charges =    -0.000000

                    Cartesian Multipole Moments
 -----------------------------------------------------------------
    Charge (ESU x 10^10)
                -0.0000
    Dipole Moment (Debye)
         X      -3.3805      Y      -4.1622      Z       0.4186
       Tot       5.3784
    Quadrupole Moments (Debye-Ang)
        XX    -161.4971     XY      -4.2459     YY    -158.9008
        XZ       4.8488     YZ       0.1958     ZZ    -157.7772

 Total job time:  44.45s(wall), 2116.30s(cpu)
        *  Thank you very much for using Q-Chem.  Have a nice day.  *
