 Q-Chem 5.0, Q-Chem, Inc., Pleasanton, CA (2017)
 Q-Chem 5.0.1 for Intel X86 EM64T Linux

User input:
--------------------------------------------------------------
$molecule
0  1
O 4.1917644751 -1.2191778187 1.5384481735
C 5.2595737804 -1.0656721227 0.908642547
C 5.5547300271 -0.066626572 -0.2647755052
C 4.2693027176 0.3598047978 -1.0802326082
C 3.0268603122 -0.5899607644 -0.9282800235
O 1.8354961975 0.1967527607 -1.069082948
C 0.662968209 -0.6853960999 -1.288604573
C -0.6043825199 0.2277332334 -1.1978268305
O -1.7395207365 -0.6555821232 -0.8324297139
C -2.9332476061 0.127029268 -0.6457571749
C -4.0527806694 -0.8789582616 -0.207200186
C -4.8771548515 -0.5577217273 1.1128669908
C -4.7856036204 0.8860573537 1.7228254332
O -4.749531491 1.1627267114 2.9435226402
O 6.4666516178 -1.786059861 1.1870430308
O -4.9509602935 1.8558041201 0.690192755
O -2.9802179268 1.3549214593 -0.8650093535
C -4.9471680028 3.2197498176 1.2660782991
C -5.2314285413 -1.0273113599 -1.2770632581
C -5.8395765555 -2.4734109034 -1.1048626943
C -6.5872912663 -2.3137914105 0.27075942
C -6.360467029 -0.7773579866 0.5710412929
O -6.3084011607 -0.1519574623 -0.7685453406
H -3.5422437478 -1.8506628017 -0.0846746673
H -4.6248531367 -1.2704346246 1.9178001719
H -4.9576513578 -0.7450114761 -2.3121356899
H -6.5448532763 -2.6904850525 -1.9231623461
H -5.0656123812 -3.2572839124 -1.0851272475
H -7.6623191383 -2.5350932773 0.1779015067
H -6.162048234 -2.9534011306 1.0606274343
H -7.1452589528 -0.3014418742 1.1906009951
O 3.0303556976 -1.8378349931 -0.8657858556
C 6.2439928861 -2.7255157097 2.3105534995
C 5.9496284938 1.3357207747 0.3775574891
C 6.4366144985 2.3215504757 -0.7592358033
C 5.0652956715 2.7652743312 -1.3924992463
C 4.0607707839 1.8564697336 -0.5844142643
O 4.6297356878 1.8719554098 0.7828269899
H 6.3521188004 -0.4800028371 -0.9062814937
H 4.5061323904 0.3582306267 -2.1616512827
H 5.4405653053 -3.4539506589 2.0781010534
H 6.6249951619 1.2596937085 1.2518776442
H 6.9807531918 3.1752293425 -0.3251088556
H 7.0948179401 1.816135972 -1.4842248148
H 4.8592425651 3.8300208492 -1.1975635338
H 5.0152463217 2.5879074724 -2.4785303195
H 3.0048790206 2.1880446653 -0.5773363666
H 5.9731476031 -2.1903764045 3.2437241819
H 7.2001731952 -3.261227306 2.4553546865
H -5.1065778862 3.9062080777 0.4146676787
H -3.9788406981 3.4533561413 1.7537399424
H -5.7585707296 3.3512411273 2.0110392246
H -0.4444690728 1.003050036 -0.4164835114
H -0.7958765866 0.7495091762 -2.160406436
H 0.6130545358 -1.4759295329 -0.5075943545
H 0.7286483307 -1.186223952 -2.2787412998
$end

$rem
JOBTYPE                   OPT
METHOD                    B3LYP
DFT_D                     d3_op
BASIS                     STO-3G
GEOM_OPT_MAX_CYCLES       100
GEOM_OPT_TOL_GRADIENT     300
GEOM_OPT_TOL_DISPLACEMENT 1200
GEOM_OPT_TOL_ENERGY       100
SYMMETRY                  False
THRESH                    12
SCF_CONVERGENCE           8
MAX_SUB_FILE_NUM          128
MEM_STATIC                400
MEM_TOTAL                 4000
$end
--------------------------------------------------------------

   16   -1510.2695860213      4.75E-09 Convergence criterion met
 Total energy in the final basis set = -1510.26958602
   13   -1510.2717173000      9.91E-09 Convergence criterion met
 Total energy in the final basis set = -1510.27171730
   13   -1510.2732265202      6.85E-09 Convergence criterion met
 Total energy in the final basis set = -1510.27322652
   13   -1510.2743979721      5.81E-09 Convergence criterion met
 Total energy in the final basis set = -1510.27439797
   13   -1510.2754119461      3.83E-09 Convergence criterion met
 Total energy in the final basis set = -1510.27541195
   13   -1510.2762957092      2.49E-09 Convergence criterion met
 Total energy in the final basis set = -1510.27629571
   12   -1510.2771261729      9.46E-09 Convergence criterion met
 Total energy in the final basis set = -1510.27712617
   13   -1510.2779122734      2.51E-09 Convergence criterion met
   11   -1510.2982991665      9.54E-09 Convergence criterion met
 Total energy in the final basis set = -1510.29829917
   11   -1510.2983070232      7.06E-09 Convergence criterion met
 Total energy in the final basis set = -1510.29830702
   11   -1510.2983041524      3.85E-09 Convergence criterion met
 Total energy in the final basis set = -1510.29830415
   11   -1510.2983052295      1.95E-09 Convergence criterion met
 Total energy in the final basis set = -1510.29830523
    9   -1510.2983142494      5.80E-09 Convergence criterion met
 Total energy in the final basis set = -1510.29831425
    9   -1510.2983152853      4.04E-09 Convergence criterion met
 Total energy in the final basis set = -1510.29831529

             Standard Nuclear Orientation (Angstroms)
    I     Atom           X                Y                Z
 ----------------------------------------------------------------
    1      O      -0.8832360026     0.6359883867    -0.1870484057
    2      C      -1.9335683887     0.5198113029     0.4883487954
    3      C      -3.3903835023     0.6102526760    -0.0800417612
    4      C      -3.4438528279     0.4186961493    -1.6501741750
    5      C      -2.0638843296     0.0950081521    -2.3352720962
    6      O      -1.7226326685    -1.2757697203    -2.0607755860
    7      C      -0.5385239502    -1.6816594801    -2.8489243855
    8      C       0.6935838414    -1.9789044912    -1.9274184445
    9      O       1.4008701980    -0.7116595328    -1.6215819201
   10      C       1.5031352681    -0.5068224143    -0.2192655112
   11      C       2.1599592810     0.8912284550     0.0479074248
   12      C       2.9262972806     0.9791375016     1.4332158112
   13      C       2.8891346881    -0.3442837701     2.2755391060
   14      O       2.2882372165    -0.5244513934     3.3574225568
   15      O      -1.9878196396     0.3096352813     1.8899517973
   16      O       3.7192832851    -1.3226423629     1.6387299731
   17      O       1.1023828527    -1.3291051246     0.6433144708
   18      C       3.6229908669    -2.6089838622     2.3633528242
   19      C       3.3238073403     1.2305093664    -0.9730976378
   20      C       3.6281503271     2.7774003596    -0.8848481399
   21      C       4.4001356537     2.8567571202     0.4846258854
   22      C       4.3906227256     1.3407639431     0.9286876501
   23      O       4.5121492845     0.6037891157    -0.3491854680
   24      H       1.3399072855     1.6318191990    -0.0050251763
   25      H       2.5039683820     1.7798839143     2.0649967503
   26      H       3.1547260873     0.8292252257    -1.9906898081
   27      H       4.2638848112     3.0935611778    -1.7270181641
   28      H       2.7070726255     3.3817229537    -0.8913984037
   29      H       5.4342655047     3.2099533375     0.3452677551
   30      H       3.9008561990     3.5083955503     1.2192440044
   31      H       5.2007118068     1.0468277365     1.6235261784
   32      O      -1.4327426928     0.8309084240    -3.1258461669
   33      C      -0.6193100826     0.2260854761     2.4656631317
   34      C      -4.3320176390    -0.5698734131     0.4130243580
   35      C      -5.8282383619    -0.1433470012     0.1445624155
   36      C      -5.9080675501    -0.2974533132    -1.4199498284
   37      C      -4.4496560958    -0.8095472200    -1.7535365734
   38      O      -4.0946754374    -1.6404141282    -0.5806300004
   39      H      -3.8086058868     1.5911359204     0.2128157409
   40      H      -3.8448306435     1.3210769057    -2.1445234198
   41      H      -0.1519120836     1.2309066660     2.5034914405
   42      H      -4.1076935317    -0.9251175178     1.4374070253
   43      H      -6.5218385395    -0.8311707685     0.6538055041
   44      H      -6.0347014294     0.8838533066     0.4846097958
   45      H      -6.6559596672    -1.0507745383    -1.7146092983
   46      H      -6.1417182127     0.6502620279    -1.9307971926
   47      H      -4.3600633974    -1.3990476335    -2.6862235341
   48      H       0.0378056643    -0.4583954300     1.8773756828
   49      H      -0.7463377055    -0.1526204725     3.4954944117
   50      H       4.3125679329    -3.3026613851     1.8481991865
   51      H       2.5904227287    -3.0131026385     2.3235224097
   52      H       3.9222594291    -2.5066225084     3.4264221991
   53      H       0.3805018024    -2.4555423036    -0.9726726165
   54      H       1.4032141759    -2.6459398962    -2.4622249387
   55      H      -0.2870973535    -0.8666757650    -3.5638948848
   56      H      -0.8073050342    -2.6064390591    -3.4023837763
 ----------------------------------------------------------------

    8   -1510.2983161701      8.04E-09 Convergence criterion met
 Total energy in the final basis set = -1510.29831617
 Final energy is   -1510.29831617011
 **  OPTIMIZATION CONVERGED  **

                    Orbital Energies (a.u.)
 --------------------------------------------------------------

 Alpha MOs
 -- Occupied --
-18.941 -18.937 -18.923 -18.920 -18.886 -18.883 -18.879 -18.877
-18.864 -18.862 -10.108 -10.104 -10.093 -10.091 -10.068 -10.064
-10.059 -10.058 -10.057 -10.055 -10.054 -10.043 -10.038 -10.035
-10.034 -10.032 -10.020 -10.018 -10.017 -10.016  -1.019  -1.012
 -1.001  -0.999  -0.969  -0.966  -0.941  -0.938  -0.926  -0.926
 -0.762  -0.759  -0.725  -0.720  -0.712  -0.704  -0.692  -0.653
 -0.652  -0.612  -0.595  -0.574  -0.543  -0.541  -0.536  -0.533
 -0.511  -0.510  -0.487  -0.475  -0.466  -0.459  -0.439  -0.436
 -0.432  -0.430  -0.423  -0.413  -0.408  -0.404  -0.403  -0.399
 -0.399  -0.377  -0.372  -0.364  -0.359  -0.354  -0.349  -0.343
 -0.340  -0.336  -0.331  -0.329  -0.326  -0.322  -0.319  -0.312
 -0.309  -0.303  -0.301  -0.297  -0.291  -0.284  -0.279  -0.274
 -0.272  -0.254  -0.249  -0.242  -0.237  -0.233  -0.230  -0.189
 -0.173  -0.166  -0.161  -0.159  -0.156  -0.147  -0.143  -0.142
 -0.139

          Ground-State Mulliken Net Atomic Charges

     Atom                 Charge (a.u.)
  ----------------------------------------
      1 O                    -0.220758
      2 C                     0.217099
      3 C                    -0.078582
      4 C                    -0.080327
      5 C                     0.215007
      6 O                    -0.174395
      7 C                    -0.054425
      8 C                    -0.052863
      9 O                    -0.165635
     10 C                     0.236197
     11 C                    -0.077431
     12 C                    -0.082061
     13 C                     0.210509
     14 O                    -0.219964
     15 O                    -0.169219
     16 O                    -0.169429
     17 O                    -0.223313
     18 C                    -0.128128
     19 C                     0.023981
     20 C                    -0.143853
     21 C                    -0.144233
     22 C                     0.026446
     23 O                    -0.188046
     24 H                     0.096860
     25 H                     0.081069
     26 H                     0.092828
     27 H                     0.077687
     28 H                     0.074626
     29 H                     0.077068
     30 H                     0.072705
     31 H                     0.083331
     32 O                    -0.219177
     33 C                    -0.142524
     34 C                     0.024611
     35 C                    -0.143690
     36 C                    -0.144669
     37 C                     0.027112
     38 O                    -0.186635
     39 H                     0.084942
     40 H                     0.083286
     41 H                     0.076850
     42 H                     0.090783
     43 H                     0.077963
     44 H                     0.073066
     45 H                     0.077529
     46 H                     0.073211
     47 H                     0.083400
     48 H                     0.114238
     49 H                     0.090609
     50 H                     0.088479
     51 H                     0.091168
     52 H                     0.086802
     53 H                     0.106341
     54 H                     0.086010
     55 H                     0.103922
     56 H                     0.083624
  ----------------------------------------
  Sum of atomic charges =    -0.000000

                    Cartesian Multipole Moments
 -----------------------------------------------------------------
    Charge (ESU x 10^10)
                -0.0000
    Dipole Moment (Debye)
         X      -1.1771      Y       0.9548      Z      -0.2573
       Tot       1.5373
    Quadrupole Moments (Debye-Ang)
        XX    -150.3293     XY      -2.4305     YY    -152.8040
        XZ       4.0164     YZ       6.0444     ZZ    -162.2267

 Total job time:  263.81s(wall), 12568.39s(cpu)
        *  Thank you very much for using Q-Chem.  Have a nice day.  *
