 Q-Chem 5.0, Q-Chem, Inc., Pleasanton, CA (2017)
 Q-Chem 5.0.1 for Intel X86 EM64T Linux

User input:
--------------------------------------------------------------
$molecule
0  1
O -3.94934 -3.66094 2.70899
C -3.26408 -4.56952 2.26188
C -3.36658 -6.02376 2.66595
C -3.92833 -6.32642 4.06477
C -4.49026 -5.15178 4.83453
O -5.49731 -5.57371 5.65504
C -5.85343 -4.60933 6.65123
C -7.11834 -5.04975 7.38073
O -7.77897 -3.90754 7.94803
C -8.96211 -4.16249 8.55984
C -9.63288 -2.91604 9.08626
C -11.0898 -2.72696 8.63917
C -11.76363 -3.94913 8.04843
O -12.54171 -3.94329 7.10551
O -2.43687 -4.30671 1.21613
O -11.75504 -5.07969 8.80721
O -9.3178 -5.30036 8.8347
C -12.41784 -6.24844 8.49149
C -9.79236 -2.89422 10.61881
C -9.92093 -1.44921 11.1
C -11.30056 -1.09893 10.57657
C -11.7342 -2.45872 10.01515
O -11.08648 -3.39119 10.84815
H -9.00984 -2.04124 8.7867
H -11.23278 -1.88061 7.93144
H -8.965 -3.41091 11.15262
H -9.9606 -1.48185 12.21259
H -9.10603 -0.7625 10.78496
H -11.93809 -0.80463 11.43959
H -11.32667 -0.30947 9.79446
H -12.84394 -2.5303 9.9765
O -3.78114 -4.19326 5.12683
C -2.25326 -3.05564 0.66548
C -4.34994 -6.78635 1.76442
C -4.00966 -8.27356 1.76957
C -4.44743 -8.65298 3.1662
C -5.04574 -7.32307 3.64335
O -5.56312 -6.74457 2.47123
H -2.34237 -6.44743 2.55465
H -3.18231 -6.81695 4.72888
H -1.8525 -2.35643 1.43031
H -4.37777 -6.40236 0.72071
H -4.68706 -8.76891 1.03735
H -2.95501 -8.51815 1.51883
H -5.24085 -9.42914 3.08306
H -3.63819 -9.00933 3.83964
H -5.78742 -7.54365 4.43963
H -3.2152 -2.66699 0.26803
H -1.52556 -3.12849 -0.16855
H -12.2276 -6.99936 9.28535
H -12.04573 -6.6482 7.52399
H -13.51158 -6.06469 8.4281
H -7.80647 -5.47975 6.61674
H -6.87959 -5.83285 8.13415
H -6.12188 -3.66654 6.11838
H -5.0306 -4.39655 7.36964
$end

$opt
CONSTRAINT
tors           1           2           3           4     -25.336
tors           3           4           5           6    +149.491
tors           4           5           6           7    +165.211
tors           5           6           7           8    +171.028
tors           6           7           8           9    -156.215
tors           7           8           9          10    +176.375
tors           8           9          10          11    -177.692
tors           9          10          11          12    +127.549
tors          11          12          13          14    -141.793
ENDCONSTRAINT
$end

$rem
JOBTYPE                   OPT
METHOD                    B3LYP
DFT_D                     d3_op
BASIS                     STO-3G
GEOM_OPT_MAX_CYCLES       100
GEOM_OPT_TOL_GRADIENT     300
GEOM_OPT_TOL_DISPLACEMENT 1200
GEOM_OPT_TOL_ENERGY       100
SYMMETRY                  False
THRESH                    12
SCF_CONVERGENCE           8
MAX_SUB_FILE_NUM          128
MEM_STATIC                400
MEM_TOTAL                 4000
$end
--------------------------------------------------------------

   15   -1510.1270120513      7.34E-09 Convergence criterion met
 Total energy in the final basis set = -1510.12701205
   13   -1510.1988620755      8.89E-09 Convergence criterion met
 Total energy in the final basis set = -1510.19886208
   13   -1510.2380393640      8.60E-09 Convergence criterion met
 Total energy in the final basis set = -1510.23803936
   14   -1510.2561318271      5.19E-09 Convergence criterion met
 Total energy in the final basis set = -1510.25613183
   14   -1510.2628317079      3.53E-09 Convergence criterion met
 Total energy in the final basis set = -1510.26283171
   13   -1510.2657041495      6.41E-09 Convergence criterion met
 Total energy in the final basis set = -1510.26570415
   12   -1510.2670322158      8.99E-09 Convergence criterion met
 Total energy in the final basis set = -1510.26703222
   12   -1510.2675769725      7.99E-09 Convergence criterion met
   11   -1510.2695062460      6.05E-09 Convergence criterion met
 Total energy in the final basis set = -1510.26950625
   11   -1510.2695377648      6.14E-09 Convergence criterion met
 Total energy in the final basis set = -1510.26953776
   11   -1510.2695588147      4.69E-09 Convergence criterion met
 Total energy in the final basis set = -1510.26955881
   10   -1510.2695723699      5.87E-09 Convergence criterion met
 Total energy in the final basis set = -1510.26957237
    9   -1510.2695774967      5.85E-09 Convergence criterion met
 Total energy in the final basis set = -1510.26957750
    9   -1510.2695789991      6.12E-09 Convergence criterion met
 Total energy in the final basis set = -1510.26957900

             Standard Nuclear Orientation (Angstroms)
    I     Atom           X                Y                Z
 ----------------------------------------------------------------
    1      O       4.1917644751    -1.2191778187     1.5384481735
    2      C       5.2595737804    -1.0656721227     0.9086425470
    3      C       5.5547300271    -0.0666265720    -0.2647755052
    4      C       4.2693027176     0.3598047978    -1.0802326082
    5      C       3.0268603122    -0.5899607644    -0.9282800235
    6      O       1.8354961975     0.1967527607    -1.0690829480
    7      C       0.6629682090    -0.6853960999    -1.2886045730
    8      C      -0.6043825199     0.2277332334    -1.1978268305
    9      O      -1.7395207365    -0.6555821232    -0.8324297139
   10      C      -2.9332476061     0.1270292680    -0.6457571749
   11      C      -4.0527806694    -0.8789582616    -0.2072001860
   12      C      -4.8771548515    -0.5577217273     1.1128669908
   13      C      -4.7856036204     0.8860573537     1.7228254332
   14      O      -4.7495314910     1.1627267114     2.9435226402
   15      O       6.4666516178    -1.7860598610     1.1870430308
   16      O      -4.9509602935     1.8558041201     0.6901927550
   17      O      -2.9802179268     1.3549214593    -0.8650093535
   18      C      -4.9471680028     3.2197498176     1.2660782991
   19      C      -5.2314285413    -1.0273113599    -1.2770632581
   20      C      -5.8395765555    -2.4734109034    -1.1048626943
   21      C      -6.5872912663    -2.3137914105     0.2707594200
   22      C      -6.3604670290    -0.7773579866     0.5710412929
   23      O      -6.3084011607    -0.1519574623    -0.7685453406
   24      H      -3.5422437478    -1.8506628017    -0.0846746673
   25      H      -4.6248531367    -1.2704346246     1.9178001719
   26      H      -4.9576513578    -0.7450114761    -2.3121356899
   27      H      -6.5448532763    -2.6904850525    -1.9231623461
   28      H      -5.0656123812    -3.2572839124    -1.0851272475
   29      H      -7.6623191383    -2.5350932773     0.1779015067
   30      H      -6.1620482340    -2.9534011306     1.0606274343
   31      H      -7.1452589528    -0.3014418742     1.1906009951
   32      O       3.0303556976    -1.8378349931    -0.8657858556
   33      C       6.2439928861    -2.7255157097     2.3105534995
   34      C       5.9496284938     1.3357207747     0.3775574891
   35      C       6.4366144985     2.3215504757    -0.7592358033
   36      C       5.0652956715     2.7652743312    -1.3924992463
   37      C       4.0607707839     1.8564697336    -0.5844142643
   38      O       4.6297356878     1.8719554098     0.7828269899
   39      H       6.3521188004    -0.4800028371    -0.9062814937
   40      H       4.5061323904     0.3582306267    -2.1616512827
   41      H       5.4405653053    -3.4539506589     2.0781010534
   42      H       6.6249951619     1.2596937085     1.2518776442
   43      H       6.9807531918     3.1752293425    -0.3251088556
   44      H       7.0948179401     1.8161359720    -1.4842248148
   45      H       4.8592425651     3.8300208492    -1.1975635338
   46      H       5.0152463217     2.5879074724    -2.4785303195
   47      H       3.0048790206     2.1880446653    -0.5773363666
   48      H       5.9731476031    -2.1903764045     3.2437241819
   49      H       7.2001731952    -3.2612273060     2.4553546865
   50      H      -5.1065778862     3.9062080777     0.4146676787
   51      H      -3.9788406981     3.4533561413     1.7537399424
   52      H      -5.7585707296     3.3512411273     2.0110392246
   53      H      -0.4444690728     1.0030500360    -0.4164835114
   54      H      -0.7958765866     0.7495091762    -2.1604064360
   55      H       0.6130545358    -1.4759295329    -0.5075943545
   56      H       0.7286483307    -1.1862239520    -2.2787412998
 ----------------------------------------------------------------

    9   -1510.2695793979      2.80E-09 Convergence criterion met
 Total energy in the final basis set = -1510.26957940
 Final energy is   -1510.26957939788
 **  OPTIMIZATION CONVERGED  **

                    Orbital Energies (a.u.)
 --------------------------------------------------------------

 Alpha MOs
 -- Occupied --
-18.932 -18.930 -18.930 -18.930 -18.890 -18.887 -18.877 -18.874
-18.872 -18.864 -10.100 -10.098 -10.095 -10.091 -10.075 -10.073
-10.061 -10.061 -10.061 -10.060 -10.058 -10.056 -10.038 -10.037
-10.037 -10.036 -10.021 -10.021 -10.020 -10.020  -1.014  -1.010
 -1.006  -1.003  -0.971  -0.970  -0.939  -0.934  -0.930  -0.926
 -0.763  -0.762  -0.727  -0.722  -0.717  -0.706  -0.695  -0.660
 -0.654  -0.614  -0.596  -0.577  -0.545  -0.544  -0.538  -0.538
 -0.519  -0.511  -0.481  -0.471  -0.461  -0.457  -0.451  -0.442
 -0.434  -0.433  -0.432  -0.409  -0.409  -0.409  -0.404  -0.401
 -0.392  -0.378  -0.369  -0.366  -0.360  -0.359  -0.352  -0.343
 -0.341  -0.336  -0.333  -0.332  -0.330  -0.328  -0.320  -0.311
 -0.310  -0.306  -0.303  -0.298  -0.293  -0.288  -0.281  -0.276
 -0.271  -0.258  -0.254  -0.247  -0.242  -0.235  -0.234  -0.181
 -0.178  -0.172  -0.171  -0.157  -0.146  -0.145  -0.144  -0.144
 -0.143

          Ground-State Mulliken Net Atomic Charges

     Atom                 Charge (a.u.)
  ----------------------------------------
      1 O                    -0.208782
      2 C                     0.212372
      3 C                    -0.078285
      4 C                    -0.079041
      5 C                     0.214977
      6 O                    -0.175974
      7 C                    -0.046488
      8 C                    -0.047546
      9 O                    -0.175680
     10 C                     0.205500
     11 C                    -0.080378
     12 C                    -0.078479
     13 C                     0.203973
     14 O                    -0.218638
     15 O                    -0.172086
     16 O                    -0.155566
     17 O                    -0.202582
     18 C                    -0.125496
     19 C                     0.027233
     20 C                    -0.142652
     21 C                    -0.144779
     22 C                     0.026455
     23 O                    -0.183688
     24 H                     0.086384
     25 H                     0.085262
     26 H                     0.083603
     27 H                     0.077971
     28 H                     0.074443
     29 H                     0.078303
     30 H                     0.074642
     31 H                     0.083225
     32 O                    -0.211475
     33 C                    -0.128787
     34 C                     0.025133
     35 C                    -0.144818
     36 C                    -0.142841
     37 C                     0.023887
     38 O                    -0.189398
     39 H                     0.086901
     40 H                     0.083491
     41 H                     0.091243
     42 H                     0.083029
     43 H                     0.078224
     44 H                     0.073740
     45 H                     0.078139
     46 H                     0.072836
     47 H                     0.092589
     48 H                     0.088202
     49 H                     0.089211
     50 H                     0.093130
     51 H                     0.087993
     52 H                     0.087000
     53 H                     0.093248
     54 H                     0.087676
     55 H                     0.098646
     56 H                     0.084797
  ----------------------------------------
  Sum of atomic charges =    -0.000000

                    Cartesian Multipole Moments
 -----------------------------------------------------------------
    Charge (ESU x 10^10)
                 0.0000
    Dipole Moment (Debye)
         X       1.5755      Y      -0.9517      Z      -1.8753
       Tot       2.6277
    Quadrupole Moments (Debye-Ang)
        XX    -144.7004     XY      10.2822     YY    -154.7929
        XZ      -2.8150     YZ      -3.6143     ZZ    -160.2406

 Total job time:  52.97s(wall), 2511.94s(cpu)
        *  Thank you very much for using Q-Chem.  Have a nice day.  *
