 Q-Chem 5.0, Q-Chem, Inc., Pleasanton, CA (2017)
 Q-Chem 5.0.1 for Intel X86 EM64T Linux

User input:
--------------------------------------------------------------
$molecule
0  1
O 2.1700696018 -1.6572940227 -0.1754530466
C 3.3635624306 -1.3528420425 0.030876021
C 4.0317517677 0.0651142286 -0.0437482698
C 3.15789578 1.1536319265 -0.7880340913
C 1.9705543394 0.5735266671 -1.6445051852
O 0.8461617408 1.4299603532 -1.4442541088
C -0.313506355 1.0273723497 -2.2745176951
C -1.5034269491 1.7469217366 -1.5548537511
O -2.8085622637 1.4599433594 -2.1917580744
C -3.7371294132 1.0154064642 -1.1680806623
C -3.6043163587 -0.5100678497 -0.6991599754
C -2.4095081108 -1.19830895 0.1094583984
C -1.2379443634 -0.4293959735 0.8122241649
O -0.1301332718 -0.9373360882 1.0868934062
O 4.3691411916 -2.2882535504 0.4413514055
O -1.6130287682 0.9083155559 1.1874013823
O -4.7377088444 1.7082348549 -0.888792284
C -0.525130665 1.5445159567 1.977223416
C -4.8449755417 -0.8738273119 0.2325451286
C -5.2554440322 -2.3709708083 -0.0391571038
C -4.0642448692 -3.1311659621 0.6526822233
C -3.2459270338 -1.9253719098 1.2650898988
O -4.2755875636 -0.9213160201 1.597588158
H -3.6878125036 -1.068989082 -1.6521248981
H -1.9160688381 -1.9462926841 -0.5373474049
H -5.6572691288 -0.1227196688 0.1764719975
H -6.2163091636 -2.6002522932 0.4487919273
H -5.3418168443 -2.5952840217 -1.1142214046
H -4.4179155617 -3.7986856705 1.4543522473
H -3.4636900136 -3.7215437161 -0.057735998
H -2.6425062918 -2.1802322198 2.1584010044
O 2.0063462642 -0.3477239478 -2.4874763052
C 3.7712137461 -3.6363336694 0.5796409582
C 4.0239755638 0.6700357339 1.4329440024
C 4.9074830383 1.9783866554 1.4684081784
C 3.9493330969 3.0169986693 0.7767866812
C 2.7235810598 2.0948638034 0.4099521989
O 2.6342454095 1.1744185373 1.5668193096
H 5.051749809 -0.0260648643 -0.4551245252
H 3.7990952889 1.7149651915 -1.4941228343
H 3.3785729665 -4.0090510582 -0.3885801247
H 4.247856185 -0.0704554579 2.2254199308
H 5.1334201315 2.263414518 2.5081715168
H 5.8567487765 1.8477546209 0.9243216742
H 3.6379000257 3.8073726643 1.4784942059
H 4.397966776 3.489199388 -0.1117476008
H 1.7613687437 2.6130386937 0.2417227307
H 2.9439901175 -3.6427553658 1.3187035314
H 4.5856952513 -4.2980600219 0.9274668683
H -0.5178786482 2.6171746906 1.7099808117
H 0.4613282636 1.0801422855 1.7572371492
H -0.7445681849 1.4378877707 3.0583063982
H -1.5040158345 1.4860650409 -0.472099845
H -1.3298485773 2.843268335 -1.638373449
H -0.4356762925 -0.0771780966 -2.2780646457
H -0.1922573124 1.371205518 -3.3246007533
$end

$rem
JOBTYPE                   OPT
METHOD                    B3LYP
DFT_D                     d3_op
BASIS                     STO-3G
GEOM_OPT_MAX_CYCLES       100
GEOM_OPT_TOL_GRADIENT     300
GEOM_OPT_TOL_DISPLACEMENT 1200
GEOM_OPT_TOL_ENERGY       100
SYMMETRY                  False
THRESH                    12
SCF_CONVERGENCE           8
MAX_SUB_FILE_NUM          128
MEM_STATIC                400
MEM_TOTAL                 4000
$end
--------------------------------------------------------------

   16   -1510.2530002968      4.77E-09 Convergence criterion met
 Total energy in the final basis set = -1510.25300030
   15   -1510.2276984199      2.47E-09 Convergence criterion met
 Total energy in the final basis set = -1510.22769842
   15   -1510.2519600485      2.38E-09 Convergence criterion met
 Total energy in the final basis set = -1510.25196005
   15   -1510.2493165669      6.86E-09 Convergence criterion met
 Total energy in the final basis set = -1510.24931657
   14   -1510.2562912086      2.07E-09 Convergence criterion met
 Total energy in the final basis set = -1510.25629121
   15   -1510.2579928975      3.61E-09 Convergence criterion met
 Total energy in the final basis set = -1510.25799290
   13   -1510.2602373588      6.65E-09 Convergence criterion met
 Total energy in the final basis set = -1510.26023736
   13   -1510.2627802559      7.58E-09 Convergence criterion met
   12   -1510.2808901016      3.46E-09 Convergence criterion met
 Total energy in the final basis set = -1510.28089010
   11   -1510.2808833476      9.22E-09 Convergence criterion met
 Total energy in the final basis set = -1510.28088335
   10   -1510.2808947836      9.73E-09 Convergence criterion met
 Total energy in the final basis set = -1510.28089478
    9   -1510.2808864587      6.41E-09 Convergence criterion met
 Total energy in the final basis set = -1510.28088646
   10   -1510.2808880316      8.29E-09 Convergence criterion met
 Total energy in the final basis set = -1510.28088803
   11   -1510.2808871991      3.84E-09 Convergence criterion met
 Total energy in the final basis set = -1510.28088720

             Standard Nuclear Orientation (Angstroms)
    I     Atom           X                Y                Z
 ----------------------------------------------------------------
    1      O      -0.8777808063    -1.2311619972     1.2733782837
    2      C      -1.8702102768    -1.4497622037     0.5377141674
    3      C      -3.0925115605    -0.5071829070     0.2814703970
    4      C      -3.0265571075     0.8687273760     1.0593001458
    5      C      -1.7057126097     1.0928677734     1.8903550023
    6      O      -0.6966587430     1.5648068295     0.9961393761
    7      C       0.5534005829     1.9068816884     1.7174343863
    8      C       1.3956798639     2.6833641013     0.6305695230
    9      O       2.8622058265     2.5111801680     0.6662251975
   10      C       3.2946439576     1.3681332524    -0.1250304214
   11      C       2.9123089933    -0.0609209570     0.4452436726
   12      C       1.6709854633    -0.8492470205    -0.1524540639
   13      C       0.7654260051    -0.2373841712    -1.2742317573
   14      O      -0.2456031907    -0.8252942740    -1.7257825611
   15      O      -2.1148282119    -2.6603696634    -0.1697749693
   16      O       1.1854726137     1.0490083907    -1.7269322487
   17      O       4.1331088782     1.5464341673    -1.0329015268
   18      C       0.1796400132     1.5855541938    -2.6851915570
   19      C       4.0895184037    -1.0859017570     0.1312113293
   20      C       3.9833172398    -2.2961613578     1.1396086262
   21      C       2.7560013000    -3.0784937603     0.5442592346
   22      C       2.3889073324    -2.1664839003    -0.6921129011
   23      O       3.7002892760    -1.6778996491    -1.1675712536
   24      H       2.7847620517     0.0501826946     1.5361743544
   25      H       0.9443825618    -1.1047080593     0.6498917445
   26      H       5.0885685003    -0.6154535716     0.0539081084
   27      H       4.9025383288    -2.9023793489     1.1102059539
   28      H       3.8137562430    -1.9605893757     2.1750672036
   29      H       3.0435678035    -4.0870086864     0.2064613416
   30      H       1.9222504681    -3.1682947497     1.2585232033
   31      H       1.8470374868    -2.6768597283    -1.5121041552
   32      O      -1.5736475803     0.9998116131     3.1297759265
   33      C      -0.9599845716    -3.5799826165    -0.0639036726
   34      C      -3.1657516071    -0.0148360620    -1.2308139946
   35      C      -4.6324868987     0.4982680870    -1.5041753340
   36      C      -4.6332060640     1.8504246518    -0.6978381490
   37      C      -3.1509788450     1.8904094141    -0.1511790102
   38      O      -2.3729254179     1.2329863337    -1.2266646475
   39      H      -4.0067400667    -1.0707821468     0.5422842113
   40      H      -3.8758057561     0.9609679763     1.7588101300
   41      H      -0.5478255311    -3.5993132682     0.9646692549
   42      H      -2.7515625788    -0.7351121346    -1.9627640483
   43      H      -4.7832100800     0.6711576402    -2.5817447990
   44      H      -5.3948829641    -0.2131686789    -1.1488059506
   45      H      -4.8251218311     2.7132155594    -1.3552179734
   46      H      -5.3724117372     1.8572882413     0.1191042437
   47      H      -2.7486721150     2.9008492403     0.0541159729
   48      H      -0.1639342366    -3.2684402013    -0.7687852780
   49      H      -1.3319744681    -4.5829360599    -0.3428085262
   50      H       0.4885281565     2.6264468067    -2.8894526222
   51      H      -0.8393560711     1.5499662265    -2.2262460593
   52      H       0.1880973968     1.0051556628    -3.6291622502
   53      H       1.0149986714     2.3434269098    -0.3576168513
   54      H       1.2221813928     3.7724293949     0.7456370598
   55      H       1.0648939081     0.9840716662     2.0592619499
   56      H       0.3388067156     2.5294649935     2.6116019346
 ----------------------------------------------------------------

    9   -1510.2808880162      9.33E-09 Convergence criterion met
 Total energy in the final basis set = -1510.28088802
 Final energy is   -1510.28088801619
 **  OPTIMIZATION CONVERGED  **

                    Orbital Energies (a.u.)
 --------------------------------------------------------------

 Alpha MOs
 -- Occupied --
-18.950 -18.941 -18.925 -18.905 -18.897 -18.892 -18.886 -18.882
-18.868 -18.866 -10.116 -10.100 -10.097 -10.094 -10.071 -10.070
-10.069 -10.061 -10.058 -10.055 -10.052 -10.046 -10.045 -10.041
-10.030 -10.028 -10.028 -10.027 -10.019 -10.017  -1.025  -1.012
 -1.006  -0.991  -0.982  -0.968  -0.950  -0.935  -0.933  -0.923
 -0.771  -0.758  -0.730  -0.718  -0.717  -0.702  -0.692  -0.671
 -0.653  -0.610  -0.598  -0.579  -0.553  -0.546  -0.541  -0.535
 -0.520  -0.508  -0.492  -0.477  -0.473  -0.456  -0.449  -0.444
 -0.439  -0.430  -0.426  -0.418  -0.415  -0.409  -0.407  -0.398
 -0.392  -0.386  -0.374  -0.371  -0.364  -0.359  -0.352  -0.344
 -0.343  -0.339  -0.337  -0.335  -0.330  -0.324  -0.321  -0.316
 -0.312  -0.311  -0.306  -0.305  -0.292  -0.285  -0.282  -0.277
 -0.274  -0.263  -0.256  -0.249  -0.240  -0.232  -0.222  -0.188
 -0.177  -0.171  -0.169  -0.158  -0.156  -0.152  -0.145  -0.142
 -0.139

          Ground-State Mulliken Net Atomic Charges

     Atom                 Charge (a.u.)
  ----------------------------------------
      1 O                    -0.216165
      2 C                     0.225336
      3 C                    -0.078037
      4 C                    -0.081351
      5 C                     0.213163
      6 O                    -0.178412
      7 C                    -0.053468
      8 C                    -0.061807
      9 O                    -0.191444
     10 C                     0.221224
     11 C                    -0.086049
     12 C                    -0.093316
     13 C                     0.214768
     14 O                    -0.227222
     15 O                    -0.163693
     16 O                    -0.167351
     17 O                    -0.184498
     18 C                    -0.143827
     19 C                     0.026247
     20 C                    -0.144393
     21 C                    -0.144560
     22 C                     0.024089
     23 O                    -0.187819
     24 H                     0.078976
     25 H                     0.104921
     26 H                     0.087789
     27 H                     0.077751
     28 H                     0.073862
     29 H                     0.076065
     30 H                     0.073303
     31 H                     0.079296
     32 O                    -0.218263
     33 C                    -0.129250
     34 C                     0.028576
     35 C                    -0.143279
     36 C                    -0.144546
     37 C                     0.028999
     38 O                    -0.189458
     39 H                     0.088474
     40 H                     0.084775
     41 H                     0.091574
     42 H                     0.100033
     43 H                     0.079767
     44 H                     0.075812
     45 H                     0.079015
     46 H                     0.075494
     47 H                     0.087214
     48 H                     0.094667
     49 H                     0.092636
     50 H                     0.085481
     51 H                     0.118688
     52 H                     0.083309
     53 H                     0.105699
     54 H                     0.081424
     55 H                     0.084099
     56 H                     0.085681
  ----------------------------------------
  Sum of atomic charges =    -0.000000

                    Cartesian Multipole Moments
 -----------------------------------------------------------------
    Charge (ESU x 10^10)
                -0.0000
    Dipole Moment (Debye)
         X      -4.1702      Y      -1.6323      Z       0.4517
       Tot       4.5010
    Quadrupole Moments (Debye-Ang)
        XX    -160.7008     XY      -9.6536     YY    -152.3314
        XZ      10.6771     YZ      -2.3630     ZZ    -167.5248

 Total job time:  121.77s(wall), 5812.54s(cpu)
        *  Thank you very much for using Q-Chem.  Have a nice day.  *
