 Q-Chem 5.0, Q-Chem, Inc., Pleasanton, CA (2017)
 Q-Chem 5.0.1 for Intel X86 EM64T Linux

User input:
--------------------------------------------------------------
$molecule
0  1
O -3.94934 -3.66094 2.70899
C -3.26408 -4.56952 2.26188
C -3.36658 -6.02376 2.66595
C -4.14098 -6.34178 3.95553
C -4.87724 -5.18919 4.6017
O -6.09555 -5.61114 5.05239
C -6.82048 -4.59392 5.75165
C -8.30019 -4.95681 5.82158
O -9.02846 -3.91522 6.4906
C -10.11958 -3.45124 5.83231
C -9.77285 -2.47451 4.73393
C -9.02191 -3.0825 3.54031
C -9.04324 -4.59497 3.44717
O -8.23034 -5.27943 2.84279
O -2.4312 -4.30547 1.22103
O -10.27442 -5.15683 3.64582
O -11.25555 -3.6793 6.2186
C -10.61968 -6.45207 3.31291
C -10.99044 -1.85003 4.01964
C -10.58264 -0.52723 3.37091
C -9.7194 -1.02626 2.23008
C -9.8987 -2.5396 2.3929
O -11.20407 -2.67326 2.90204
H -9.1905 -1.65805 5.21796
H -7.96953 -2.73989 3.44107
H -11.86432 -1.69157 4.68812
H -11.506 -0.07353 2.94425
H -10.09555 0.20584 4.0493
H -10.16924 -0.68051 1.27287
H -8.64899 -0.73042 2.27753
H -9.69774 -3.06038 1.43023
O -4.2894 -4.22986 5.0917
C -2.24467 -3.05366 0.67311
C -4.12218 -6.86667 1.62787
C -3.68378 -8.32392 1.73102
C -4.32634 -8.71518 3.04318
C -5.09324 -7.42825 3.37663
O -5.43958 -6.90637 2.11718
H -2.31395 -6.37429 2.76549
H -3.48098 -6.7676 4.74384
H -1.84745 -2.35567 1.44088
H -3.99726 -6.49928 0.58559
H -4.18903 -8.87838 0.90783
H -2.58715 -8.4932 1.66971
H -5.03469 -9.55109 2.84741
H -3.62083 -8.99907 3.85372
H -5.94098 -7.69684 4.04176
H -3.20459 -2.66418 0.2716
H -1.51291 -3.12547 -0.15749
H -11.67722 -6.62938 3.59642
H -9.97814 -7.17975 3.85291
H -10.51377 -6.60464 2.21781
H -8.81641 -5.81382 5.35863
H -8.20743 -5.708 6.63578
H -6.77548 -3.64582 5.17327
H -6.38151 -4.3979 6.75698
$end

$opt
CONSTRAINT
tors           1           2           3           4     -15.286
tors           3           4           5           6    +139.325
tors           4           5           6           7    +176.375
tors           5           6           7           8    +161.507
tors           6           7           8           9    -178.373
tors           7           8           9          10    +128.674
tors           8           9          10          11     -79.349
tors           9          10          11          12     +67.781
tors          11          12          13          14    -157.673
ENDCONSTRAINT
$end

$rem
JOBTYPE                   OPT
METHOD                    B3LYP
DFT_D                     d3_op
BASIS                     STO-3G
GEOM_OPT_MAX_CYCLES       100
GEOM_OPT_TOL_GRADIENT     300
GEOM_OPT_TOL_DISPLACEMENT 1200
GEOM_OPT_TOL_ENERGY       100
SYMMETRY                  False
THRESH                    12
SCF_CONVERGENCE           8
MAX_SUB_FILE_NUM          128
MEM_STATIC                400
MEM_TOTAL                 4000
$end
--------------------------------------------------------------

   15   -1510.0502258248      7.21E-09 Convergence criterion met
 Total energy in the final basis set = -1510.05022582
   14   -1510.1260551614      6.99E-09 Convergence criterion met
 Total energy in the final basis set = -1510.12605516
   14   -1510.1705849732      6.64E-09 Convergence criterion met
 Total energy in the final basis set = -1510.17058497
   14   -1510.1991408804      5.85E-09 Convergence criterion met
 Total energy in the final basis set = -1510.19914088
   14   -1510.2163728961      4.47E-09 Convergence criterion met
 Total energy in the final basis set = -1510.21637290
   13   -1510.2280884822      5.64E-09 Convergence criterion met
 Total energy in the final basis set = -1510.22808848
   12   -1510.2364878932      9.19E-09 Convergence criterion met
 Total energy in the final basis set = -1510.23648789
   12   -1510.2424549672      9.87E-09 Convergence criterion met
   10   -1510.2532030679      7.69E-09 Convergence criterion met
 Total energy in the final basis set = -1510.25320307
   10   -1510.2532247170      8.46E-09 Convergence criterion met
 Total energy in the final basis set = -1510.25322472
    9   -1510.2532269746      9.50E-09 Convergence criterion met
 Total energy in the final basis set = -1510.25322697
    9   -1510.2532285419      8.52E-09 Convergence criterion met
 Total energy in the final basis set = -1510.25322854
    9   -1510.2532364396      8.03E-09 Convergence criterion met
 Total energy in the final basis set = -1510.25323644
   10   -1510.2532351254      7.98E-09 Convergence criterion met
 Total energy in the final basis set = -1510.25323513

             Standard Nuclear Orientation (Angstroms)
    I     Atom           X                Y                Z
 ----------------------------------------------------------------
    1      O       2.1700696018    -1.6572940227    -0.1754530466
    2      C       3.3635624306    -1.3528420425     0.0308760210
    3      C       4.0317517677     0.0651142286    -0.0437482698
    4      C       3.1578957800     1.1536319265    -0.7880340913
    5      C       1.9705543394     0.5735266671    -1.6445051852
    6      O       0.8461617408     1.4299603532    -1.4442541088
    7      C      -0.3135063550     1.0273723497    -2.2745176951
    8      C      -1.5034269491     1.7469217366    -1.5548537511
    9      O      -2.8085622637     1.4599433594    -2.1917580744
   10      C      -3.7371294132     1.0154064642    -1.1680806623
   11      C      -3.6043163587    -0.5100678497    -0.6991599754
   12      C      -2.4095081108    -1.1983089500     0.1094583984
   13      C      -1.2379443634    -0.4293959735     0.8122241649
   14      O      -0.1301332718    -0.9373360882     1.0868934062
   15      O       4.3691411916    -2.2882535504     0.4413514055
   16      O      -1.6130287682     0.9083155559     1.1874013823
   17      O      -4.7377088444     1.7082348549    -0.8887922840
   18      C      -0.5251306650     1.5445159567     1.9772234160
   19      C      -4.8449755417    -0.8738273119     0.2325451286
   20      C      -5.2554440322    -2.3709708083    -0.0391571038
   21      C      -4.0642448692    -3.1311659621     0.6526822233
   22      C      -3.2459270338    -1.9253719098     1.2650898988
   23      O      -4.2755875636    -0.9213160201     1.5975881580
   24      H      -3.6878125036    -1.0689890820    -1.6521248981
   25      H      -1.9160688381    -1.9462926841    -0.5373474049
   26      H      -5.6572691288    -0.1227196688     0.1764719975
   27      H      -6.2163091636    -2.6002522932     0.4487919273
   28      H      -5.3418168443    -2.5952840217    -1.1142214046
   29      H      -4.4179155617    -3.7986856705     1.4543522473
   30      H      -3.4636900136    -3.7215437161    -0.0577359980
   31      H      -2.6425062918    -2.1802322198     2.1584010044
   32      O       2.0063462642    -0.3477239478    -2.4874763052
   33      C       3.7712137461    -3.6363336694     0.5796409582
   34      C       4.0239755638     0.6700357339     1.4329440024
   35      C       4.9074830383     1.9783866554     1.4684081784
   36      C       3.9493330969     3.0169986693     0.7767866812
   37      C       2.7235810598     2.0948638034     0.4099521989
   38      O       2.6342454095     1.1744185373     1.5668193096
   39      H       5.0517498090    -0.0260648643    -0.4551245252
   40      H       3.7990952889     1.7149651915    -1.4941228343
   41      H       3.3785729665    -4.0090510582    -0.3885801247
   42      H       4.2478561850    -0.0704554579     2.2254199308
   43      H       5.1334201315     2.2634145180     2.5081715168
   44      H       5.8567487765     1.8477546209     0.9243216742
   45      H       3.6379000257     3.8073726643     1.4784942059
   46      H       4.3979667760     3.4891993880    -0.1117476008
   47      H       1.7613687437     2.6130386937     0.2417227307
   48      H       2.9439901175    -3.6427553658     1.3187035314
   49      H       4.5856952513    -4.2980600219     0.9274668683
   50      H      -0.5178786482     2.6171746906     1.7099808117
   51      H       0.4613282636     1.0801422855     1.7572371492
   52      H      -0.7445681849     1.4378877707     3.0583063982
   53      H      -1.5040158345     1.4860650409    -0.4720998450
   54      H      -1.3298485773     2.8432683350    -1.6383734490
   55      H      -0.4356762925    -0.0771780966    -2.2780646457
   56      H      -0.1922573124     1.3712055180    -3.3246007533
 ----------------------------------------------------------------

    9   -1510.2532343909      9.87E-09 Convergence criterion met
 Total energy in the final basis set = -1510.25323439
 Final energy is   -1510.25323439087
 **  OPTIMIZATION CONVERGED  **

                    Orbital Energies (a.u.)
 --------------------------------------------------------------

 Alpha MOs
 -- Occupied --
-18.945 -18.930 -18.927 -18.900 -18.896 -18.893 -18.888 -18.885
-18.876 -18.868 -10.105 -10.104 -10.098 -10.095 -10.064 -10.064
-10.062 -10.062 -10.060 -10.056 -10.053 -10.048 -10.042 -10.039
-10.037 -10.034 -10.024 -10.022 -10.020 -10.018  -1.017  -1.011
 -1.005  -1.002  -0.974  -0.971  -0.942  -0.937  -0.932  -0.928
 -0.765  -0.760  -0.725  -0.720  -0.715  -0.704  -0.692  -0.661
 -0.659  -0.607  -0.600  -0.576  -0.547  -0.543  -0.540  -0.537
 -0.516  -0.514  -0.483  -0.476  -0.465  -0.459  -0.449  -0.440
 -0.436  -0.431  -0.426  -0.414  -0.410  -0.410  -0.408  -0.398
 -0.395  -0.377  -0.372  -0.366  -0.361  -0.359  -0.350  -0.349
 -0.342  -0.338  -0.334  -0.332  -0.328  -0.323  -0.321  -0.316
 -0.313  -0.308  -0.303  -0.298  -0.296  -0.288  -0.279  -0.274
 -0.272  -0.257  -0.255  -0.246  -0.240  -0.236  -0.232  -0.181
 -0.178  -0.171  -0.164  -0.157  -0.153  -0.150  -0.148  -0.144
 -0.142

          Ground-State Mulliken Net Atomic Charges

     Atom                 Charge (a.u.)
  ----------------------------------------
      1 O                    -0.200355
      2 C                     0.211343
      3 C                    -0.078246
      4 C                    -0.079724
      5 C                     0.216823
      6 O                    -0.181020
      7 C                    -0.050065
      8 C                    -0.069417
      9 O                    -0.194273
     10 C                     0.223195
     11 C                    -0.086630
     12 C                    -0.080895
     13 C                     0.210972
     14 O                    -0.196226
     15 O                    -0.173460
     16 O                    -0.167432
     17 O                    -0.181759
     18 C                    -0.138691
     19 C                     0.021903
     20 C                    -0.143846
     21 C                    -0.144526
     22 C                     0.026603
     23 O                    -0.189331
     24 H                     0.082317
     25 H                     0.088176
     26 H                     0.093551
     27 H                     0.078292
     28 H                     0.073482
     29 H                     0.078451
     30 H                     0.074504
     31 H                     0.082926
     32 O                    -0.213304
     33 C                    -0.128700
     34 C                     0.026168
     35 C                    -0.144396
     36 C                    -0.143475
     37 C                     0.022122
     38 O                    -0.193795
     39 H                     0.087613
     40 H                     0.083439
     41 H                     0.089578
     42 H                     0.085117
     43 H                     0.078386
     44 H                     0.075041
     45 H                     0.077535
     46 H                     0.074103
     47 H                     0.092673
     48 H                     0.090286
     49 H                     0.088809
     50 H                     0.086825
     51 H                     0.117187
     52 H                     0.086739
     53 H                     0.107226
     54 H                     0.074952
     55 H                     0.089196
     56 H                     0.084031
  ----------------------------------------
  Sum of atomic charges =    -0.000000

                    Cartesian Multipole Moments
 -----------------------------------------------------------------
    Charge (ESU x 10^10)
                 0.0000
    Dipole Moment (Debye)
         X       2.8940      Y      -0.9215      Z       0.7090
       Tot       3.1188
    Quadrupole Moments (Debye-Ang)
        XX    -158.2710     XY      15.2369     YY    -150.8650
        XZ       3.8869     YZ       0.1662     ZZ    -163.4675

 Total job time:  116.05s(wall), 5528.37s(cpu)
        *  Thank you very much for using Q-Chem.  Have a nice day.  *
