 Q-Chem 5.0, Q-Chem, Inc., Pleasanton, CA (2017)
 Q-Chem 5.0.1 for Intel X86 EM64T Linux

User input:
--------------------------------------------------------------
$molecule
0  1
O -2.2216209153 0.0932599597 1.7511958575
C -2.7182416741 1.0079543179 1.0571109556
C -4.0603931387 0.9576160066 0.2357156052
C -3.8963677478 0.1094047181 -1.1098435208
C -2.3962340421 -0.276554025 -1.3087828961
O -2.1385031881 -1.5777413339 -0.7665821691
C -0.7264818724 -1.9325178305 -1.0587420039
C 0.0395966575 -1.7676669997 0.2949448111
O 1.4755375151 -2.0662932844 0.0849417703
C 2.2417942141 -1.0207714367 0.7039903358
C 3.7615245028 -1.2664291432 0.4429988217
C 4.2626796851 -0.2727161228 -0.702618225
C 3.0520563052 0.3130670798 -1.5184436238
O 2.4772113555 -0.2535558604 -2.4756940133
O -2.0791984948 2.266566242 0.8251682526
O 2.6108489504 1.5437304769 -0.9438889919
O 1.7349865095 -0.0511846176 1.3134735683
C 1.3734603693 2.0042686223 -1.6237115266
C 4.601315343 -0.719172774 1.6702917477
C 6.13152629 -1.0418158163 1.4379233039
C 6.5313361597 0.0761774822 0.4043641769
C 5.1290370818 0.7535915183 0.1425887011
O 4.5072349451 0.7481323314 1.4865054439
H 3.9456427949 -2.3259414975 0.1954342621
H 4.8954776378 -0.8233617593 -1.4219102091
H 4.2001514706 -1.0082077791 2.661017778
H 6.6962208531 -0.947609051 2.3788948024
H 6.2794523156 -2.0582110353 1.0387088297
H 7.2278739611 0.8040730753 0.8504395507
H 6.9838849023 -0.3305082562 -0.5140724614
H 5.1606496778 1.7816580009 -0.2662962487
O -1.5215112717 0.4455119719 -1.8439530093
C -0.7720246001 2.3088823812 1.5282731986
C -5.1500255826 0.0848314389 0.9899697247
C -6.5445308014 0.2877038129 0.2752961686
C -6.3537953832 -0.58432115 -1.0217095702
C -4.8744056291 -1.102912938 -0.8241193018
O -4.7724707987 -1.3035523318 0.6390612499
H -4.3986250881 1.987894392 0.0282727565
H -4.2123524082 0.7030093869 -1.9860281818
H -0.0916174923 1.4906464811 1.2088028035
H -5.1574126896 0.2140955752 2.089501637
H -7.3603241945 -0.0986727657 0.9065012594
H -6.7438679272 1.3475115246 0.0496739584
H -7.0573290228 -1.431736164 -1.0440514537
H -6.471589577 -0.0016073489 -1.9492878916
H -4.6197124071 -2.0361785342 -1.3618776325
H -0.9029539858 2.2433509364 2.6274839127
H -0.3220825711 3.2845089195 1.2693230055
H 1.0797617177 2.9369641924 -1.1090540971
H 0.5456435187 1.2645450887 -1.5492204028
H 1.5565015703 2.2166446895 -2.6966014435
H -0.0702459138 -0.7352788358 0.6891691195
H -0.3736603532 -2.4741659152 1.0458312236
H -0.3108360185 -1.2503239816 -1.8298483788
H -0.7069607899 -2.9838326547 -1.4099549206
$end

$rem
JOBTYPE                   OPT
METHOD                    B3LYP
DFT_D                     d3_op
BASIS                     STO-3G
GEOM_OPT_MAX_CYCLES       100
GEOM_OPT_TOL_GRADIENT     300
GEOM_OPT_TOL_DISPLACEMENT 1200
GEOM_OPT_TOL_ENERGY       100
SYMMETRY                  False
THRESH                    12
SCF_CONVERGENCE           8
MAX_SUB_FILE_NUM          128
MEM_STATIC                400
MEM_TOTAL                 4000
$end
--------------------------------------------------------------

   16   -1510.2843351892      5.72E-09 Convergence criterion met
 Total energy in the final basis set = -1510.28433519
   15   -1510.2775901807      2.04E-09 Convergence criterion met
 Total energy in the final basis set = -1510.27759018
   15   -1510.2891828880      2.24E-09 Convergence criterion met
 Total energy in the final basis set = -1510.28918289
   14   -1510.2898525704      7.34E-09 Convergence criterion met
 Total energy in the final basis set = -1510.28985257
   13   -1510.2924793517      9.87E-09 Convergence criterion met
 Total energy in the final basis set = -1510.29247935
   14   -1510.2916980075      2.85E-09 Convergence criterion met
 Total energy in the final basis set = -1510.29169801
   14   -1510.2947236915      8.75E-09 Convergence criterion met
 Total energy in the final basis set = -1510.29472369
   14   -1510.2930742598      3.07E-09 Convergence criterion met
   12   -1510.2984104022      6.64E-09 Convergence criterion met
 Total energy in the final basis set = -1510.29841040
   12   -1510.2985211669      5.02E-09 Convergence criterion met
 Total energy in the final basis set = -1510.29852117
   11   -1510.2985106989      9.47E-09 Convergence criterion met
 Total energy in the final basis set = -1510.29851070
   11   -1510.2985190681      5.41E-09 Convergence criterion met
 Total energy in the final basis set = -1510.29851907
   10   -1510.2985225781      8.17E-09 Convergence criterion met
 Total energy in the final basis set = -1510.29852258
    9   -1510.2985204232      7.31E-09 Convergence criterion met
 Total energy in the final basis set = -1510.29852042

             Standard Nuclear Orientation (Angstroms)
    I     Atom           X                Y                Z
 ----------------------------------------------------------------
    1      O      -1.6446847790     0.7936512079     1.5168344641
    2      C      -2.1984484634     1.3415556812     0.5355208164
    3      C      -3.6116288720     1.0098482848    -0.0652245266
    4      C      -3.6063031237    -0.2815233147    -1.0007404306
    5      C      -2.1728240836    -0.9111949031    -1.0834385761
    6      O      -2.0442717337    -1.9358249083    -0.1045000216
    7      C      -0.6307003127    -2.3671429163     0.0431588927
    8      C      -0.0958056088    -1.8204322801     1.4192999066
    9      O       1.3890604516    -1.8709312928     1.3993181688
   10      C       1.9459770464    -0.5643496335     1.2658159281
   11      C       3.4734520832    -0.7101527303     0.9665605886
   12      C       3.7695301011    -0.6468100630    -0.5988881283
   13      C       2.4586769294    -0.4898745786    -1.4577733926
   14      O       1.6556044320    -1.4094930096    -1.7436583903
   15      O      -1.6242724897     2.3846242742    -0.2461124723
   16      O       2.3038099444     0.8667180636    -1.8542597316
   17      O       1.2942324844     0.4999319466     1.3540149405
   18      C       1.0941070747     1.0337056074    -2.6991705819
   19      C       4.3049037647     0.5397644341     1.4777272929
   20      C       5.8361626973     0.1541401859     1.4566704703
   21      C       6.1372498600     0.1993384323    -0.0872237049
   22      C       4.7265914543     0.6147926664    -0.6649033131
   23      O       4.1758333058     1.5170492543     0.3731410822
   24      H       3.8288502048    -1.6614529255     1.3997518029
   25      H       4.2762294422    -1.5706631852    -0.9309335493
   26      H       3.9352368646     0.9777481503     2.4250317909
   27      H       6.4286198265     0.9027072602     2.0063342446
   28      H       6.0219080617    -0.8378971202     1.8982865904
   29      H       6.8920242359     0.9642814105    -0.3292968172
   30      H       6.4789929084    -0.7708633824    -0.4821706555
   31      H       4.7449606539     1.1219187952    -1.6481121850
   32      O      -1.2625832108    -0.5564781173    -1.8671158624
   33      C      -0.2838208193     2.7619291767     0.2711881470
   34      C      -4.6446189912     0.5571436904     1.0528619979
   35      C      -6.0984934226     0.6441458674     0.4405878954
   36      C      -6.1022511681    -0.6116779812    -0.5078669328
   37      C      -4.6578186221    -1.1975243825    -0.2486922451
   38      O      -4.4094702281    -0.8988392619     1.1805891899
   39      H      -3.9650693766     1.8951103842    -0.6221853965
   40      H      -3.9279820807    -0.0217657848    -2.0250591963
   41      H       0.3069108186     1.8751506761     0.5962392096
   42      H      -4.5078742944     1.0565721172     2.0314902294
   43      H      -6.8556299462     0.5520776823     1.2355102390
   44      H      -6.2669825712     1.5886304689    -0.1011175731
   45      H      -6.8719613055    -1.3412436890    -0.2096690382
   46      H      -6.2589840651    -0.3466674732    -1.5657323500
   47      H      -4.5437092893    -2.2809010536    -0.4439545649
   48      H      -0.3877753935     3.4553494847     1.1303044575
   49      H       0.2275092710     3.2854791978    -0.5565407127
   50      H       0.8893080264     2.1190834035    -2.7215678913
   51      H       0.2169088974     0.4777626606    -2.2955961505
   52      H       1.2949332172     0.6801166903    -3.7310469780
   53      H      -0.4583089811    -0.7728661177     1.5649724829
   54      H      -0.4401198001    -2.4550163496     2.2600994140
   55      H      -0.0016163006    -1.9658130541    -0.7891404494
   56      H      -0.6171260624    -3.4752395863     0.0198040931
 ----------------------------------------------------------------

    9   -1510.2985198024      5.82E-09 Convergence criterion met
 Total energy in the final basis set = -1510.29851980
 Final energy is   -1510.29851980237
 **  OPTIMIZATION CONVERGED  **

                    Orbital Energies (a.u.)
 --------------------------------------------------------------

 Alpha MOs
 -- Occupied --
-18.936 -18.933 -18.932 -18.929 -18.886 -18.886 -18.880 -18.879
-18.871 -18.870 -10.105 -10.103 -10.097 -10.096 -10.059 -10.059
-10.058 -10.057 -10.054 -10.052 -10.041 -10.039 -10.038 -10.038
-10.036 -10.035 -10.019 -10.019 -10.018 -10.018  -1.016  -1.011
 -1.006  -1.004  -0.968  -0.968  -0.940  -0.936  -0.931  -0.930
 -0.763  -0.761  -0.725  -0.721  -0.709  -0.705  -0.689  -0.651
 -0.650  -0.611  -0.595  -0.574  -0.546  -0.544  -0.536  -0.534
 -0.513  -0.506  -0.479  -0.476  -0.463  -0.457  -0.446  -0.444
 -0.432  -0.431  -0.427  -0.415  -0.412  -0.401  -0.395  -0.394
 -0.391  -0.373  -0.368  -0.367  -0.362  -0.357  -0.355  -0.353
 -0.345  -0.334  -0.330  -0.329  -0.325  -0.319  -0.314  -0.309
 -0.305  -0.303  -0.301  -0.295  -0.293  -0.283  -0.279  -0.277
 -0.274  -0.260  -0.250  -0.237  -0.232  -0.232  -0.229  -0.186
 -0.171  -0.170  -0.164  -0.161  -0.159  -0.149  -0.145  -0.142
 -0.141

          Ground-State Mulliken Net Atomic Charges

     Atom                 Charge (a.u.)
  ----------------------------------------
      1 O                    -0.214476
      2 C                     0.207277
      3 C                    -0.079152
      4 C                    -0.077880
      5 C                     0.214572
      6 O                    -0.165277
      7 C                    -0.062937
      8 C                    -0.064396
      9 O                    -0.170591
     10 C                     0.214451
     11 C                    -0.078678
     12 C                    -0.078102
     13 C                     0.207424
     14 O                    -0.219136
     15 O                    -0.170100
     16 O                    -0.165153
     17 O                    -0.212153
     18 C                    -0.144547
     19 C                     0.025449
     20 C                    -0.143919
     21 C                    -0.144441
     22 C                     0.025422
     23 O                    -0.185668
     24 H                     0.087277
     25 H                     0.084810
     26 H                     0.085553
     27 H                     0.077968
     28 H                     0.073403
     29 H                     0.077641
     30 H                     0.072863
     31 H                     0.089170
     32 O                    -0.217441
     33 C                    -0.145737
     34 C                     0.025447
     35 C                    -0.143792
     36 C                    -0.144380
     37 C                     0.026332
     38 O                    -0.184485
     39 H                     0.086301
     40 H                     0.085518
     41 H                     0.121286
     42 H                     0.085301
     43 H                     0.077885
     44 H                     0.073422
     45 H                     0.077797
     46 H                     0.073045
     47 H                     0.087704
     48 H                     0.079153
     49 H                     0.084222
     50 H                     0.084354
     51 H                     0.119716
     52 H                     0.079022
     53 H                     0.117843
     54 H                     0.085579
     55 H                     0.115117
     56 H                     0.084118
  ----------------------------------------
  Sum of atomic charges =    -0.000000

                    Cartesian Multipole Moments
 -----------------------------------------------------------------
    Charge (ESU x 10^10)
                -0.0000
    Dipole Moment (Debye)
         X       0.1217      Y      -0.1601      Z      -0.8173
       Tot       0.8417
    Quadrupole Moments (Debye-Ang)
        XX    -135.8360     XY      -7.0261     YY    -160.6094
        XZ       5.7355     YZ      -0.5536     ZZ    -160.0219

 Total job time:  100.30s(wall), 4784.47s(cpu)
        *  Thank you very much for using Q-Chem.  Have a nice day.  *
