 Q-Chem 5.0, Q-Chem, Inc., Pleasanton, CA (2017)
 Q-Chem 5.0.1 for Intel X86 EM64T Linux

User input:
--------------------------------------------------------------
$molecule
0  1
O -3.94934 -3.66094 2.70899
C -3.26408 -4.56952 2.26188
C -3.36658 -6.02376 2.66595
C -2.77152 -6.41828 4.02761
C -2.29931 -5.28492 4.91112
O -3.29289 -4.92676 5.77712
C -2.89295 -3.91223 6.7045
C -3.50204 -2.57054 6.31077
O -3.06715 -1.5493 7.22226
C -2.62447 -0.40395 6.64662
C -2.12142 0.60385 7.65256
C -0.59275 0.70799 7.75558
C 0.19044 0.07691 6.62197
O 0.48311 -1.10692 6.53563
O -2.42548 -4.2988 1.22686
O 0.67661 0.9094 5.65877
O -2.48345 -0.24039 5.43998
C 1.41849 0.50021 4.57021
C -2.52287 2.05623 7.35122
C -2.52171 2.8655 8.64617
C -1.03594 2.92681 8.93708
C -0.47997 2.25272 7.67518
O -1.41206 2.5845 6.67303
H -2.54017 0.30888 8.64306
H -0.16317 0.33393 8.71084
H -3.50378 2.14383 6.83497
H -2.87772 3.88875 8.38786
H -3.14835 2.45763 9.46829
H -0.73331 3.9966 8.98214
H -0.70862 2.39767 9.85812
H 0.56567 2.59002 7.50086
O -1.28974 -4.63051 4.67824
C -2.23149 -3.04244 0.69181
C -4.81773 -6.50994 2.80484
C -4.88057 -8.02356 2.60923
C -4.23414 -8.49957 3.89287
C -4.00786 -7.16053 4.60504
O -5.08987 -6.36789 4.17625
H -2.85325 -6.60151 1.86308
H -1.91972 -7.13018 3.95344
H -1.8352 -2.35356 1.4684
H -5.51782 -5.99934 2.10768
H -5.95479 -8.31679 2.62272
H -4.40963 -8.39523 1.67379
H -4.97752 -9.10964 4.45303
H -3.29103 -9.07397 3.76732
H -3.9258 -7.33084 5.70128
H -3.18795 -2.64522 0.28961
H -1.49617 -3.10906 -0.13603
H 1.67684 1.385 3.95313
H 0.8281 -0.20836 3.95058
H 2.35783 0.01265 4.90796
H -3.24285 -2.37939 5.24639
H -4.60721 -2.66352 6.37412
H -1.78865 -3.77987 6.77896
H -3.22912 -4.20041 7.723
$end

$opt
CONSTRAINT
tors           1           2           3           4     -75.574
tors           3           4           5           6     +94.171
tors           4           5           6           7    +176.375
tors           5           6           7           8    +104.902
tors           6           7           8           9    -178.373
tors           7           8           9          10    +132.703
tors           8           9          10          11    -177.290
tors           9          10          11          12    +103.115
tors          11          12          13          14     -83.352
ENDCONSTRAINT
$end

$rem
JOBTYPE                   OPT
METHOD                    B3LYP
DFT_D                     d3_op
BASIS                     STO-3G
GEOM_OPT_MAX_CYCLES       100
GEOM_OPT_TOL_GRADIENT     300
GEOM_OPT_TOL_DISPLACEMENT 1200
GEOM_OPT_TOL_ENERGY       100
SYMMETRY                  False
THRESH                    12
SCF_CONVERGENCE           8
MAX_SUB_FILE_NUM          128
MEM_STATIC                400
MEM_TOTAL                 4000
$end
--------------------------------------------------------------

   15   -1510.1500663742      7.18E-09 Convergence criterion met
 Total energy in the final basis set = -1510.15006637
   13   -1510.2190154955      8.56E-09 Convergence criterion met
 Total energy in the final basis set = -1510.21901550
   14   -1510.2559710906      4.26E-09 Convergence criterion met
 Total energy in the final basis set = -1510.25597109
   14   -1510.2724986237      2.36E-09 Convergence criterion met
 Total energy in the final basis set = -1510.27249862
   14   -1510.2783598814      1.63E-09 Convergence criterion met
 Total energy in the final basis set = -1510.27835988
   13   -1510.2805625353      8.74E-09 Convergence criterion met
 Total energy in the final basis set = -1510.28056254
   13   -1510.2813402346      2.35E-09 Convergence criterion met
 Total energy in the final basis set = -1510.28134023
   12   -1510.2817272990      9.61E-09 Convergence criterion met
   11   -1510.2844493097      3.38E-09 Convergence criterion met
 Total energy in the final basis set = -1510.28444931
   11   -1510.2844479723      5.22E-09 Convergence criterion met
 Total energy in the final basis set = -1510.28444797
    9   -1510.2844535397      8.62E-09 Convergence criterion met
 Total energy in the final basis set = -1510.28445354
   10   -1510.2844606739      5.27E-09 Convergence criterion met
 Total energy in the final basis set = -1510.28446067
    9   -1510.2844632713      9.88E-09 Convergence criterion met
 Total energy in the final basis set = -1510.28446327
    9   -1510.2844655774      5.64E-09 Convergence criterion met
 Total energy in the final basis set = -1510.28446558

             Standard Nuclear Orientation (Angstroms)
    I     Atom           X                Y                Z
 ----------------------------------------------------------------
    1      O      -2.2216209153     0.0932599597     1.7511958575
    2      C      -2.7182416741     1.0079543179     1.0571109556
    3      C      -4.0603931387     0.9576160066     0.2357156052
    4      C      -3.8963677478     0.1094047181    -1.1098435208
    5      C      -2.3962340421    -0.2765540250    -1.3087828961
    6      O      -2.1385031881    -1.5777413339    -0.7665821691
    7      C      -0.7264818724    -1.9325178305    -1.0587420039
    8      C       0.0395966575    -1.7676669997     0.2949448111
    9      O       1.4755375151    -2.0662932844     0.0849417703
   10      C       2.2417942141    -1.0207714367     0.7039903358
   11      C       3.7615245028    -1.2664291432     0.4429988217
   12      C       4.2626796851    -0.2727161228    -0.7026182250
   13      C       3.0520563052     0.3130670798    -1.5184436238
   14      O       2.4772113555    -0.2535558604    -2.4756940133
   15      O      -2.0791984948     2.2665662420     0.8251682526
   16      O       2.6108489504     1.5437304769    -0.9438889919
   17      O       1.7349865095    -0.0511846176     1.3134735683
   18      C       1.3734603693     2.0042686223    -1.6237115266
   19      C       4.6013153430    -0.7191727740     1.6702917477
   20      C       6.1315262900    -1.0418158163     1.4379233039
   21      C       6.5313361597     0.0761774822     0.4043641769
   22      C       5.1290370818     0.7535915183     0.1425887011
   23      O       4.5072349451     0.7481323314     1.4865054439
   24      H       3.9456427949    -2.3259414975     0.1954342621
   25      H       4.8954776378    -0.8233617593    -1.4219102091
   26      H       4.2001514706    -1.0082077791     2.6610177780
   27      H       6.6962208531    -0.9476090510     2.3788948024
   28      H       6.2794523156    -2.0582110353     1.0387088297
   29      H       7.2278739611     0.8040730753     0.8504395507
   30      H       6.9838849023    -0.3305082562    -0.5140724614
   31      H       5.1606496778     1.7816580009    -0.2662962487
   32      O      -1.5215112717     0.4455119719    -1.8439530093
   33      C      -0.7720246001     2.3088823812     1.5282731986
   34      C      -5.1500255826     0.0848314389     0.9899697247
   35      C      -6.5445308014     0.2877038129     0.2752961686
   36      C      -6.3537953832    -0.5843211500    -1.0217095702
   37      C      -4.8744056291    -1.1029129380    -0.8241193018
   38      O      -4.7724707987    -1.3035523318     0.6390612499
   39      H      -4.3986250881     1.9878943920     0.0282727565
   40      H      -4.2123524082     0.7030093869    -1.9860281818
   41      H      -0.0916174923     1.4906464811     1.2088028035
   42      H      -5.1574126896     0.2140955752     2.0895016370
   43      H      -7.3603241945    -0.0986727657     0.9065012594
   44      H      -6.7438679272     1.3475115246     0.0496739584
   45      H      -7.0573290228    -1.4317361640    -1.0440514537
   46      H      -6.4715895770    -0.0016073489    -1.9492878916
   47      H      -4.6197124071    -2.0361785342    -1.3618776325
   48      H      -0.9029539858     2.2433509364     2.6274839127
   49      H      -0.3220825711     3.2845089195     1.2693230055
   50      H       1.0797617177     2.9369641924    -1.1090540971
   51      H       0.5456435187     1.2645450887    -1.5492204028
   52      H       1.5565015703     2.2166446895    -2.6966014435
   53      H      -0.0702459138    -0.7352788358     0.6891691195
   54      H      -0.3736603532    -2.4741659152     1.0458312236
   55      H      -0.3108360185    -1.2503239816    -1.8298483788
   56      H      -0.7069607899    -2.9838326547    -1.4099549206
 ----------------------------------------------------------------

    9   -1510.2844658268      4.09E-09 Convergence criterion met
 Total energy in the final basis set = -1510.28446583
 Final energy is   -1510.28446582681
 **  OPTIMIZATION CONVERGED  **

                    Orbital Energies (a.u.)
 --------------------------------------------------------------

 Alpha MOs
 -- Occupied --
-18.939 -18.932 -18.931 -18.931 -18.888 -18.886 -18.878 -18.876
-18.871 -18.867 -10.103 -10.097 -10.095 -10.094 -10.065 -10.060
-10.060 -10.059 -10.058 -10.058 -10.054 -10.052 -10.041 -10.039
-10.037 -10.035 -10.021 -10.020 -10.020 -10.018  -1.018  -1.013
 -1.006  -1.004  -0.969  -0.968  -0.941  -0.934  -0.931  -0.929
 -0.764  -0.762  -0.727  -0.722  -0.710  -0.705  -0.692  -0.657
 -0.653  -0.612  -0.595  -0.577  -0.548  -0.545  -0.537  -0.535
 -0.513  -0.508  -0.482  -0.474  -0.465  -0.461  -0.452  -0.444
 -0.434  -0.432  -0.427  -0.411  -0.407  -0.402  -0.401  -0.396
 -0.395  -0.373  -0.371  -0.365  -0.362  -0.357  -0.351  -0.347
 -0.347  -0.341  -0.331  -0.330  -0.329  -0.327  -0.324  -0.309
 -0.308  -0.306  -0.304  -0.297  -0.290  -0.282  -0.280  -0.276
 -0.274  -0.257  -0.249  -0.247  -0.245  -0.233  -0.232  -0.186
 -0.174  -0.171  -0.167  -0.161  -0.158  -0.148  -0.146  -0.143
 -0.139

          Ground-State Mulliken Net Atomic Charges

     Atom                 Charge (a.u.)
  ----------------------------------------
      1 O                    -0.210594
      2 C                     0.201588
      3 C                    -0.077619
      4 C                    -0.078461
      5 C                     0.206928
      6 O                    -0.161579
      7 C                    -0.055230
      8 C                    -0.057949
      9 O                    -0.170745
     10 C                     0.206611
     11 C                    -0.077453
     12 C                    -0.078519
     13 C                     0.201180
     14 O                    -0.216513
     15 O                    -0.169495
     16 O                    -0.165268
     17 O                    -0.208609
     18 C                    -0.133074
     19 C                     0.026305
     20 C                    -0.144933
     21 C                    -0.142715
     22 C                     0.025352
     23 O                    -0.183161
     24 H                     0.088563
     25 H                     0.083586
     26 H                     0.084531
     27 H                     0.078091
     28 H                     0.073503
     29 H                     0.077870
     30 H                     0.073217
     31 H                     0.088074
     32 O                    -0.218603
     33 C                    -0.132348
     34 C                     0.025835
     35 C                    -0.144358
     36 C                    -0.143658
     37 C                     0.026076
     38 O                    -0.183615
     39 H                     0.086539
     40 H                     0.086747
     41 H                     0.100260
     42 H                     0.085074
     43 H                     0.078306
     44 H                     0.073628
     45 H                     0.078201
     46 H                     0.073185
     47 H                     0.087790
     48 H                     0.087995
     49 H                     0.088940
     50 H                     0.088823
     51 H                     0.100144
     52 H                     0.086149
     53 H                     0.103641
     54 H                     0.088421
     55 H                     0.104486
     56 H                     0.088860
  ----------------------------------------
  Sum of atomic charges =     0.000000

                    Cartesian Multipole Moments
 -----------------------------------------------------------------
    Charge (ESU x 10^10)
                 0.0000
    Dipole Moment (Debye)
         X      -0.2346      Y       0.1448      Z      -0.9300
       Tot       0.9700
    Quadrupole Moments (Debye-Ang)
        XX    -134.0888     XY      -9.0844     YY    -158.2958
        XZ       4.3497     YZ      -0.2239     ZZ    -163.6371

 Total job time:  78.37s(wall), 3735.29s(cpu)
        *  Thank you very much for using Q-Chem.  Have a nice day.  *
