 Q-Chem 5.0, Q-Chem, Inc., Pleasanton, CA (2017)
 Q-Chem 5.0.1 for Intel X86 EM64T Linux

User input:
--------------------------------------------------------------
$molecule
0  1
O -3.2075542118 0.7930761232 1.7638855603
C -4.0222869743 1.1120871891 0.8719628983
C -4.7697874372 0.187889299 -0.1505539469
C -3.8522358508 -0.3317396319 -1.3473539941
C -2.3606468394 0.1455830856 -1.2657113748
O -1.747815392 -0.4902339215 -0.1461796631
C -0.2894222219 -0.2264646605 -0.0802390647
C -0.0154933363 1.2856188098 0.2707729833
O 1.4015610533 1.7325199506 0.3405792246
C 2.3050204022 1.0521359668 -0.5424202145
C 3.7461898402 1.19062627 0.0837920124
C 4.3275758655 -0.0827697656 0.8251759831
C 3.3391402868 -1.2779922215 1.006197648
O 2.24690174 -1.4801449563 0.434587364
O -4.3975882855 2.4680031522 0.5866131073
O 3.9124469423 -2.1751227964 1.9639376753
O 1.998960569 0.5265674563 -1.6342014215
C 3.0281564851 -3.3493306381 2.1498421851
C 4.8192465209 1.3589631231 -1.0760901177
C 6.1778484745 1.8707513539 -0.4520118713
C 6.7327961557 0.5509580434 0.2008441925
C 5.5602434484 -0.4554927194 -0.1205321002
O 5.1097896209 -0.0409105552 -1.4650695393
H 3.7295907804 2.0592595359 0.7653193745
H 4.6959195753 0.1931753964 1.8296100306
H 4.4554169538 1.931557735 -1.9508706038
H 6.8492141152 2.2465420323 -1.2402150395
H 6.013694685 2.6723263356 0.2856091416
H 7.6641396507 0.2203023653 -0.2860402237
H 6.9142324909 0.6499960174 1.2830078156
H 5.8374958276 -1.5275782894 -0.1094956225
O -1.7859593501 0.9257535467 -2.0585471774
C -3.6568427084 3.3947798288 1.4730212348
C -5.2209215375 -1.1902466361 0.4983037098
C -6.3177202216 -1.835560169 -0.4378035457
C -5.4317730748 -2.3376400446 -1.6384670012
C -3.9899033323 -1.9044142532 -1.1567381693
O -4.0471805509 -2.0711385238 0.312103808
H -5.6314440274 0.7545711152 -0.5454508659
H -4.2543643287 0.0025761669 -2.3199596782
H -2.5603581104 3.3038221516 1.3311538971
H -5.4885762855 -1.1268544464 1.5706905806
H -6.8169713667 -2.6735730121 0.0745772528
H -7.0825777899 -1.105779952 -0.748579536
H -5.4874488188 -3.4319027951 -1.7528406095
H -5.706101142 -1.8671116925 -2.5959496083
H -3.1531306859 -2.4921788157 -1.580965358
H -3.888324217 3.2128715844 2.5424638042
H -3.9822406041 4.4131719605 1.1918019511
H 3.5350902584 -3.9987909838 2.8868824894
H 2.8822786018 -3.9059109306 1.2015505165
H 2.0328832648 -3.0526709924 2.5396309787
H -0.5493946256 1.8897943832 -0.496703368
H -0.4439947228 1.5208108837 1.2670516235
H 0.2034728285 -0.4504845718 -1.0504581761
H 0.1143725316 -0.9045499504 0.695439357
$end

$rem
JOBTYPE                   OPT
METHOD                    B3LYP
DFT_D                     d3_op
BASIS                     STO-3G
GEOM_OPT_MAX_CYCLES       100
GEOM_OPT_TOL_GRADIENT     300
GEOM_OPT_TOL_DISPLACEMENT 1200
GEOM_OPT_TOL_ENERGY       100
SYMMETRY                  False
THRESH                    12
SCF_CONVERGENCE           8
MAX_SUB_FILE_NUM          128
MEM_STATIC                400
MEM_TOTAL                 4000
$end
--------------------------------------------------------------

   16   -1510.2739632383      2.85E-09 Convergence criterion met
 Total energy in the final basis set = -1510.27396324
   14   -1510.2773414296      1.90E-09 Convergence criterion met
 Total energy in the final basis set = -1510.27734143
   13   -1510.2803387882      6.17E-09 Convergence criterion met
 Total energy in the final basis set = -1510.28033879
   13   -1510.2823721586      5.17E-09 Convergence criterion met
 Total energy in the final basis set = -1510.28237216
   13   -1510.2839574109      3.63E-09 Convergence criterion met
 Total energy in the final basis set = -1510.28395741
   12   -1510.2852630511      9.57E-09 Convergence criterion met
 Total energy in the final basis set = -1510.28526305
   13   -1510.2864472725      6.82E-09 Convergence criterion met
 Total energy in the final basis set = -1510.28644727
   13   -1510.2874783571      3.11E-09 Convergence criterion met
   12   -1510.3063976337      3.46E-09 Convergence criterion met
 Total energy in the final basis set = -1510.30639763
   11   -1510.3064202553      4.55E-09 Convergence criterion met
 Total energy in the final basis set = -1510.30642026
   11   -1510.3064325492      4.02E-09 Convergence criterion met
 Total energy in the final basis set = -1510.30643255
   11   -1510.3064351221      4.89E-09 Convergence criterion met
 Total energy in the final basis set = -1510.30643512
   11   -1510.3064361903      2.60E-09 Convergence criterion met
 Total energy in the final basis set = -1510.30643619
    9   -1510.3064365715      7.25E-09 Convergence criterion met
 Total energy in the final basis set = -1510.30643657

             Standard Nuclear Orientation (Angstroms)
    I     Atom           X                Y                Z
 ----------------------------------------------------------------
    1      O      -2.2284186478     2.0754622950    -0.1464922573
    2      C      -2.5972277083     1.0875202838     0.5335199442
    3      C      -3.8443416560     0.1805749899     0.2180668415
    4      C      -3.8043922777    -0.4155204625    -1.2553314190
    5      C      -2.5605345098     0.0189380909    -2.0997266746
    6      O      -1.3521329307    -0.4117616328    -1.4529626347
    7      C      -0.1646949436     0.0715457327    -2.2016421053
    8      C       0.2070023581     1.5436723972    -1.7760688135
    9      O       1.1446709122     1.5323404323    -0.6260536318
   10      C       2.5009209713     1.6164674728    -1.0763375290
   11      C       3.4367878781     1.4736028018     0.1758271331
   12      C       3.1986083024     0.1367957865     0.9992232055
   13      C       2.0738804038    -0.7674679566     0.3893483331
   14      O       2.0494321371    -1.2785909193    -0.7544818673
   15      O      -1.9566261876     0.6300599645     1.7153068452
   16      O       1.0544186083    -0.9507342650     1.3741956955
   17      O       2.8462434059     1.8008378134    -2.2626945437
   18      C      -0.0387610615    -1.8175328513     0.8554797846
   19      C       4.9454640499     1.2970039873    -0.2683114896
   20      C       5.8684490068     1.5514758279     0.9857620744
   21      C       5.6389905191     0.2263842355     1.8046367456
   22      C       4.6304438657    -0.5441375109     0.8628531949
   23      O       5.0618043161    -0.1623019694    -0.4991211406
   24      H       3.2956478710     2.3592823871     0.8222613777
   25      H       2.9403141614     0.3490331981     2.0510324715
   26      H       5.2071646251     1.8544780113    -1.1886357217
   27      H       6.9203747818     1.6581625909     0.6768423744
   28      H       5.5698474905     2.4533006764     1.5435606312
   29      H       6.5730417334    -0.3468711526     1.9166970331
   30      H       5.2155848136     0.4103412165     2.8050673622
   31      H       4.6274479538    -1.6458958219     0.9739300946
   32      O      -2.5836722860     0.6195936125    -3.1956647797
   33      C      -0.6971444162     1.3745673870     1.9733536310
   34      C      -3.9041196524    -1.1488541366     1.0788929957
   35      C      -5.3494082583    -1.7705051631     0.9432022754
   36      C      -5.2888920908    -2.3713887272    -0.5102283432
   37      C      -3.8218378825    -1.9757527295    -0.9414567235
   38      O      -3.0494490296    -2.0878026113     0.3148143102
   39      H      -4.7528316596     0.7958053285     0.3566102139
   40      H      -4.6983646248    -0.1129930313    -1.8281804860
   41      H      -0.5920947227     2.1979961601     1.2410650644
   42      H      -3.5240854534    -1.0336132242     2.1115184984
   43      H      -5.5014211665    -2.5571284725     1.6991485945
   44      H      -6.1408004376    -1.0128059021     1.0587785977
   45      H      -5.4029960706    -3.4671283685    -0.4997220605
   46      H      -6.0496983799    -1.9434237993    -1.1822943495
   47      H      -3.3738007680    -2.6096640565    -1.7310441409
   48      H       0.1429376841     0.6500414400     1.8646108784
   49      H      -0.7374414623     1.7760486856     3.0039140680
   50      H      -0.6844720182    -2.0357284386     1.7244496878
   51      H       0.3707589558    -2.7611567371     0.4451284009
   52      H      -0.6419356678    -1.3032117285     0.0706290768
   53      H       0.6701154570     2.0795384527    -2.6306548792
   54      H      -0.7074173084     2.0663848581    -1.4153838505
   55      H      -0.3656118640     0.0340111801    -3.2920078262
   56      H       0.6666385553    -0.6167864647    -1.9205092456
 ----------------------------------------------------------------

    9   -1510.3064366230      6.47E-09 Convergence criterion met
 Total energy in the final basis set = -1510.30643662
 Final energy is   -1510.30643662298
 **  OPTIMIZATION CONVERGED  **

                    Orbital Energies (a.u.)
 --------------------------------------------------------------

 Alpha MOs
 -- Occupied --
-18.940 -18.937 -18.935 -18.928 -18.892 -18.888 -18.879 -18.877
-18.876 -18.874 -10.104 -10.104 -10.102 -10.099 -10.064 -10.061
-10.061 -10.058 -10.056 -10.055 -10.042 -10.042 -10.042 -10.040
-10.039 -10.038 -10.024 -10.022 -10.021 -10.020  -1.018  -1.014
 -1.009  -1.006  -0.974  -0.970  -0.940  -0.938  -0.937  -0.933
 -0.767  -0.764  -0.728  -0.724  -0.712  -0.707  -0.691  -0.655
 -0.654  -0.614  -0.597  -0.581  -0.549  -0.544  -0.540  -0.537
 -0.514  -0.510  -0.489  -0.471  -0.464  -0.457  -0.453  -0.443
 -0.437  -0.432  -0.426  -0.424  -0.415  -0.409  -0.399  -0.391
 -0.388  -0.386  -0.373  -0.364  -0.362  -0.355  -0.353  -0.351
 -0.346  -0.343  -0.335  -0.332  -0.331  -0.325  -0.320  -0.313
 -0.311  -0.308  -0.305  -0.303  -0.296  -0.286  -0.285  -0.279
 -0.271  -0.261  -0.253  -0.244  -0.240  -0.235  -0.233  -0.189
 -0.185  -0.171  -0.162  -0.160  -0.157  -0.153  -0.152  -0.147
 -0.144

          Ground-State Mulliken Net Atomic Charges

     Atom                 Charge (a.u.)
  ----------------------------------------
      1 O                    -0.225902
      2 C                     0.216205
      3 C                    -0.078084
      4 C                    -0.080305
      5 C                     0.211001
      6 O                    -0.177282
      7 C                    -0.064461
      8 C                    -0.065142
      9 O                    -0.180121
     10 C                     0.211554
     11 C                    -0.078755
     12 C                    -0.079626
     13 C                     0.217482
     14 O                    -0.217491
     15 O                    -0.169097
     16 O                    -0.169649
     17 O                    -0.208791
     18 C                    -0.142359
     19 C                     0.024457
     20 C                    -0.144104
     21 C                    -0.143771
     22 C                     0.026097
     23 O                    -0.185951
     24 H                     0.084745
     25 H                     0.085247
     26 H                     0.091450
     27 H                     0.078680
     28 H                     0.073072
     29 H                     0.078519
     30 H                     0.073379
     31 H                     0.083593
     32 O                    -0.208496
     33 C                    -0.148832
     34 C                     0.023559
     35 C                    -0.144474
     36 C                    -0.143539
     37 C                     0.025642
     38 O                    -0.189798
     39 H                     0.085458
     40 H                     0.086693
     41 H                     0.098265
     42 H                     0.092828
     43 H                     0.078194
     44 H                     0.073801
     45 H                     0.078502
     46 H                     0.074756
     47 H                     0.084253
     48 H                     0.108341
     49 H                     0.078827
     50 H                     0.091191
     51 H                     0.084284
     52 H                     0.115726
     53 H                     0.096723
     54 H                     0.108113
     55 H                     0.094045
     56 H                     0.111348
  ----------------------------------------
  Sum of atomic charges =    -0.000000

                    Cartesian Multipole Moments
 -----------------------------------------------------------------
    Charge (ESU x 10^10)
                -0.0000
    Dipole Moment (Debye)
         X      -1.5450      Y      -0.1860      Z       3.5622
       Tot       3.8872
    Quadrupole Moments (Debye-Ang)
        XX    -145.5574     XY       8.9559     YY    -159.7209
        XZ       8.5359     YZ       4.9816     ZZ    -165.3262

 Total job time:  186.79s(wall), 8901.81s(cpu)
        *  Thank you very much for using Q-Chem.  Have a nice day.  *
