 Q-Chem 5.0, Q-Chem, Inc., Pleasanton, CA (2017)
 Q-Chem 5.0.1 for Intel X86 EM64T Linux

User input:
--------------------------------------------------------------
$molecule
0  1
O -3.94934 -3.66094 2.70899
C -3.26408 -4.56952 2.26188
C -3.36658 -6.02376 2.66595
C -2.77152 -6.41828 4.02761
C -2.29931 -5.28492 4.91112
O -3.37003 -4.55226 5.33795
C -3.02083 -3.55455 6.30329
C -2.19163 -2.45556 5.64696
O -1.81213 -1.4771 6.62751
C -1.62482 -1.95266 7.88366
C -1.7958 -0.89266 8.94565
C -3.12711 -0.9499 9.70895
C -3.91889 -2.23362 9.56111
O -3.48321 -3.28871 9.12345
O -2.42711 -4.29964 1.22551
O -5.17237 -2.21572 10.08559
O -0.87789 -2.90453 8.08433
C -6.02782 -3.29749 10.08883
C -0.81085 -0.99806 10.13608
C -0.66992 0.36596 10.8117
C -2.02948 0.49986 11.46759
C -2.62066 -0.87961 11.15632
O -1.50322 -1.73429 11.11533
H -1.62885 0.09836 8.46323
H -3.79924 -0.11991 9.39778
H 0.19287 -1.38177 9.85088
H 0.09821 0.24919 11.60993
H -0.37798 1.2086 10.14877
H -1.87972 0.63506 12.5617
H -2.67307 1.31218 11.06528
H -3.41037 -1.1437 11.89411
O -1.15742 -5.20913 5.34994
C -2.23329 -3.04343 0.69012
C -4.81638 -6.51301 2.83457
C -4.8786 -8.03125 2.66407
C -4.22411 -8.48978 3.95286
C -3.98747 -7.14192 4.64214
O -5.07415 -6.35535 4.20932
H -2.86859 -6.60765 1.85777
H -1.90368 -7.10493 3.90358
H -1.83559 -2.35481 1.46623
H -5.52654 -6.01449 2.13905
H -5.95213 -8.32606 2.68913
H -4.41382 -8.41678 1.7312
H -4.96527 -9.08676 4.52964
H -3.28444 -9.07036 3.82926
H -3.88378 -7.27647 5.74139
H -3.19014 -2.6457 0.28935
H -1.4992 -3.11043 -0.13879
H -6.98155 -3.00578 10.57436
H -5.57902 -4.13924 10.65835
H -6.24002 -3.61972 9.04678
H -1.26491 -2.83196 5.17155
H -2.79132 -1.96154 4.85343
H -2.5451 -4.1115 7.12993
H -3.96104 -3.09477 6.67431
$end

$opt
CONSTRAINT
tors           1           2           3           4     -75.574
tors           3           4           5           6     +67.971
tors           4           5           6           7    +173.186
tors           5           6           7           8     +68.969
tors           6           7           8           9    -178.373
tors           7           8           9          10     +31.633
tors           8           9          10          11    -156.206
tors           9          10          11          12    +103.115
tors          11          12          13          14     +15.222
ENDCONSTRAINT
$end

$rem
JOBTYPE                   OPT
METHOD                    B3LYP
DFT_D                     d3_op
BASIS                     STO-3G
GEOM_OPT_MAX_CYCLES       100
GEOM_OPT_TOL_GRADIENT     300
GEOM_OPT_TOL_DISPLACEMENT 1200
GEOM_OPT_TOL_ENERGY       100
SYMMETRY                  False
THRESH                    12
SCF_CONVERGENCE           8
MAX_SUB_FILE_NUM          128
MEM_STATIC                400
MEM_TOTAL                 4000
$end
--------------------------------------------------------------

   15   -1510.1301230698      7.72E-09 Convergence criterion met
 Total energy in the final basis set = -1510.13012307
   14   -1510.2023703551      5.15E-09 Convergence criterion met
 Total energy in the final basis set = -1510.20237036
   14   -1510.2397216497      6.28E-09 Convergence criterion met
 Total energy in the final basis set = -1510.23972165
   14   -1510.2591924107      6.36E-09 Convergence criterion met
 Total energy in the final basis set = -1510.25919241
   14   -1510.2667867915      3.59E-09 Convergence criterion met
 Total energy in the final basis set = -1510.26678679
   13   -1510.2700369358      7.88E-09 Convergence criterion met
 Total energy in the final basis set = -1510.27003694
   13   -1510.2716635712      2.68E-09 Convergence criterion met
 Total energy in the final basis set = -1510.27166357
   13   -1510.2722878445      4.69E-09 Convergence criterion met
   12   -1510.2737590145      3.55E-09 Convergence criterion met
 Total energy in the final basis set = -1510.27375901
   11   -1510.2738038890      7.14E-09 Convergence criterion met
 Total energy in the final basis set = -1510.27380389
   10   -1510.2738335739      8.99E-09 Convergence criterion met
 Total energy in the final basis set = -1510.27383357
   10   -1510.2738587688      6.36E-09 Convergence criterion met
 Total energy in the final basis set = -1510.27385877
    9   -1510.2738734700      7.53E-09 Convergence criterion met
 Total energy in the final basis set = -1510.27387347
    9   -1510.2738782394      7.68E-09 Convergence criterion met
 Total energy in the final basis set = -1510.27387824

             Standard Nuclear Orientation (Angstroms)
    I     Atom           X                Y                Z
 ----------------------------------------------------------------
    1      O      -3.2075542118     0.7930761232     1.7638855603
    2      C      -4.0222869743     1.1120871891     0.8719628983
    3      C      -4.7697874372     0.1878892990    -0.1505539469
    4      C      -3.8522358508    -0.3317396319    -1.3473539941
    5      C      -2.3606468394     0.1455830856    -1.2657113748
    6      O      -1.7478153920    -0.4902339215    -0.1461796631
    7      C      -0.2894222219    -0.2264646605    -0.0802390647
    8      C      -0.0154933363     1.2856188098     0.2707729833
    9      O       1.4015610533     1.7325199506     0.3405792246
   10      C       2.3050204022     1.0521359668    -0.5424202145
   11      C       3.7461898402     1.1906262700     0.0837920124
   12      C       4.3275758655    -0.0827697656     0.8251759831
   13      C       3.3391402868    -1.2779922215     1.0061976480
   14      O       2.2469017400    -1.4801449563     0.4345873640
   15      O      -4.3975882855     2.4680031522     0.5866131073
   16      O       3.9124469423    -2.1751227964     1.9639376753
   17      O       1.9989605690     0.5265674563    -1.6342014215
   18      C       3.0281564851    -3.3493306381     2.1498421851
   19      C       4.8192465209     1.3589631231    -1.0760901177
   20      C       6.1778484745     1.8707513539    -0.4520118713
   21      C       6.7327961557     0.5509580434     0.2008441925
   22      C       5.5602434484    -0.4554927194    -0.1205321002
   23      O       5.1097896209    -0.0409105552    -1.4650695393
   24      H       3.7295907804     2.0592595359     0.7653193745
   25      H       4.6959195753     0.1931753964     1.8296100306
   26      H       4.4554169538     1.9315577350    -1.9508706038
   27      H       6.8492141152     2.2465420323    -1.2402150395
   28      H       6.0136946850     2.6723263356     0.2856091416
   29      H       7.6641396507     0.2203023653    -0.2860402237
   30      H       6.9142324909     0.6499960174     1.2830078156
   31      H       5.8374958276    -1.5275782894    -0.1094956225
   32      O      -1.7859593501     0.9257535467    -2.0585471774
   33      C      -3.6568427084     3.3947798288     1.4730212348
   34      C      -5.2209215375    -1.1902466361     0.4983037098
   35      C      -6.3177202216    -1.8355601690    -0.4378035457
   36      C      -5.4317730748    -2.3376400446    -1.6384670012
   37      C      -3.9899033323    -1.9044142532    -1.1567381693
   38      O      -4.0471805509    -2.0711385238     0.3121038080
   39      H      -5.6314440274     0.7545711152    -0.5454508659
   40      H      -4.2543643287     0.0025761669    -2.3199596782
   41      H      -2.5603581104     3.3038221516     1.3311538971
   42      H      -5.4885762855    -1.1268544464     1.5706905806
   43      H      -6.8169713667    -2.6735730121     0.0745772528
   44      H      -7.0825777899    -1.1057799520    -0.7485795360
   45      H      -5.4874488188    -3.4319027951    -1.7528406095
   46      H      -5.7061011420    -1.8671116925    -2.5959496083
   47      H      -3.1531306859    -2.4921788157    -1.5809653580
   48      H      -3.8883242170     3.2128715844     2.5424638042
   49      H      -3.9822406041     4.4131719605     1.1918019511
   50      H       3.5350902584    -3.9987909838     2.8868824894
   51      H       2.8822786018    -3.9059109306     1.2015505165
   52      H       2.0328832648    -3.0526709924     2.5396309787
   53      H      -0.5493946256     1.8897943832    -0.4967033680
   54      H      -0.4439947228     1.5208108837     1.2670516235
   55      H       0.2034728285    -0.4504845718    -1.0504581761
   56      H       0.1143725316    -0.9045499504     0.6954393570
 ----------------------------------------------------------------

    9   -1510.2738799161      4.64E-09 Convergence criterion met
 Total energy in the final basis set = -1510.27387992
 Final energy is   -1510.27387991608
 **  OPTIMIZATION CONVERGED  **

                    Orbital Energies (a.u.)
 --------------------------------------------------------------

 Alpha MOs
 -- Occupied --
-18.938 -18.931 -18.928 -18.918 -18.888 -18.886 -18.881 -18.874
-18.871 -18.869 -10.104 -10.095 -10.095 -10.094 -10.067 -10.063
-10.061 -10.058 -10.057 -10.057 -10.057 -10.053 -10.040 -10.035
-10.034 -10.033 -10.020 -10.019 -10.018 -10.017  -1.016  -1.010
 -1.004  -0.997  -0.970  -0.967  -0.941  -0.934  -0.930  -0.927
 -0.762  -0.760  -0.724  -0.721  -0.710  -0.705  -0.687  -0.665
 -0.662  -0.614  -0.594  -0.581  -0.545  -0.543  -0.536  -0.535
 -0.513  -0.509  -0.478  -0.467  -0.460  -0.454  -0.449  -0.441
 -0.432  -0.430  -0.428  -0.414  -0.412  -0.410  -0.405  -0.388
 -0.383  -0.376  -0.369  -0.368  -0.359  -0.354  -0.350  -0.347
 -0.342  -0.336  -0.332  -0.330  -0.328  -0.327  -0.324  -0.311
 -0.306  -0.305  -0.304  -0.301  -0.294  -0.285  -0.278  -0.275
 -0.272  -0.258  -0.254  -0.248  -0.234  -0.232  -0.227  -0.182
 -0.181  -0.174  -0.161  -0.156  -0.151  -0.144  -0.142  -0.141
 -0.140

          Ground-State Mulliken Net Atomic Charges

     Atom                 Charge (a.u.)
  ----------------------------------------
      1 O                    -0.207675
      2 C                     0.204395
      3 C                    -0.078952
      4 C                    -0.078400
      5 C                     0.204223
      6 O                    -0.163022
      7 C                    -0.056520
      8 C                    -0.057801
      9 O                    -0.179580
     10 C                     0.216152
     11 C                    -0.080209
     12 C                    -0.079608
     13 C                     0.210918
     14 O                    -0.212644
     15 O                    -0.170747
     16 O                    -0.170721
     17 O                    -0.202413
     18 C                    -0.128873
     19 C                     0.026001
     20 C                    -0.144935
     21 C                    -0.142945
     22 C                     0.026489
     23 O                    -0.185739
     24 H                     0.085249
     25 H                     0.087066
     26 H                     0.086103
     27 H                     0.078201
     28 H                     0.073628
     29 H                     0.078307
     30 H                     0.073973
     31 H                     0.084578
     32 O                    -0.213955
     33 C                    -0.129257
     34 C                     0.026345
     35 C                    -0.143769
     36 C                    -0.144220
     37 C                     0.027229
     38 O                    -0.182471
     39 H                     0.085780
     40 H                     0.085151
     41 H                     0.087534
     42 H                     0.084082
     43 H                     0.077461
     44 H                     0.073141
     45 H                     0.077712
     46 H                     0.073749
     47 H                     0.085077
     48 H                     0.088035
     49 H                     0.090562
     50 H                     0.091461
     51 H                     0.090971
     52 H                     0.090023
     53 H                     0.090677
     54 H                     0.087893
     55 H                     0.106891
     56 H                     0.099399
  ----------------------------------------
  Sum of atomic charges =     0.000000

                    Cartesian Multipole Moments
 -----------------------------------------------------------------
    Charge (ESU x 10^10)
                 0.0000
    Dipole Moment (Debye)
         X      -0.1329      Y       0.3961      Z       2.0960
       Tot       2.1372
    Quadrupole Moments (Debye-Ang)
        XX    -134.3233     XY       1.3749     YY    -150.6506
        XZ      10.3070     YZ       2.9837     ZZ    -164.0672

 Total job time:  53.38s(wall), 2537.21s(cpu)
        *  Thank you very much for using Q-Chem.  Have a nice day.  *
