 Q-Chem 5.0, Q-Chem, Inc., Pleasanton, CA (2017)
 Q-Chem 5.0.1 for Intel X86 EM64T Linux

User input:
--------------------------------------------------------------
$molecule
0  1
O -3.94934 -3.66094 2.70899
C -3.26408 -4.56952 2.26188
C -3.36658 -6.02376 2.66595
C -3.87849 -6.32454 4.08416
C -4.39871 -5.14631 4.87741
O -5.48167 -5.52702 5.61747
C -5.982 -4.48424 6.46099
C -6.31904 -3.25129 5.62891
O -6.78457 -2.19575 6.48448
C -5.92144 -1.16472 6.66099
C -4.67498 -1.56333 7.41471
C -3.41423 -0.76693 7.04792
C -3.6445 0.51458 6.27241
O -4.56372 0.71524 5.49181
O -2.25232 -4.2619 1.4083
O -2.62436 1.41463 6.29439
O -6.41203 -0.05915 6.84374
C -2.61062 2.59733 5.58472
C -4.77404 -1.31885 8.93002
C -3.79033 -2.2256 9.66621
C -2.47503 -1.58966 9.26852
C -2.98307 -0.3726 8.48409
O -4.20216 -0.04931 9.10731
H -4.39551 -2.59308 7.22561
H -2.61705 -1.34319 6.52718
H -5.80279 -1.4558 9.32946
H -3.95091 -2.06294 10.75621
H -3.88038 -3.30993 9.43986
H -1.94837 -1.27022 10.19525
H -1.80623 -2.22526 8.64861
H -2.20906 0.42498 8.50257
O -3.63475 -4.24891 5.21992
C -1.97586 -2.98781 0.95828
C -4.43348 -6.74405 1.81557
C -4.1204 -8.23543 1.75116
C -4.43382 -8.6433 3.17216
C -5.0079 -7.32757 3.71738
O -5.59861 -6.71711 2.59984
H -2.38214 -6.49846 2.44902
H -3.09645 -6.80528 4.71265
H -1.73149 -2.32356 1.81473
H -4.53027 -6.3326 0.7863
H -4.87767 -8.69187 1.07356
H -3.10309 -8.50386 1.39356
H -5.20906 -9.44113 3.14226
H -3.56206 -8.98131 3.77331
H -5.69338 -7.57371 4.55549
H -2.84831 -2.58053 0.40381
H -1.10336 -3.02482 0.27428
H -1.66248 3.13459 5.7917
H -3.46187 3.23966 5.89633
H -2.67403 2.39126 4.49482
H -5.47569 -2.8778 5.01229
H -7.1181 -3.50195 4.89933
H -5.27914 -4.36231 7.2986
H -6.91567 -4.84219 6.94383
$end

$opt
CONSTRAINT
tors           1           2           3           4     -27.578
tors           3           4           5           6    +142.386
tors           4           5           6           7    +176.375
tors           5           6           7           8     +56.105
tors           6           7           8           9    -178.373
tors           7           8           9          10    +107.584
tors           8           9          10          11     -66.489
tors           9          10          11          12    +149.754
tors          11          12          13          14     -30.395
ENDCONSTRAINT
$end

$rem
JOBTYPE                   OPT
METHOD                    B3LYP
DFT_D                     d3_op
BASIS                     STO-3G
GEOM_OPT_MAX_CYCLES       100
GEOM_OPT_TOL_GRADIENT     300
GEOM_OPT_TOL_DISPLACEMENT 1200
GEOM_OPT_TOL_ENERGY       100
SYMMETRY                  False
THRESH                    12
SCF_CONVERGENCE           8
MAX_SUB_FILE_NUM          128
MEM_STATIC                400
MEM_TOTAL                 4000
$end
--------------------------------------------------------------

   15   -1510.1009487697      8.27E-09 Convergence criterion met
 Total energy in the final basis set = -1510.10094877
   13   -1510.1757428307      6.67E-09 Convergence criterion met
 Total energy in the final basis set = -1510.17574283
   14   -1510.2172653525      4.55E-09 Convergence criterion met
 Total energy in the final basis set = -1510.21726535
    2   -1510.2172653523      5.49E-09 Convergence criterion met
 Total energy in the final basis set = -1510.21726535
   14   -1510.2381408645      4.99E-09 Convergence criterion met
 Total energy in the final basis set = -1510.23814086
   13   -1510.2471710474      7.29E-09 Convergence criterion met
 Total energy in the final basis set = -1510.24717105
   13   -1510.2513745986      4.33E-09 Convergence criterion met
 Total energy in the final basis set = -1510.25137460
   13   -1510.2536881869      4.71E-09 Convergence criterion met
   10   -1510.2624949836      6.60E-09 Convergence criterion met
 Total energy in the final basis set = -1510.26249498
   11   -1510.2625166783      4.87E-09 Convergence criterion met
 Total energy in the final basis set = -1510.26251668
   10   -1510.2625298965      8.52E-09 Convergence criterion met
 Total energy in the final basis set = -1510.26252990
    9   -1510.2625309957      8.84E-09 Convergence criterion met
 Total energy in the final basis set = -1510.26253100
    9   -1510.2625329137      5.04E-09 Convergence criterion met
 Total energy in the final basis set = -1510.26253291
    9   -1510.2625349260      2.64E-09 Convergence criterion met
 Total energy in the final basis set = -1510.26253493

             Standard Nuclear Orientation (Angstroms)
    I     Atom           X                Y                Z
 ----------------------------------------------------------------
    1      O      -1.9407217768     1.0747594934     1.2955110387
    2      C      -2.4762034090     1.6056325402     0.2943234967
    3      C      -3.5060347007     0.9053168931    -0.6651420317
    4      C      -3.2655690507    -0.6629496326    -0.6718721779
    5      C      -1.8360379394    -1.0095831841    -0.1235994281
    6      O      -1.8553817805    -2.2043993297     0.6696898919
    7      C      -0.4703569811    -2.5492317995     1.0985297235
    8      C       0.2064924413    -1.3439655346     1.8794118899
    9      O       1.6065194407    -1.6143170070     2.3006341544
   10      C       2.4635505274    -0.8085241681     1.4404232473
   11      C       2.4885823764    -1.1975159150    -0.0917167834
   12      C       2.7573200015     0.0506844518    -1.0198060424
   13      C       2.3355288302     1.4100895382    -0.3584399094
   14      O       1.4053944990     1.5715886934     0.4676574964
   15      O      -2.1588258162     2.9102528335    -0.1802998830
   16      O       3.1417687801     2.4638456201    -0.8801598442
   17      O       3.2857226325    -0.0223811855     1.9548468137
   18      C       2.7399842317     3.7617753880    -0.2889273013
   19      C       3.8401856114    -2.0030198580    -0.3288683480
   20      C       3.9025952402    -2.5065562407    -1.8273166768
   21      C       4.3325141610    -1.1921104169    -2.5803293589
   22      C       4.2878890817    -0.1491123552    -1.3965093577
   23      O       4.8524368201    -0.9220954067    -0.2659629144
   24      H       1.5874164952    -1.7499901045    -0.3941793101
   25      H       2.1399931746    -0.0367755026    -1.9346232118
   26      H       4.0510776844    -2.7760959909     0.4355394938
   27      H       4.6542292512    -3.3041119879    -1.9370626610
   28      H       2.9282661991    -2.8911896475    -2.1700280689
   29      H       5.3571768863    -1.2754448573    -2.9769206837
   30      H       3.6525092556    -0.9260704748    -3.4051927057
   31      H       4.8508327859     0.7910357535    -1.5525338238
   32      O      -0.7854736395    -0.4851171765    -0.5670007595
   33      C      -1.0450085012     3.4687325847     0.6310211585
   34      C      -4.9491272452     0.9560602884     0.0016817391
   35      C      -6.0115338137     0.3359597098    -0.9912140109
   36      C      -5.7487457627    -1.2054406151    -0.8075786283
   37      C      -4.5081971071    -1.1787316341     0.1669933970
   38      O      -4.8273895547    -0.0548017786     1.0788522768
   39      H      -3.4730692469     1.3647900927    -1.6679409013
   40      H      -3.3082163848    -1.0530111725    -1.7059646905
   41      H      -0.1490346396     2.8030546583     0.6009860614
   42      H      -5.2225334165     1.9425812988     0.4240054121
   43      H      -7.0331079343     0.6139760225    -0.6872943657
   44      H      -5.8487678293     0.6726400823    -2.0278458789
   45      H      -6.6053594036    -1.7043993531    -0.3266010876
   46      H      -5.5270732841    -1.7178278124    -1.7574221060
   47      H      -4.3191963201    -2.1067424011     0.7402057484
   48      H      -1.3490444987     3.6152643036     1.6870877754
   49      H      -0.8094164570     4.4491473094     0.1781934066
   50      H       3.5119987420     4.4902345041    -0.5978844369
   51      H       2.6949504264     3.7075229877     0.8174892931
   52      H       1.7510505642     4.0894869737    -0.6696954675
   53      H       0.1383408331    -0.4387645435     1.2437833128
   54      H      -0.3801724206    -1.1656768471     2.8051901583
   55      H       0.1383977500    -2.8364673694     0.2145656017
   56      H      -0.5777575409    -3.4343547721     1.7563358549
 ----------------------------------------------------------------

    9   -1510.2625347365      2.16E-09 Convergence criterion met
 Total energy in the final basis set = -1510.26253474
 Final energy is   -1510.26253473645
 **  OPTIMIZATION CONVERGED  **

                    Orbital Energies (a.u.)
 --------------------------------------------------------------

 Alpha MOs
 -- Occupied --
-18.944 -18.936 -18.932 -18.902 -18.887 -18.887 -18.882 -18.881
-18.870 -18.864 -10.107 -10.101 -10.095 -10.093 -10.069 -10.067
-10.061 -10.060 -10.059 -10.058 -10.050 -10.048 -10.038 -10.037
-10.037 -10.032 -10.022 -10.021 -10.020 -10.020  -1.017  -1.014
 -1.005  -0.993  -0.970  -0.969  -0.942  -0.937  -0.928  -0.925
 -0.763  -0.762  -0.723  -0.721  -0.710  -0.706  -0.689  -0.666
 -0.655  -0.606  -0.597  -0.581  -0.547  -0.546  -0.538  -0.538
 -0.513  -0.510  -0.475  -0.473  -0.465  -0.459  -0.455  -0.447
 -0.437  -0.434  -0.424  -0.415  -0.413  -0.406  -0.403  -0.394
 -0.387  -0.379  -0.375  -0.371  -0.360  -0.358  -0.354  -0.352
 -0.338  -0.337  -0.331  -0.330  -0.329  -0.324  -0.316  -0.311
 -0.308  -0.305  -0.301  -0.297  -0.292  -0.288  -0.283  -0.276
 -0.273  -0.259  -0.257  -0.246  -0.234  -0.233  -0.229  -0.185
 -0.181  -0.170  -0.160  -0.154  -0.151  -0.147  -0.147  -0.142
 -0.137

          Ground-State Mulliken Net Atomic Charges

     Atom                 Charge (a.u.)
  ----------------------------------------
      1 O                    -0.211946
      2 C                     0.213671
      3 C                    -0.077994
      4 C                    -0.078845
      5 C                     0.215366
      6 O                    -0.168568
      7 C                    -0.050888
      8 C                    -0.064244
      9 O                    -0.185298
     10 C                     0.218899
     11 C                    -0.082093
     12 C                    -0.077781
     13 C                     0.221723
     14 O                    -0.214878
     15 O                    -0.170020
     16 O                    -0.165602
     17 O                    -0.186313
     18 C                    -0.128394
     19 C                     0.023825
     20 C                    -0.144921
     21 C                    -0.142085
     22 C                     0.024633
     23 O                    -0.185598
     24 H                     0.084086
     25 H                     0.087133
     26 H                     0.083984
     27 H                     0.078413
     28 H                     0.072634
     29 H                     0.078174
     30 H                     0.073128
     31 H                     0.091747
     32 O                    -0.229985
     33 C                    -0.140185
     34 C                     0.024600
     35 C                    -0.144707
     36 C                    -0.142769
     37 C                     0.023544
     38 O                    -0.188515
     39 H                     0.086146
     40 H                     0.083463
     41 H                     0.109631
     42 H                     0.082905
     43 H                     0.078215
     44 H                     0.073443
     45 H                     0.078130
     46 H                     0.072482
     47 H                     0.091912
     48 H                     0.085679
     49 H                     0.080784
     50 H                     0.093077
     51 H                     0.096290
     52 H                     0.086712
     53 H                     0.112047
     54 H                     0.088852
     55 H                     0.076586
     56 H                     0.089716
  ----------------------------------------
  Sum of atomic charges =    -0.000000

                    Cartesian Multipole Moments
 -----------------------------------------------------------------
    Charge (ESU x 10^10)
                -0.0000
    Dipole Moment (Debye)
         X      -1.9068      Y      -0.0015      Z      -4.4421
       Tot       4.8341
    Quadrupole Moments (Debye-Ang)
        XX    -162.5553     XY       1.3947     YY    -145.1247
        XZ      -2.3505     YZ       2.8105     ZZ    -164.4433

 Total job time:  118.47s(wall), 5648.28s(cpu)
        *  Thank you very much for using Q-Chem.  Have a nice day.  *
