 Q-Chem 5.0, Q-Chem, Inc., Pleasanton, CA (2017)
 Q-Chem 5.0.1 for Intel X86 EM64T Linux

User input:
--------------------------------------------------------------
$molecule
0  1
O -1.9407217768 1.0747594934 1.2955110387
C -2.476203409 1.6056325402 0.2943234967
C -3.5060347007 0.9053168931 -0.6651420317
C -3.2655690507 -0.6629496326 -0.6718721779
C -1.8360379394 -1.0095831841 -0.1235994281
O -1.8553817805 -2.2043993297 0.6696898919
C -0.4703569811 -2.5492317995 1.0985297235
C 0.2064924413 -1.3439655346 1.8794118899
O 1.6065194407 -1.614317007 2.3006341544
C 2.4635505274 -0.8085241681 1.4404232473
C 2.4885823764 -1.197515915 -0.0917167834
C 2.7573200015 0.0506844518 -1.0198060424
C 2.3355288302 1.4100895382 -0.3584399094
O 1.405394499 1.5715886934 0.4676574964
O -2.1588258162 2.9102528335 -0.180299883
O 3.1417687801 2.4638456201 -0.8801598442
O 3.2857226325 -0.0223811855 1.9548468137
C 2.7399842317 3.761775388 -0.2889273013
C 3.8401856114 -2.003019858 -0.328868348
C 3.9025952402 -2.5065562407 -1.8273166768
C 4.332514161 -1.1921104169 -2.5803293589
C 4.2878890817 -0.1491123552 -1.3965093577
O 4.8524368201 -0.9220954067 -0.2659629144
H 1.5874164952 -1.7499901045 -0.3941793101
H 2.1399931746 -0.0367755026 -1.9346232118
H 4.0510776844 -2.7760959909 0.4355394938
H 4.6542292512 -3.3041119879 -1.937062661
H 2.9282661991 -2.8911896475 -2.1700280689
H 5.3571768863 -1.2754448573 -2.9769206837
H 3.6525092556 -0.9260704748 -3.4051927057
H 4.8508327859 0.7910357535 -1.5525338238
O -0.7854736395 -0.4851171765 -0.5670007595
C -1.0450085012 3.4687325847 0.6310211585
C -4.9491272452 0.9560602884 0.0016817391
C -6.0115338137 0.3359597098 -0.9912140109
C -5.7487457627 -1.2054406151 -0.8075786283
C -4.5081971071 -1.1787316341 0.166993397
O -4.8273895547 -0.0548017786 1.0788522768
H -3.4730692469 1.3647900927 -1.6679409013
H -3.3082163848 -1.0530111725 -1.7059646905
H -0.1490346396 2.8030546583 0.6009860614
H -5.2225334165 1.9425812988 0.4240054121
H -7.0331079343 0.6139760225 -0.6872943657
H -5.8487678293 0.6726400823 -2.0278458789
H -6.6053594036 -1.7043993531 -0.3266010876
H -5.5270732841 -1.7178278124 -1.757422106
H -4.3191963201 -2.1067424011 0.7402057484
H -1.3490444987 3.6152643036 1.6870877754
H -0.809416457 4.4491473094 0.1781934066
H 3.511998742 4.4902345041 -0.5978844369
H 2.6949504264 3.7075229877 0.8174892931
H 1.7510505642 4.0894869737 -0.6696954675
H 0.1383408331 -0.4387645435 1.2437833128
H -0.3801724206 -1.1656768471 2.8051901583
H 0.13839775 -2.8364673694 0.2145656017
H -0.5777575409 -3.4343547721 1.7563358549
$end

$rem
JOBTYPE                   OPT
METHOD                    B3LYP
DFT_D                     d3_op
BASIS                     STO-3G
GEOM_OPT_MAX_CYCLES       100
GEOM_OPT_TOL_GRADIENT     300
GEOM_OPT_TOL_DISPLACEMENT 1200
GEOM_OPT_TOL_ENERGY       100
SYMMETRY                  False
THRESH                    12
SCF_CONVERGENCE           8
MAX_SUB_FILE_NUM          128
MEM_STATIC                400
MEM_TOTAL                 4000
$end
--------------------------------------------------------------

   16   -1510.2624632406      5.60E-09 Convergence criterion met
 Total energy in the final basis set = -1510.26246324
   15   -1510.2373595624      5.64E-09 Convergence criterion met
 Total energy in the final basis set = -1510.23735956
   15   -1510.2660509901      5.87E-09 Convergence criterion met
 Total energy in the final basis set = -1510.26605099
   14   -1510.2717454724      2.82E-09 Convergence criterion met
 Total energy in the final basis set = -1510.27174547
   14   -1510.2736266733      6.35E-09 Convergence criterion met
 Total energy in the final basis set = -1510.27362667
   13   -1510.2751829919      8.78E-09 Convergence criterion met
 Total energy in the final basis set = -1510.27518299
   13   -1510.2777363688      5.07E-09 Convergence criterion met
 Total energy in the final basis set = -1510.27773637
   14   -1510.2786267041      4.85E-09 Convergence criterion met
   11   -1510.2948951625      2.19E-09 Convergence criterion met
 Total energy in the final basis set = -1510.29489516
   10   -1510.2948952406      2.55E-09 Convergence criterion met
 Total energy in the final basis set = -1510.29489524
    9   -1510.2948957708      7.44E-09 Convergence criterion met
 Total energy in the final basis set = -1510.29489577
    9   -1510.2948954918      2.75E-09 Convergence criterion met
 Total energy in the final basis set = -1510.29489549
    8   -1510.2948955008      6.02E-09 Convergence criterion met
 Total energy in the final basis set = -1510.29489550
    8   -1510.2948956376      3.61E-09 Convergence criterion met
 Total energy in the final basis set = -1510.29489564

             Standard Nuclear Orientation (Angstroms)
    I     Atom           X                Y                Z
 ----------------------------------------------------------------
    1      O      -0.6794863474     0.7249994700     0.0428195220
    2      C      -1.5483961371     1.1426588399    -0.7607016489
    3      C      -2.6584756720     0.2764860930    -1.4429969502
    4      C      -2.5795651827    -1.2540434581    -1.0353273199
    5      C      -1.3073955835    -1.6583401469    -0.1984044058
    6      O      -1.6219137008    -1.6838612128     1.1945747874
    7      C      -0.4395232778    -2.0872737352     1.9982810688
    8      C       0.4292452570    -0.8199141221     2.3824607320
    9      O       1.7931217550    -1.1809233147     2.8116384986
   10      C       2.7761307575    -1.3404725061     1.7618280338
   11      C       2.3540357452    -1.1443082362     0.2516920510
   12      C       2.2160469591     0.3486097156    -0.2495659014
   13      C       2.5449433036     1.4136575576     0.8386502502
   14      O       3.1389612877     1.2566556215     1.9260109643
   15      O      -1.6745144728     2.4910984548    -1.1765440362
   16      O       2.0334686659     2.6851578563     0.3915024354
   17      O       3.9111271791    -1.7182997781     2.1242345631
   18      C       2.3342492608     3.7358174163     1.3910353225
   19      C       3.5036068454    -1.6710379132    -0.7057963947
   20      C       2.8634308107    -1.9305573162    -2.1258826961
   21      C       2.6709570087    -0.4566630727    -2.6418378377
   22      C       3.2730371188     0.3710738101    -1.4374491606
   23      O       4.3650687051    -0.4840032178    -0.9271525957
   24      H       1.3998465106    -1.6716852137     0.0329129615
   25      H       1.1865764393     0.5477085963    -0.6010624471
   26      H       4.0997250726    -2.5016035372    -0.2814606959
   27      H       3.5554501770    -2.4973489517    -2.7688860978
   28      H       1.9086651329    -2.4756022763    -2.0522382278
   29      H       3.2432719389    -0.2679338056    -3.5642880753
   30      H       1.6130893455    -0.2083473175    -2.8235366046
   31      H       3.6498254032     1.3793401217    -1.6985984508
   32      O      -0.2265690339    -2.0651810657    -0.6938027061
   33      C      -0.7336364580     3.3737594521    -0.4362147084
   34      C      -4.0923356082     0.6630149963    -0.8732825096
   35      C      -5.1958126467    -0.0083755821    -1.7818776370
   36      C      -5.1165382460    -1.5057145965    -1.3032548221
   37      C      -3.9484628414    -1.4222036230    -0.2439755925
   38      O      -4.1563501867    -0.1008288880     0.3921658130
   39      H      -2.6039803457     0.4186650426    -2.5376347571
   40      H      -2.5662212878    -1.8820413771    -1.9439263914
   41      H       0.2719636286     2.9152175443    -0.2678026318
   42      H      -4.2242676982     1.7468348902    -0.6876903906
   43      H      -6.1838185145     0.4316431115    -1.5736182509
   44      H      -4.9754649641     0.1088215731    -2.8548719300
   45      H      -6.0527276019    -1.8226529974    -0.8168103476
   46      H      -4.8879555210    -2.2065646310    -2.1218222208
   47      H      -3.9380310920    -2.2215651232     0.5213931473
   48      H      -1.1708077086     3.6408716560     0.5475764254
   49      H      -0.6373607499     4.2892426134    -1.0478936859
   50      H       1.8889052913     4.6688409237     0.9999989946
   51      H       3.4272956992     3.8705369165     1.5191371705
   52      H       1.8907913776     3.4961482115     2.3789069370
   53      H       0.3927259994    -0.1073915297     1.5332880588
   54      H      -0.0313733148    -0.3239541588     3.2606675796
   55      H       0.1778392469    -2.8165757368     1.4329289543
   56      H      -0.8424948195    -2.5772189534     2.9064268853
 ----------------------------------------------------------------

    7   -1510.2948954980      9.95E-09 Convergence criterion met
 Total energy in the final basis set = -1510.29489550
 Final energy is   -1510.29489549796
 **  OPTIMIZATION CONVERGED  **

                    Orbital Energies (a.u.)
 --------------------------------------------------------------

 Alpha MOs
 -- Occupied --
-18.959 -18.943 -18.943 -18.911 -18.901 -18.898 -18.886 -18.881
-18.875 -18.851 -10.125 -10.114 -10.101 -10.079 -10.072 -10.071
-10.069 -10.068 -10.062 -10.058 -10.054 -10.052 -10.048 -10.042
-10.030 -10.028 -10.025 -10.011 -10.007 -10.006  -1.035  -1.019
 -1.016  -0.984  -0.981  -0.959  -0.958  -0.945  -0.942  -0.916
 -0.775  -0.751  -0.733  -0.721  -0.712  -0.695  -0.693  -0.672
 -0.665  -0.617  -0.593  -0.585  -0.556  -0.547  -0.540  -0.527
 -0.525  -0.505  -0.492  -0.476  -0.475  -0.462  -0.458  -0.447
 -0.442  -0.433  -0.423  -0.420  -0.417  -0.414  -0.407  -0.396
 -0.394  -0.390  -0.381  -0.376  -0.371  -0.364  -0.352  -0.351
 -0.348  -0.341  -0.338  -0.332  -0.327  -0.323  -0.318  -0.316
 -0.312  -0.303  -0.300  -0.298  -0.295  -0.289  -0.280  -0.276
 -0.270  -0.268  -0.254  -0.254  -0.244  -0.226  -0.221  -0.198
 -0.187  -0.184  -0.177  -0.164  -0.157  -0.155  -0.148  -0.133
 -0.127

          Ground-State Mulliken Net Atomic Charges

     Atom                 Charge (a.u.)
  ----------------------------------------
      1 O                    -0.217085
      2 C                     0.222742
      3 C                    -0.077885
      4 C                    -0.080850
      5 C                     0.220296
      6 O                    -0.166431
      7 C                    -0.053527
      8 C                    -0.060601
      9 O                    -0.173842
     10 C                     0.209135
     11 C                    -0.104734
     12 C                    -0.088458
     13 C                     0.211154
     14 O                    -0.197483
     15 O                    -0.164753
     16 O                    -0.175192
     17 O                    -0.205524
     18 C                    -0.129036
     19 C                     0.024902
     20 C                    -0.145782
     21 C                    -0.142963
     22 C                     0.024526
     23 O                    -0.190273
     24 H                     0.103959
     25 H                     0.092559
     26 H                     0.088008
     27 H                     0.073761
     28 H                     0.081572
     29 H                     0.074405
     30 H                     0.070877
     31 H                     0.079140
     32 O                    -0.226243
     33 C                    -0.145374
     34 C                     0.025368
     35 C                    -0.143940
     36 C                    -0.143881
     37 C                     0.026021
     38 O                    -0.188025
     39 H                     0.089662
     40 H                     0.086136
     41 H                     0.116340
     42 H                     0.087374
     43 H                     0.080249
     44 H                     0.074972
     45 H                     0.079899
     46 H                     0.074658
     47 H                     0.090772
     48 H                     0.082425
     49 H                     0.087957
     50 H                     0.088867
     51 H                     0.093376
     52 H                     0.091850
     53 H                     0.101585
     54 H                     0.085965
     55 H                     0.091355
     56 H                     0.090010
  ----------------------------------------
  Sum of atomic charges =    -0.000000

                    Cartesian Multipole Moments
 -----------------------------------------------------------------
    Charge (ESU x 10^10)
                -0.0000
    Dipole Moment (Debye)
         X      -5.6816      Y       2.2170      Z      -3.5131
       Tot       7.0383
    Quadrupole Moments (Debye-Ang)
        XX    -176.5304     XY      10.5784     YY    -146.7920
        XZ      -4.5331     YZ       4.8307     ZZ    -163.8799

 Total job time:  142.35s(wall), 6796.47s(cpu)
        *  Thank you very much for using Q-Chem.  Have a nice day.  *
