 Q-Chem 5.0, Q-Chem, Inc., Pleasanton, CA (2017)
 Q-Chem 5.0.1 for Intel X86 EM64T Linux

User input:
--------------------------------------------------------------
$molecule
0  1
O -1.9554674125 1.3517597008 0.8430036498
C -2.6609100277 1.4687040097 -0.1835905356
C -4.053882213 0.7979142266 -0.4679555984
C -3.9374068966 -0.7496357472 -0.8324757233
C -2.4421817007 -1.2172712627 -0.8114149281
O -2.1789244641 -1.9840402836 0.3700568487
C -0.7869949212 -2.4919800514 0.3278278162
C 0.0779604524 -1.6398218313 1.3254359368
O 1.4717839818 -2.1544558054 1.2601955724
C 2.3751663198 -1.0298306388 1.1162995741
C 3.1541840276 -1.1062822401 -0.2459564534
C 3.3358806838 0.3215906645 -0.9224940482
C 2.7614973458 1.4934801092 -0.0425233767
O 1.5812576439 1.9132889628 -0.0537396099
O -2.3187223619 2.2660704111 -1.3169349837
O 3.8075851113 2.0840284007 0.7256684579
O 2.4350744044 -0.0883933934 1.9371410368
C 3.2458853853 3.1197717034 1.6227834955
C 4.6732971549 -1.5597736535 -0.0908616379
C 5.1916481779 -2.0062692641 -1.5133222427
C 5.3424715187 -0.6125443134 -2.2288090609
C 4.9134674071 0.3763221695 -1.0724942326
O 5.3926493017 -0.2929744001 0.1598520165
H 2.6013520162 -1.7988311496 -0.9043955315
H 2.8199803952 0.3536245523 -1.8991309541
H 4.8567326859 -2.2822807505 0.7280141598
H 6.1616348648 -2.5209112941 -1.4235716689
H 4.4817425781 -2.675669776 -2.0248354917
H 6.3843920618 -0.4228471917 -2.5316409565
H 4.6942471998 -0.5182078058 -3.1146313583
H 5.3307384674 1.3986773375 -1.1437035887
O -1.5880945446 -0.9842912609 -1.6969151977
C -1.0387255366 2.9806747311 -1.0889002601
C -4.9610067073 0.7247528302 0.8327185305
C -6.4447313962 0.4328816445 0.3765701723
C -6.346649029 -1.0888683901 -0.0142846884
C -4.8294952278 -1.3922680193 0.3074282045
O -4.5436847282 -0.5382084293 1.4834848537
H -4.5449847135 1.3589369765 -1.28216002
H -4.3388344377 -0.9448194758 -1.8431873067
H -0.2078654275 2.3095865154 -0.7736909578
H -4.8348982937 1.5764511328 1.5285489565
H -7.1436212871 0.5908426926 1.2133054789
H -6.7527943386 1.0705483458 -0.467476094
H -7.0038485127 -1.7109001171 0.6140807911
H -6.5930345401 -1.2725471501 -1.0723774548
H -4.5940557591 -2.4500756728 0.5314217573
H -1.1621929494 3.7671747942 -0.316504657
H -0.7884991416 3.4584019073 -2.0537347169
H 4.1077140901 3.5566031022 2.1596393247
H 2.5396102223 2.6715133157 2.3509539721
H 2.7175428816 3.9116434015 1.053491046
H 0.0054362977 -0.5659563198 1.0483278809
H -0.3270878417 -1.7524133625 2.355751615
H -0.3883377845 -2.3916318906 -0.7040702255
H -0.8060293296 -3.556472255 0.6376377023
$end

$rem
JOBTYPE                   OPT
METHOD                    B3LYP
DFT_D                     d3_op
BASIS                     STO-3G
GEOM_OPT_MAX_CYCLES       100
GEOM_OPT_TOL_GRADIENT     300
GEOM_OPT_TOL_DISPLACEMENT 1200
GEOM_OPT_TOL_ENERGY       100
SYMMETRY                  False
THRESH                    12
SCF_CONVERGENCE           8
MAX_SUB_FILE_NUM          128
MEM_STATIC                400
MEM_TOTAL                 4000
$end
--------------------------------------------------------------

   16   -1510.2677656066      6.30E-09 Convergence criterion met
 Total energy in the final basis set = -1510.26776561
   14   -1510.2595973271      3.96E-09 Convergence criterion met
 Total energy in the final basis set = -1510.25959733
   14   -1510.2757278279      4.19E-09 Convergence criterion met
 Total energy in the final basis set = -1510.27572783
   14   -1510.2802538511      6.48E-09 Convergence criterion met
 Total energy in the final basis set = -1510.28025385
   14   -1510.2842621926      3.87E-09 Convergence criterion met
 Total energy in the final basis set = -1510.28426219
   13   -1510.2866167004      9.84E-09 Convergence criterion met
 Total energy in the final basis set = -1510.28661670
   13   -1510.2873966617      5.43E-09 Convergence criterion met
 Total energy in the final basis set = -1510.28739666
   13   -1510.2882307738      6.68E-09 Convergence criterion met
   11   -1510.2981299283      3.50E-09 Convergence criterion met
 Total energy in the final basis set = -1510.29812993
    9   -1510.2981305795      4.30E-09 Convergence criterion met
 Total energy in the final basis set = -1510.29813058
    9   -1510.2981317651      5.41E-09 Convergence criterion met
 Total energy in the final basis set = -1510.29813177
    9   -1510.2981302227      6.93E-09 Convergence criterion met
 Total energy in the final basis set = -1510.29813022
   10   -1510.2981283669      9.58E-09 Convergence criterion met
 Total energy in the final basis set = -1510.29812837
    9   -1510.2981251174      7.96E-09 Convergence criterion met
 Total energy in the final basis set = -1510.29812512

             Standard Nuclear Orientation (Angstroms)
    I     Atom           X                Y                Z
 ----------------------------------------------------------------
    1      O      -0.6537224337     0.3129192922    -0.1642683463
    2      C      -1.7398057409     0.9240984964    -0.2931220821
    3      C      -2.9942534007     0.3573178564    -1.0442827729
    4      C      -3.0627614219    -1.2242985853    -0.9646744193
    5      C      -1.9400649145    -1.9012627279    -0.0938386857
    6      O      -2.1503387052    -1.5474571894     1.2846922675
    7      C      -1.2060493435    -2.2698990435     2.1653913991
    8      C       0.1323696304    -1.4841541547     2.4013786701
    9      O       0.9509621928    -1.5969154646     1.1733475992
   10      C       1.5882722719    -0.3602584750     0.8590925818
   11      C       2.2294124550    -0.5132475933    -0.5592456727
   12      C       2.8494685443     0.8338312752    -1.1120487339
   13      C       2.7067795705     2.0525743451    -0.1289103930
   14      O       1.8228027745     2.9417489897    -0.1745503684
   15      O      -2.0037542670     2.2224060260     0.2107316188
   16      O       3.8318621945     2.0944943162     0.7502212764
   17      O       1.6125650583     0.6444157603     1.6067868864
   18      C       3.6556744733     3.1857975354     1.7339711276
   19      C       3.5046911203    -1.4619427188    -0.5591269121
   20      C       3.8054597698    -1.8735148193    -2.0538218649
   21      C       4.4124142471    -0.5354980707    -2.6181331232
   22      C       4.3575183077     0.3907057301    -1.3381339810
   23      O       4.6156833165    -0.5451138450    -0.2194437463
   24      H       1.4433794663    -0.9050128982    -1.2296430424
   25      H       2.3609280112     1.1212223054    -2.0596692024
   26      H       3.4500873171    -2.3008913423     0.1615685039
   27      H       4.5373384828    -2.6963589196    -2.0872908982
   28      H       2.8941930465    -2.1876047395    -2.5872169360
   29      H       5.4535915656    -0.6714747351    -2.9511545653
   30      H       3.8249558373    -0.1216571930    -3.4532449004
   31      H       5.0882577053     1.2217621244    -1.3227767728
   32      O      -1.0893077829    -2.7262223082    -0.4907983176
   33      C      -0.8395415885     2.7211986294     0.9877833277
   34      C      -4.3796405472     0.7641577289    -0.3887985540
   35      C      -5.5246889803     0.4863621956    -1.4404798838
   36      C      -5.5954683764    -1.0854569026    -1.4014576380
   37      C      -4.4996919741    -1.4148739319    -0.3103470692
   38      O      -4.5971499020    -0.2815460516     0.6373014508
   39      H      -2.9415068369     0.6938939764    -2.0967638806
   40      H      -3.0067686366    -1.6763477659    -1.9705129468
   41      H       0.0956061730     2.7851321282     0.3773176275
   42      H      -4.3798069598     1.7712151488     0.0706747674
   43      H      -6.4708369526     0.9409580314    -1.1062209875
   44      H      -5.2782254810     0.8787314401    -2.4399854115
   45      H      -6.5857174336    -1.4389013727    -1.0728162833
   46      H      -5.3610855075    -1.5459029670    -2.3745213310
   47      H      -4.6383842089    -2.3763588261     0.2207922304
   48      H      -0.6423579444     2.0666415590     1.8608397624
   49      H      -1.1303749499     3.7272997717     1.3402329134
   50      H       4.5704595840     3.1890117993     2.3544057400
   51      H       2.7699133024     2.9993614987     2.3750967589
   52      H       3.5357509309     4.1705516769     1.2376826015
   53      H      -0.0584867090    -0.4143219743     2.6328522447
   54      H       0.6769954531    -1.9416365911     3.2572343631
   55      H      -0.9642796470    -3.2669234452     1.7378829372
   56      H      -1.7282787492    -2.3927338923     3.1366647981
 ----------------------------------------------------------------

    9   -1510.2981251090      2.08E-09 Convergence criterion met
 Total energy in the final basis set = -1510.29812511
 Final energy is   -1510.29812510902
 **  OPTIMIZATION CONVERGED  **

                    Orbital Energies (a.u.)
 --------------------------------------------------------------

 Alpha MOs
 -- Occupied --
-18.935 -18.929 -18.926 -18.922 -18.885 -18.882 -18.871 -18.871
-18.865 -18.861 -10.100 -10.099 -10.095 -10.092 -10.069 -10.067
-10.058 -10.056 -10.055 -10.054 -10.054 -10.039 -10.036 -10.033
-10.030 -10.029 -10.019 -10.018 -10.015 -10.014  -1.014  -1.007
 -1.001  -0.998  -0.967  -0.964  -0.934  -0.934  -0.927  -0.926
 -0.760  -0.757  -0.724  -0.718  -0.711  -0.702  -0.692  -0.652
 -0.649  -0.611  -0.593  -0.574  -0.542  -0.540  -0.535  -0.532
 -0.509  -0.508  -0.486  -0.473  -0.463  -0.457  -0.440  -0.433
 -0.430  -0.429  -0.420  -0.412  -0.407  -0.402  -0.402  -0.398
 -0.394  -0.376  -0.369  -0.363  -0.360  -0.353  -0.347  -0.341
 -0.337  -0.333  -0.329  -0.328  -0.322  -0.320  -0.318  -0.309
 -0.306  -0.301  -0.300  -0.295  -0.293  -0.282  -0.273  -0.272
 -0.270  -0.252  -0.245  -0.241  -0.238  -0.232  -0.229  -0.182
 -0.177  -0.162  -0.159  -0.154  -0.151  -0.143  -0.142  -0.140
 -0.138

          Ground-State Mulliken Net Atomic Charges

     Atom                 Charge (a.u.)
  ----------------------------------------
      1 O                    -0.222980
      2 C                     0.217760
      3 C                    -0.078780
      4 C                    -0.080094
      5 C                     0.212845
      6 O                    -0.173919
      7 C                    -0.048970
      8 C                    -0.049430
      9 O                    -0.168967
     10 C                     0.231229
     11 C                    -0.076012
     12 C                    -0.080913
     13 C                     0.223532
     14 O                    -0.229967
     15 O                    -0.168433
     16 O                    -0.164138
     17 O                    -0.219022
     18 C                    -0.126785
     19 C                     0.025273
     20 C                    -0.143309
     21 C                    -0.144461
     22 C                     0.026219
     23 O                    -0.188294
     24 H                     0.096883
     25 H                     0.082930
     26 H                     0.085771
     27 H                     0.076955
     28 H                     0.075902
     29 H                     0.076554
     30 H                     0.072575
     31 H                     0.085314
     32 O                    -0.214714
     33 C                    -0.143940
     34 C                     0.023714
     35 C                    -0.143833
     36 C                    -0.144429
     37 C                     0.026306
     38 O                    -0.187256
     39 H                     0.084137
     40 H                     0.082524
     41 H                     0.117423
     42 H                     0.091773
     43 H                     0.077656
     44 H                     0.072820
     45 H                     0.077286
     46 H                     0.073076
     47 H                     0.082272
     48 H                     0.083041
     49 H                     0.083608
     50 H                     0.089012
     51 H                     0.093155
     52 H                     0.086591
     53 H                     0.097557
     54 H                     0.082791
     55 H                     0.096497
     56 H                     0.087665
  ----------------------------------------
  Sum of atomic charges =    -0.000000

                    Cartesian Multipole Moments
 -----------------------------------------------------------------
    Charge (ESU x 10^10)
                -0.0000
    Dipole Moment (Debye)
         X      -1.0408      Y      -0.1798      Z      -1.0888
       Tot       1.5170
    Quadrupole Moments (Debye-Ang)
        XX    -157.5835     XY       4.0968     YY    -158.0127
        XZ       2.4749     YZ      -1.2733     ZZ    -149.1675

 Total job time:  151.96s(wall), 7250.57s(cpu)
        *  Thank you very much for using Q-Chem.  Have a nice day.  *
