 Q-Chem 5.0, Q-Chem, Inc., Pleasanton, CA (2017)
 Q-Chem 5.0.1 for Intel X86 EM64T Linux

User input:
--------------------------------------------------------------
$molecule
0  1
O -3.94934 -3.66094 2.70899
C -3.26408 -4.56952 2.26188
C -3.36658 -6.02376 2.66595
C -2.77152 -6.41828 4.02761
C -2.29931 -5.28492 4.91112
O -3.19446 -5.08097 5.92233
C -2.77422 -4.07724 6.85248
C -3.56385 -2.7914 6.63063
O -3.12976 -1.7843 7.5581
C -2.8686 -0.568 7.01814
C -1.425 -0.15278 7.17396
C -0.8273 0.57803 5.96278
C -1.82417 1.09625 4.94572
O -2.26736 0.46068 4.0001
O -2.42595 -4.29868 1.22649
O -2.19264 2.40551 5.03913
O -3.77131 0.19344 6.70203
C -3.07075 3.0368 4.18287
C -1.21321 0.89517 8.28565
C 0.22368 0.80971 8.79635
C 0.97753 1.34721 7.59735
C -0.19789 1.77966 6.70992
O -1.20892 2.13147 7.62183
H -0.83821 -1.06021 7.44862
H -0.04968 0.00298 5.41403
H -1.93054 0.79463 9.12949
H 0.30903 1.54299 9.63055
H 0.55566 -0.18824 9.15521
H 1.58027 2.22228 7.92706
H 1.62398 0.61082 7.07255
H 0.12905 2.58163 6.0114
O -1.33424 -4.57702 4.64787
C -2.23309 -3.0423 0.69095
C -4.81802 -6.5103 2.80601
C -4.88169 -8.02052 2.59177
C -4.21831 -8.51143 3.86056
C -4.00027 -7.1821 4.59496
O -5.08574 -6.38729 4.18088
H -2.85474 -6.60188 1.8622
H -1.90849 -7.11491 3.94002
H -1.8374 -2.35266 1.46721
H -5.52211 -5.99178 2.11878
H -5.95643 -8.3114 2.61693
H -4.42523 -8.38386 1.64595
H -4.94779 -9.14477 4.41306
H -3.26694 -9.06757 3.7162
H -3.91873 -7.37818 5.68664
H -3.18996 -2.64603 0.28875
H -1.49785 -3.10857 -0.13699
H -3.18684 4.09448 4.4963
H -4.06426 2.54095 4.22131
H -2.67753 3.01228 3.14418
H -3.44463 -2.46242 5.57093
H -4.63893 -3.00809 6.80759
H -1.68919 -3.82985 6.80011
H -2.94555 -4.45304 7.8834
$end

$opt
CONSTRAINT
tors           1           2           3           4     -75.574
tors           3           4           5           6    +104.603
tors           4           5           6           7    +176.278
tors           5           6           7           8    +104.902
tors           6           7           8           9    -179.475
tors           7           8           9          10    +131.989
tors           8           9          10          11    -117.256
tors           9          10          11          12    +141.276
tors          11          12          13          14     -87.557
ENDCONSTRAINT
$end

$rem
JOBTYPE                   OPT
METHOD                    B3LYP
DFT_D                     d3_op
BASIS                     STO-3G
GEOM_OPT_MAX_CYCLES       100
GEOM_OPT_TOL_GRADIENT     300
GEOM_OPT_TOL_DISPLACEMENT 1200
GEOM_OPT_TOL_ENERGY       100
SYMMETRY                  False
THRESH                    12
SCF_CONVERGENCE           8
MAX_SUB_FILE_NUM          128
MEM_STATIC                400
MEM_TOTAL                 4000
$end
--------------------------------------------------------------

   15   -1510.1307210935      7.10E-09 Convergence criterion met
 Total energy in the final basis set = -1510.13072109
   14   -1510.2008262279      6.88E-09 Convergence criterion met
 Total energy in the final basis set = -1510.20082623
   15   -1510.2383387808      1.54E-09 Convergence criterion met
 Total energy in the final basis set = -1510.23833878
   14   -1510.2552783573      8.26E-09 Convergence criterion met
 Total energy in the final basis set = -1510.25527836
   14   -1510.2622142942      7.75E-09 Convergence criterion met
 Total energy in the final basis set = -1510.26221429
   14   -1510.2642909160      3.81E-09 Convergence criterion met
 Total energy in the final basis set = -1510.26429092
   13   -1510.2641432379      7.90E-09 Convergence criterion met
 Total energy in the final basis set = -1510.26414324
   13   -1510.2663584986      9.65E-09 Convergence criterion met
   12   -1510.2675463328      2.70E-09 Convergence criterion met
 Total energy in the final basis set = -1510.26754633
   12   -1510.2676684087      3.07E-09 Convergence criterion met
 Total energy in the final basis set = -1510.26766841
   11   -1510.2677319612      7.48E-09 Convergence criterion met
 Total energy in the final basis set = -1510.26773196
   11   -1510.2677499574      3.57E-09 Convergence criterion met
 Total energy in the final basis set = -1510.26774996
   11   -1510.2677638126      5.08E-09 Convergence criterion met
 Total energy in the final basis set = -1510.26776381
   10   -1510.2677712889      8.76E-09 Convergence criterion met
 Total energy in the final basis set = -1510.26777129

             Standard Nuclear Orientation (Angstroms)
    I     Atom           X                Y                Z
 ----------------------------------------------------------------
    1      O      -1.9554674125     1.3517597008     0.8430036498
    2      C      -2.6609100277     1.4687040097    -0.1835905356
    3      C      -4.0538822130     0.7979142266    -0.4679555984
    4      C      -3.9374068966    -0.7496357472    -0.8324757233
    5      C      -2.4421817007    -1.2172712627    -0.8114149281
    6      O      -2.1789244641    -1.9840402836     0.3700568487
    7      C      -0.7869949212    -2.4919800514     0.3278278162
    8      C       0.0779604524    -1.6398218313     1.3254359368
    9      O       1.4717839818    -2.1544558054     1.2601955724
   10      C       2.3751663198    -1.0298306388     1.1162995741
   11      C       3.1541840276    -1.1062822401    -0.2459564534
   12      C       3.3358806838     0.3215906645    -0.9224940482
   13      C       2.7614973458     1.4934801092    -0.0425233767
   14      O       1.5812576439     1.9132889628    -0.0537396099
   15      O      -2.3187223619     2.2660704111    -1.3169349837
   16      O       3.8075851113     2.0840284007     0.7256684579
   17      O       2.4350744044    -0.0883933934     1.9371410368
   18      C       3.2458853853     3.1197717034     1.6227834955
   19      C       4.6732971549    -1.5597736535    -0.0908616379
   20      C       5.1916481779    -2.0062692641    -1.5133222427
   21      C       5.3424715187    -0.6125443134    -2.2288090609
   22      C       4.9134674071     0.3763221695    -1.0724942326
   23      O       5.3926493017    -0.2929744001     0.1598520165
   24      H       2.6013520162    -1.7988311496    -0.9043955315
   25      H       2.8199803952     0.3536245523    -1.8991309541
   26      H       4.8567326859    -2.2822807505     0.7280141598
   27      H       6.1616348648    -2.5209112941    -1.4235716689
   28      H       4.4817425781    -2.6756697760    -2.0248354917
   29      H       6.3843920618    -0.4228471917    -2.5316409565
   30      H       4.6942471998    -0.5182078058    -3.1146313583
   31      H       5.3307384674     1.3986773375    -1.1437035887
   32      O      -1.5880945446    -0.9842912609    -1.6969151977
   33      C      -1.0387255366     2.9806747311    -1.0889002601
   34      C      -4.9610067073     0.7247528302     0.8327185305
   35      C      -6.4447313962     0.4328816445     0.3765701723
   36      C      -6.3466490290    -1.0888683901    -0.0142846884
   37      C      -4.8294952278    -1.3922680193     0.3074282045
   38      O      -4.5436847282    -0.5382084293     1.4834848537
   39      H      -4.5449847135     1.3589369765    -1.2821600200
   40      H      -4.3388344377    -0.9448194758    -1.8431873067
   41      H      -0.2078654275     2.3095865154    -0.7736909578
   42      H      -4.8348982937     1.5764511328     1.5285489565
   43      H      -7.1436212871     0.5908426926     1.2133054789
   44      H      -6.7527943386     1.0705483458    -0.4674760940
   45      H      -7.0038485127    -1.7109001171     0.6140807911
   46      H      -6.5930345401    -1.2725471501    -1.0723774548
   47      H      -4.5940557591    -2.4500756728     0.5314217573
   48      H      -1.1621929494     3.7671747942    -0.3165046570
   49      H      -0.7884991416     3.4584019073    -2.0537347169
   50      H       4.1077140901     3.5566031022     2.1596393247
   51      H       2.5396102223     2.6715133157     2.3509539721
   52      H       2.7175428816     3.9116434015     1.0534910460
   53      H       0.0054362977    -0.5659563198     1.0483278809
   54      H      -0.3270878417    -1.7524133625     2.3557516150
   55      H      -0.3883377845    -2.3916318906    -0.7040702255
   56      H      -0.8060293296    -3.5564722550     0.6376377023
 ----------------------------------------------------------------

   10   -1510.2677710509      9.84E-09 Convergence criterion met
 Total energy in the final basis set = -1510.26777105
 Final energy is   -1510.26777105091
 **  OPTIMIZATION CONVERGED  **

                    Orbital Energies (a.u.)
 --------------------------------------------------------------

 Alpha MOs
 -- Occupied --
-18.937 -18.934 -18.924 -18.907 -18.899 -18.890 -18.885 -18.875
-18.870 -18.864 -10.107 -10.100 -10.100 -10.090 -10.066 -10.065
-10.063 -10.060 -10.058 -10.057 -10.057 -10.041 -10.039 -10.038
-10.038 -10.032 -10.022 -10.020 -10.019 -10.018  -1.015  -1.013
 -1.004  -1.000  -0.971  -0.967  -0.940  -0.934  -0.932  -0.925
 -0.763  -0.761  -0.724  -0.722  -0.711  -0.705  -0.692  -0.656
 -0.650  -0.610  -0.594  -0.577  -0.548  -0.544  -0.538  -0.535
 -0.514  -0.508  -0.483  -0.478  -0.460  -0.455  -0.448  -0.443
 -0.434  -0.430  -0.425  -0.411  -0.406  -0.405  -0.397  -0.395
 -0.391  -0.388  -0.371  -0.367  -0.358  -0.352  -0.350  -0.349
 -0.342  -0.340  -0.332  -0.331  -0.328  -0.326  -0.322  -0.311
 -0.307  -0.305  -0.304  -0.298  -0.291  -0.283  -0.282  -0.279
 -0.271  -0.255  -0.250  -0.243  -0.238  -0.234  -0.231  -0.181
 -0.174  -0.167  -0.162  -0.158  -0.156  -0.149  -0.144  -0.142
 -0.140

          Ground-State Mulliken Net Atomic Charges

     Atom                 Charge (a.u.)
  ----------------------------------------
      1 O                    -0.215063
      2 C                     0.204116
      3 C                    -0.079134
      4 C                    -0.077971
      5 C                     0.208181
      6 O                    -0.165186
      7 C                    -0.052507
      8 C                    -0.049225
      9 O                    -0.193414
     10 C                     0.219090
     11 C                    -0.081126
     12 C                    -0.080306
     13 C                     0.216371
     14 O                    -0.224096
     15 O                    -0.170629
     16 O                    -0.161297
     17 O                    -0.185928
     18 C                    -0.126457
     19 C                     0.026063
     20 C                    -0.143238
     21 C                    -0.144678
     22 C                     0.026560
     23 O                    -0.184468
     24 H                     0.085720
     25 H                     0.085378
     26 H                     0.084663
     27 H                     0.078559
     28 H                     0.074403
     29 H                     0.078249
     30 H                     0.073752
     31 H                     0.088701
     32 O                    -0.217203
     33 C                    -0.141175
     34 C                     0.025196
     35 C                    -0.143772
     36 C                    -0.144408
     37 C                     0.025380
     38 O                    -0.185285
     39 H                     0.085368
     40 H                     0.085704
     41 H                     0.114200
     42 H                     0.084781
     43 H                     0.077606
     44 H                     0.073249
     45 H                     0.077573
     46 H                     0.072536
     47 H                     0.088273
     48 H                     0.079469
     49 H                     0.082445
     50 H                     0.090910
     51 H                     0.097168
     52 H                     0.086971
     53 H                     0.096604
     54 H                     0.088124
     55 H                     0.097429
     56 H                     0.087773
  ----------------------------------------
  Sum of atomic charges =    -0.000000

                    Cartesian Multipole Moments
 -----------------------------------------------------------------
    Charge (ESU x 10^10)
                 0.0000
    Dipole Moment (Debye)
         X      -0.7538      Y      -0.3928      Z      -2.6988
       Tot       2.8295
    Quadrupole Moments (Debye-Ang)
        XX    -147.5788     XY       0.1661     YY    -149.6590
        XZ      -3.5301     YZ       2.9610     ZZ    -163.9681

 Total job time:  51.91s(wall), 2471.04s(cpu)
        *  Thank you very much for using Q-Chem.  Have a nice day.  *
