 Q-Chem 5.0, Q-Chem, Inc., Pleasanton, CA (2017)
 Q-Chem 5.0.1 for Intel X86 EM64T Linux

User input:
--------------------------------------------------------------
$molecule
0  1
O 2.7341268148 -1.8039811614 0.6652662312
C 3.7711950902 -1.6160076261 -0.0071856284
C 4.7942437005 -0.4354176169 0.1206373367
C 4.243113266 0.9219044544 -0.5050309722
C 2.817080632 0.7380248604 -1.139483899
O 1.869506132 1.5888729329 -0.4880192894
C 0.5687172419 1.5461021904 -1.2017106108
C -0.5540908783 1.7435138543 -0.1353178848
O -1.8405560219 1.5935832054 -0.8609968745
C -2.9131630332 1.4238654209 0.074257401
C -4.1699784892 0.9329536576 -0.7240679681
C -4.2199565268 -0.6601486509 -0.7999950374
C -2.9245890217 -1.3254802812 -0.2106466169
O -1.8431242399 -1.5035677955 -0.8148321191
O 4.2166963231 -2.4810265325 -1.0571798957
O -3.1366461909 -1.6636749025 1.161144234
O -2.8010283381 1.5880346117 1.3075937128
C -1.8892721861 -2.2104944598 1.7450550567
C -5.5091191024 1.2277877293 0.0704334692
C -6.7348806701 0.9666728409 -0.8922043107
C -6.7762923434 -0.6069332313 -0.9147730203
C -5.5471266661 -0.956471424 0.0152859255
O -5.5797637727 0.111070448 1.0404390584
H -4.1578808638 1.3813464018 -1.7329928791
H -4.3069439215 -0.9866572437 -1.8520089064
H -5.5189349335 2.1991955728 0.6013659648
H -7.6575678462 1.3901223239 -0.4647637986
H -6.5763871421 1.401729439 -1.8920318005
H -7.7105903321 -0.992283634 -0.4763916182
H -6.6639532568 -1.0217040022 -1.9292548162
H -5.5791781438 -1.9542229303 0.4929390185
O 2.530361474 -0.0364503528 -2.0798639411
C 3.2218506854 -3.5559219419 -1.2810497262
C 5.0062570622 0.0036165305 1.631410882
C 6.3030961514 0.9026311976 1.7020990744
C 5.7754715519 2.2442859268 1.070651329
C 4.2712910489 1.8690988882 0.7642618184
O 3.9036474369 0.9604884873 1.8749680978
H 5.7397276888 -0.7392989174 -0.3610726446
H 4.9179608735 1.2823817891 -1.3032936741
H 2.2454294944 -3.139974974 -1.6035725053
H 4.9631581428 -0.8282697821 2.3607305845
H 6.6184426121 1.0435078052 2.7481226484
H 7.1408309017 0.4656915698 1.1353641823
H 5.8251516117 3.0770201137 1.7900755335
H 6.3255220104 2.5302495778 0.159883179
H 3.5669868123 2.7207924521 0.7116853306
H 3.0627642586 -4.1635678422 -0.3666939908
H 3.6356745295 -4.1937622439 -2.0834095462
H -2.1305997426 -2.4634002887 2.7936158761
H -1.0689008494 -1.4640692172 1.7232948485
H -1.550958012 -3.1203779665 1.2086657455
H -0.4619178895 0.9788511326 0.6658742142
H -0.4766279471 2.7474591158 0.3372022191
H 0.4535832975 0.5699321512 -1.7206482826
H 0.5320382532 2.3576098743 -1.9608807656
$end

$rem
JOBTYPE                   OPT
METHOD                    B3LYP
DFT_D                     d3_op
BASIS                     STO-3G
GEOM_OPT_MAX_CYCLES       100
GEOM_OPT_TOL_GRADIENT     300
GEOM_OPT_TOL_DISPLACEMENT 1200
GEOM_OPT_TOL_ENERGY       100
SYMMETRY                  False
THRESH                    12
SCF_CONVERGENCE           8
MAX_SUB_FILE_NUM          128
MEM_STATIC                400
MEM_TOTAL                 4000
$end
--------------------------------------------------------------

   16   -1510.2780436797      5.86E-09 Convergence criterion met
 Total energy in the final basis set = -1510.27804368
   14   -1510.2800276439      9.52E-09 Convergence criterion met
 Total energy in the final basis set = -1510.28002764
   14   -1510.2736383173      4.92E-09 Convergence criterion met
 Total energy in the final basis set = -1510.27363832
   14   -1510.2815107128      7.93E-09 Convergence criterion met
 Total energy in the final basis set = -1510.28151071
   14   -1510.2816585714      9.73E-09 Convergence criterion met
 Total energy in the final basis set = -1510.28165857
   15   -1510.2811937164      2.58E-09 Convergence criterion met
 Total energy in the final basis set = -1510.28119372
   14   -1510.2825154813      5.40E-09 Convergence criterion met
 Total energy in the final basis set = -1510.28251548
   15   -1510.2827198532      3.54E-09 Convergence criterion met
   12   -1510.2996190011      5.14E-09 Convergence criterion met
 Total energy in the final basis set = -1510.29961900
   11   -1510.2996132642      8.60E-09 Convergence criterion met
 Total energy in the final basis set = -1510.29961326
   11   -1510.2996068628      6.65E-09 Convergence criterion met
 Total energy in the final basis set = -1510.29960686
   11   -1510.2995996858      5.02E-09 Convergence criterion met
 Total energy in the final basis set = -1510.29959969
   10   -1510.2995943339      7.32E-09 Convergence criterion met
 Total energy in the final basis set = -1510.29959433
    9   -1510.2995965743      4.02E-09 Convergence criterion met
 Total energy in the final basis set = -1510.29959657

             Standard Nuclear Orientation (Angstroms)
    I     Atom           X                Y                Z
 ----------------------------------------------------------------
    1      O      -1.4924897885     0.5219209166     0.9620288429
    2      C      -2.4281098293     1.1385678719     0.3926730019
    3      C      -3.7382681291     0.5370951356    -0.2227563100
    4      C      -3.5527062429    -0.7926443803    -1.0717336099
    5      C      -2.0625847219    -1.2903682320    -1.1413737250
    6      O      -1.9210635256    -2.4725349426    -0.3478814852
    7      C      -0.5011835473    -2.8910064349    -0.2901571358
    8      C       0.3532714093    -1.8906616677     0.5793552644
    9      O       1.3305907088    -1.1828402605    -0.2821765193
   10      C       2.6673523312    -1.4015871611     0.1854724861
   11      C       3.6350809359    -0.5912198183    -0.7457755852
   12      C       3.2925753295     0.9543142143    -0.8381076664
   13      C       2.0878600249     1.3955828837     0.0594777407
   14      O       1.1419958589     2.1373413056    -0.2986769271
   15      O      -2.5050414786     2.5472479167     0.2465821949
   16      O       2.2695533515     0.8608047740     1.3652555945
   17      O       2.9777405758    -2.1508881325     1.1366599183
   18      C       1.1340948561     1.2115351772     2.2540513353
   19      C       5.1045135140    -0.5506872907    -0.1583355094
   20      C       6.0899413080    -0.1284334922    -1.3159637299
   21      C       5.7496600631     1.4024176568    -1.4570157389
   22      C       4.6626508815     1.5813870290    -0.3227841833
   23      O       5.0911244308     0.6356983617     0.7301451375
   24      H       3.6103257577    -1.0514659771    -1.7507736547
   25      H       3.0647916608     1.2612183156    -1.8736451014
   26      H       5.3822745879    -1.4580053749     0.4125122459
   27      H       7.1361148355    -0.2817841666    -1.0067938185
   28      H       5.9089138803    -0.6929340530    -2.2446502053
   29      H       6.6286058983     2.0340729935    -1.2520931710
   30      H       5.3533782288     1.6595852595    -2.4524515077
   31      H       4.5740577996     2.6063683249     0.0869098150
   32      O      -1.1360111040    -0.7699484194    -1.7997338005
   33      C      -1.3226127511     3.2239821344     0.8396990693
   34      C      -4.7321473315     0.0246265986     0.9159724753
   35      C      -6.1748491212    -0.0987503735     0.2868617273
   36      C      -6.0077011194    -1.3901906130    -0.5956653090
   37      C      -4.5088083584    -1.7834715615    -0.2864073652
   38      O      -4.3236308968    -1.3799896800     1.1282937505
   39      H      -4.2097150106     1.3322973698    -0.8258212147
   40      H      -3.8967595616    -0.6263401049    -2.1088476067
   41      H      -0.3649717517     2.8194166704     0.4228869351
   42      H      -4.6782663169     0.5946013491     1.8638270199
   43      H      -6.9259005539    -0.2456651268     1.0793314403
   44      H      -6.4510310269     0.7906198675    -0.3016741868
   45      H      -6.6910268256    -2.1915384128    -0.2726439431
   46      H      -6.1718373750    -1.1968997717    -1.6677831841
   47      H      -4.2617937274    -2.8536141175    -0.4179804466
   48      H      -1.3271990933     3.1172004196     1.9432036472
   49      H      -1.4359988409     4.2917838043     0.5793754509
   50      H       1.2676215282     0.5940111516     3.1607767888
   51      H       0.1490983405     0.9900652027     1.7771049917
   52      H       1.1763223774     2.2831518977     2.5359799734
   53      H      -0.3350494482    -1.1275892183     1.0090215399
   54      H       0.9098930015    -2.4200820704     1.3815854725
   55      H      -0.0613071289    -2.9564082108    -1.3096493537
   56      H      -0.5197515485    -3.8997395817     0.1679262776
 ----------------------------------------------------------------

    9   -1510.2995963879      3.00E-09 Convergence criterion met
 Total energy in the final basis set = -1510.29959639
 Final energy is   -1510.29959638793
 **  OPTIMIZATION CONVERGED  **

                    Orbital Energies (a.u.)
 --------------------------------------------------------------

 Alpha MOs
 -- Occupied --
-18.940 -18.934 -18.928 -18.921 -18.889 -18.884 -18.883 -18.877
-18.869 -18.868 -10.108 -10.102 -10.095 -10.093 -10.065 -10.062
-10.058 -10.058 -10.054 -10.049 -10.043 -10.042 -10.039 -10.037
-10.035 -10.033 -10.021 -10.020 -10.018 -10.017  -1.015  -1.011
 -1.007  -0.999  -0.971  -0.967  -0.940  -0.935  -0.932  -0.928
 -0.763  -0.760  -0.725  -0.721  -0.711  -0.703  -0.689  -0.660
 -0.649  -0.613  -0.594  -0.578  -0.546  -0.542  -0.537  -0.533
 -0.514  -0.508  -0.479  -0.475  -0.462  -0.459  -0.446  -0.440
 -0.434  -0.430  -0.425  -0.416  -0.411  -0.404  -0.402  -0.397
 -0.377  -0.375  -0.373  -0.365  -0.363  -0.358  -0.352  -0.347
 -0.341  -0.335  -0.332  -0.329  -0.325  -0.321  -0.319  -0.309
 -0.306  -0.304  -0.301  -0.299  -0.291  -0.290  -0.284  -0.275
 -0.270  -0.256  -0.247  -0.239  -0.237  -0.234  -0.231  -0.182
 -0.177  -0.174  -0.163  -0.157  -0.153  -0.149  -0.146  -0.142
 -0.141

          Ground-State Mulliken Net Atomic Charges

     Atom                 Charge (a.u.)
  ----------------------------------------
      1 O                    -0.220166
      2 C                     0.220957
      3 C                    -0.079032
      4 C                    -0.079353
      5 C                     0.208698
      6 O                    -0.170835
      7 C                    -0.049572
      8 C                    -0.067594
      9 O                    -0.174098
     10 C                     0.216369
     11 C                    -0.077635
     12 C                    -0.077280
     13 C                     0.224200
     14 O                    -0.216862
     15 O                    -0.165189
     16 O                    -0.164851
     17 O                    -0.216276
     18 C                    -0.145355
     19 C                     0.024486
     20 C                    -0.143876
     21 C                    -0.143875
     22 C                     0.025605
     23 O                    -0.186352
     24 H                     0.084696
     25 H                     0.087096
     26 H                     0.090425
     27 H                     0.077655
     28 H                     0.072994
     29 H                     0.077502
     30 H                     0.073802
     31 H                     0.081573
     32 O                    -0.210680
     33 C                    -0.150080
     34 C                     0.025583
     35 C                    -0.143403
     36 C                    -0.144738
     37 C                     0.025167
     38 O                    -0.186985
     39 H                     0.088608
     40 H                     0.084395
     41 H                     0.122760
     42 H                     0.082164
     43 H                     0.078224
     44 H                     0.074492
     45 H                     0.077889
     46 H                     0.073380
     47 H                     0.091101
     48 H                     0.075414
     49 H                     0.083902
     50 H                     0.087459
     51 H                     0.114346
     52 H                     0.076815
     53 H                     0.108906
     54 H                     0.096742
     55 H                     0.092003
     56 H                     0.088679
  ----------------------------------------
  Sum of atomic charges =    -0.000000

                    Cartesian Multipole Moments
 -----------------------------------------------------------------
    Charge (ESU x 10^10)
                -0.0000
    Dipole Moment (Debye)
         X      -1.5100      Y       0.6534      Z      -1.6185
       Tot       2.3080
    Quadrupole Moments (Debye-Ang)
        XX    -145.7344     XY       1.4210     YY    -155.6533
        XZ      -6.6518     YZ       7.2573     ZZ    -160.1372

 Total job time:  162.94s(wall), 7772.24s(cpu)
        *  Thank you very much for using Q-Chem.  Have a nice day.  *
