 Q-Chem 5.0, Q-Chem, Inc., Pleasanton, CA (2017)
 Q-Chem 5.0.1 for Intel X86 EM64T Linux

User input:
--------------------------------------------------------------
$molecule
0  1
O -3.94934 -3.66094 2.70899
C -3.26408 -4.56952 2.26188
C -3.36658 -6.02376 2.66595
C -2.77152 -6.41828 4.02761
C -2.29931 -5.28492 4.91112
O -2.9964 -5.29078 6.08562
C -2.49339 -4.35359 7.0437
C -3.63218 -3.82432 7.90924
O -3.13889 -2.8137 8.80265
C -4.08748 -2.05396 9.40441
C -3.52042 -0.82218 10.0691
C -3.45222 0.42337 9.17342
C -4.26772 0.36512 7.89739
O -3.90945 -0.15436 6.85032
O -2.42969 -4.30052 1.22294
O -5.46553 1.01522 7.8898
O -5.28917 -2.19203 9.20494
C -6.31904 1.07435 6.80777
C -4.35594 -0.30501 11.25472
C -3.46002 0.49132 12.20087
C -3.18215 1.71788 11.3565
C -4.09484 1.43584 10.15519
O -5.16385 0.7013 10.70122
H -2.51017 -1.10124 10.44835
H -2.42206 0.74076 8.90019
H -4.8846 -1.11228 11.80729
H -4.09318 0.78997 13.06723
H -2.55838 -0.03986 12.57475
H -3.52603 2.61412 11.91905
H -2.12499 1.84749 11.03851
H -4.3643 2.39287 9.65608
O -1.35684 -4.5523 4.63402
C -2.24118 -3.04618 0.68132
C -4.81821 -6.51116 2.81238
C -4.88299 -8.01776 2.57978
C -4.19817 -8.52327 3.83116
C -3.98809 -7.20485 4.5891
O -5.07819 -6.4086 4.19168
H -2.85939 -6.60354 1.86013
H -1.89129 -7.08923 3.91319
H -1.84426 -2.35246 1.45312
H -5.52864 -5.98512 2.13749
H -5.95788 -8.30663 2.62072
H -4.44485 -8.37309 1.62234
H -4.91051 -9.1823 4.37587
H -3.2381 -9.05806 3.66497
H -3.90809 -7.4293 5.67472
H -3.20015 -2.65374 0.28042
H -1.50849 -3.11466 -0.14871
H -7.21652 1.6645 7.08462
H -6.63912 0.05068 6.51775
H -5.81611 1.56894 5.94951
H -4.36926 -3.37635 7.20285
H -4.12095 -4.64639 8.47677
H -2.038 -3.45235 6.57086
H -1.73529 -4.84826 7.6883
$end

$opt
CONSTRAINT
tors           1           2           3           4     -75.574
tors           3           4           5           6    +119.432
tors           4           5           6           7    +172.597
tors           5           6           7           8    +148.017
tors           6           7           8           9    -175.829
tors           7           8           9          10    +165.557
tors           8           9          10          11    -166.686
tors           9          10          11          12     +90.020
tors          11          12          13          14     -83.352
ENDCONSTRAINT
$end

$rem
JOBTYPE                   OPT
METHOD                    B3LYP
DFT_D                     d3_op
BASIS                     STO-3G
GEOM_OPT_MAX_CYCLES       100
GEOM_OPT_TOL_GRADIENT     300
GEOM_OPT_TOL_DISPLACEMENT 1200
GEOM_OPT_TOL_ENERGY       100
SYMMETRY                  False
THRESH                    12
SCF_CONVERGENCE           8
MAX_SUB_FILE_NUM          128
MEM_STATIC                400
MEM_TOTAL                 4000
$end
--------------------------------------------------------------

   15   -1510.1478200752      9.25E-09 Convergence criterion met
 Total energy in the final basis set = -1510.14782008
   13   -1510.2169384743      8.79E-09 Convergence criterion met
 Total energy in the final basis set = -1510.21693847
   14   -1510.2541009575      4.64E-09 Convergence criterion met
 Total energy in the final basis set = -1510.25410096
   14   -1510.2700539267      2.25E-09 Convergence criterion met
 Total energy in the final basis set = -1510.27005393
   13   -1510.2747196119      7.83E-09 Convergence criterion met
 Total energy in the final basis set = -1510.27471961
   13   -1510.2760500331      3.14E-09 Convergence criterion met
 Total energy in the final basis set = -1510.27605003
   13   -1510.2766655604      2.30E-09 Convergence criterion met
 Total energy in the final basis set = -1510.27666556
   12   -1510.2769741147      6.97E-09 Convergence criterion met
   11   -1510.2781416848      8.41E-09 Convergence criterion met
 Total energy in the final basis set = -1510.27814168
   10   -1510.2781618527      6.58E-09 Convergence criterion met
 Total energy in the final basis set = -1510.27816185
   10   -1510.2781784864      8.16E-09 Convergence criterion met
 Total energy in the final basis set = -1510.27817849
   10   -1510.2782045380      7.67E-09 Convergence criterion met
 Total energy in the final basis set = -1510.27820454
    9   -1510.2782113209      9.96E-09 Convergence criterion met
 Total energy in the final basis set = -1510.27821132
    9   -1510.2782126024      7.91E-09 Convergence criterion met
 Total energy in the final basis set = -1510.27821260

             Standard Nuclear Orientation (Angstroms)
    I     Atom           X                Y                Z
 ----------------------------------------------------------------
    1      O       2.7341268148    -1.8039811614     0.6652662312
    2      C       3.7711950902    -1.6160076261    -0.0071856284
    3      C       4.7942437005    -0.4354176169     0.1206373367
    4      C       4.2431132660     0.9219044544    -0.5050309722
    5      C       2.8170806320     0.7380248604    -1.1394838990
    6      O       1.8695061320     1.5888729329    -0.4880192894
    7      C       0.5687172419     1.5461021904    -1.2017106108
    8      C      -0.5540908783     1.7435138543    -0.1353178848
    9      O      -1.8405560219     1.5935832054    -0.8609968745
   10      C      -2.9131630332     1.4238654209     0.0742574010
   11      C      -4.1699784892     0.9329536576    -0.7240679681
   12      C      -4.2199565268    -0.6601486509    -0.7999950374
   13      C      -2.9245890217    -1.3254802812    -0.2106466169
   14      O      -1.8431242399    -1.5035677955    -0.8148321191
   15      O       4.2166963231    -2.4810265325    -1.0571798957
   16      O      -3.1366461909    -1.6636749025     1.1611442340
   17      O      -2.8010283381     1.5880346117     1.3075937128
   18      C      -1.8892721861    -2.2104944598     1.7450550567
   19      C      -5.5091191024     1.2277877293     0.0704334692
   20      C      -6.7348806701     0.9666728409    -0.8922043107
   21      C      -6.7762923434    -0.6069332313    -0.9147730203
   22      C      -5.5471266661    -0.9564714240     0.0152859255
   23      O      -5.5797637727     0.1110704480     1.0404390584
   24      H      -4.1578808638     1.3813464018    -1.7329928791
   25      H      -4.3069439215    -0.9866572437    -1.8520089064
   26      H      -5.5189349335     2.1991955728     0.6013659648
   27      H      -7.6575678462     1.3901223239    -0.4647637986
   28      H      -6.5763871421     1.4017294390    -1.8920318005
   29      H      -7.7105903321    -0.9922836340    -0.4763916182
   30      H      -6.6639532568    -1.0217040022    -1.9292548162
   31      H      -5.5791781438    -1.9542229303     0.4929390185
   32      O       2.5303614740    -0.0364503528    -2.0798639411
   33      C       3.2218506854    -3.5559219419    -1.2810497262
   34      C       5.0062570622     0.0036165305     1.6314108820
   35      C       6.3030961514     0.9026311976     1.7020990744
   36      C       5.7754715519     2.2442859268     1.0706513290
   37      C       4.2712910489     1.8690988882     0.7642618184
   38      O       3.9036474369     0.9604884873     1.8749680978
   39      H       5.7397276888    -0.7392989174    -0.3610726446
   40      H       4.9179608735     1.2823817891    -1.3032936741
   41      H       2.2454294944    -3.1399749740    -1.6035725053
   42      H       4.9631581428    -0.8282697821     2.3607305845
   43      H       6.6184426121     1.0435078052     2.7481226484
   44      H       7.1408309017     0.4656915698     1.1353641823
   45      H       5.8251516117     3.0770201137     1.7900755335
   46      H       6.3255220104     2.5302495778     0.1598831790
   47      H       3.5669868123     2.7207924521     0.7116853306
   48      H       3.0627642586    -4.1635678422    -0.3666939908
   49      H       3.6356745295    -4.1937622439    -2.0834095462
   50      H      -2.1305997426    -2.4634002887     2.7936158761
   51      H      -1.0689008494    -1.4640692172     1.7232948485
   52      H      -1.5509580120    -3.1203779665     1.2086657455
   53      H      -0.4619178895     0.9788511326     0.6658742142
   54      H      -0.4766279471     2.7474591158     0.3372022191
   55      H       0.4535832975     0.5699321512    -1.7206482826
   56      H       0.5320382532     2.3576098743    -1.9608807656
 ----------------------------------------------------------------

    8   -1510.2782132981      8.88E-09 Convergence criterion met
 Total energy in the final basis set = -1510.27821330
 Final energy is   -1510.27821329809
 **  OPTIMIZATION CONVERGED  **

                    Orbital Energies (a.u.)
 --------------------------------------------------------------

 Alpha MOs
 -- Occupied --
-18.936 -18.933 -18.930 -18.929 -18.886 -18.884 -18.876 -18.875
-18.869 -18.868 -10.101 -10.097 -10.095 -10.093 -10.071 -10.069
-10.058 -10.058 -10.058 -10.057 -10.057 -10.057 -10.039 -10.037
-10.035 -10.034 -10.019 -10.018 -10.018 -10.017  -1.015  -1.011
 -1.006  -1.004  -0.968  -0.966  -0.939  -0.934  -0.931  -0.930
 -0.762  -0.761  -0.726  -0.721  -0.712  -0.704  -0.694  -0.658
 -0.656  -0.611  -0.594  -0.576  -0.545  -0.545  -0.536  -0.535
 -0.515  -0.508  -0.483  -0.470  -0.459  -0.458  -0.448  -0.442
 -0.440  -0.431  -0.430  -0.410  -0.408  -0.407  -0.405  -0.400
 -0.391  -0.378  -0.369  -0.365  -0.358  -0.354  -0.351  -0.346
 -0.343  -0.339  -0.335  -0.329  -0.328  -0.325  -0.321  -0.308
 -0.307  -0.304  -0.303  -0.292  -0.290  -0.283  -0.279  -0.275
 -0.274  -0.257  -0.251  -0.248  -0.246  -0.232  -0.230  -0.180
 -0.175  -0.172  -0.171  -0.158  -0.154  -0.146  -0.145  -0.142
 -0.140

          Ground-State Mulliken Net Atomic Charges

     Atom                 Charge (a.u.)
  ----------------------------------------
      1 O                    -0.214610
      2 C                     0.207206
      3 C                    -0.079374
      4 C                    -0.077538
      5 C                     0.210268
      6 O                    -0.169520
      7 C                    -0.049826
      8 C                    -0.045114
      9 O                    -0.173514
     10 C                     0.205437
     11 C                    -0.077693
     12 C                    -0.078387
     13 C                     0.202661
     14 O                    -0.215708
     15 O                    -0.167616
     16 O                    -0.163722
     17 O                    -0.205735
     18 C                    -0.127353
     19 C                     0.025562
     20 C                    -0.144404
     21 C                    -0.143863
     22 C                     0.025709
     23 O                    -0.184237
     24 H                     0.086082
     25 H                     0.084173
     26 H                     0.085502
     27 H                     0.077781
     28 H                     0.072721
     29 H                     0.077584
     30 H                     0.072597
     31 H                     0.087884
     32 O                    -0.214031
     33 C                    -0.128414
     34 C                     0.025493
     35 C                    -0.143908
     36 C                    -0.144392
     37 C                     0.023972
     38 O                    -0.186691
     39 H                     0.085776
     40 H                     0.085395
     41 H                     0.093950
     42 H                     0.084311
     43 H                     0.077784
     44 H                     0.073238
     45 H                     0.077806
     46 H                     0.072529
     47 H                     0.090880
     48 H                     0.087065
     49 H                     0.089405
     50 H                     0.092936
     51 H                     0.091794
     52 H                     0.088858
     53 H                     0.094592
     54 H                     0.087295
     55 H                     0.107374
     56 H                     0.084029
  ----------------------------------------
  Sum of atomic charges =     0.000000

                    Cartesian Multipole Moments
 -----------------------------------------------------------------
    Charge (ESU x 10^10)
                 0.0000
    Dipole Moment (Debye)
         X       1.0097      Y       0.2166      Z      -1.9353
       Tot       2.1936
    Quadrupole Moments (Debye-Ang)
        XX    -138.0800     XY       3.6147     YY    -149.0068
        XZ      11.5369     YZ      -4.8285     ZZ    -166.2163

 Total job time:  50.94s(wall), 2419.75s(cpu)
        *  Thank you very much for using Q-Chem.  Have a nice day.  *
