 Q-Chem 5.0, Q-Chem, Inc., Pleasanton, CA (2017)
 Q-Chem 5.0.1 for Intel X86 EM64T Linux

User input:
--------------------------------------------------------------
$molecule
0  1
O -3.94934 -3.66094 2.70899
C -3.26408 -4.56952 2.26188
C -3.36658 -6.02376 2.66595
C -2.77152 -6.41828 4.02761
C -2.29931 -5.28492 4.91112
O -3.29289 -4.92676 5.77712
C -2.89295 -3.91223 6.7045
C -2.73132 -2.57696 5.98543
O -2.02454 -1.65103 6.82566
C -1.01103 -0.97725 6.22736
C -0.23278 -0.11035 7.18834
C 1.22232 0.16299 6.78061
C 1.57584 -0.15348 5.34132
O 2.1684 -1.15258 4.96022
O -2.41992 -4.29704 1.23186
O 1.12975 0.71493 4.39016
O -1.0222 -0.75509 5.0226
C 1.33688 0.56571 3.0345
C -0.75815 1.33682 7.3098
C -0.34975 1.91092 8.66618
C 1.14858 2.05565 8.47275
C 1.26923 1.68811 6.98798
O 0.03997 2.0947 6.43433
H -0.30453 -0.58478 8.19467
H 1.93169 -0.40754 7.42
H -1.85777 1.41913 7.16722
H -0.80025 2.92776 8.72862
H -0.65714 1.32414 9.55838
H 1.42396 3.11855 8.65145
H 1.77524 1.38538 9.10032
H 2.18143 2.14032 6.53977
O -1.17241 -4.80632 4.85656
C -2.21655 -3.03818 0.70612
C -4.81827 -6.50776 2.80042
C -4.88246 -8.02181 2.60875
C -4.24477 -8.49453 3.89755
C -4.01467 -7.15307 4.60391
O -5.09375 -6.35948 4.16998
H -2.85072 -6.60034 1.86395
H -1.93012 -7.14374 3.96385
H -1.81892 -2.35705 1.48904
H -5.51488 -5.99807 2.0991
H -5.95673 -8.31499 2.61558
H -4.40473 -8.39506 1.67736
H -4.99502 -9.09559 4.45837
H -3.30577 -9.07718 3.77965
H -3.93705 -7.32076 5.70091
H -3.16905 -2.63242 0.30311
H -1.47837 -3.10343 -0.11928
H 0.86691 1.4161 2.49943
H 0.87514 -0.38001 2.67828
H 2.42537 0.56018 2.81244
H -2.23055 -2.71316 5.00632
H -3.74417 -2.18352 5.75397
H -1.93753 -4.21445 7.19286
H -3.64917 -3.80138 7.51022
$end

$opt
CONSTRAINT
tors           1           2           3           4     -75.574
tors           3           4           5           6     +94.171
tors           4           5           6           7    +176.375
tors           5           6           7           8     +70.927
tors           6           7           8           9    -165.887
tors           7           8           9          10    +132.703
tors           8           9          10          11    -175.048
tors           9          10          11          12    +153.819
tors          11          12          13          14    -101.308
ENDCONSTRAINT
$end

$rem
JOBTYPE                   OPT
METHOD                    B3LYP
DFT_D                     d3_op
BASIS                     STO-3G
GEOM_OPT_MAX_CYCLES       100
GEOM_OPT_TOL_GRADIENT     300
GEOM_OPT_TOL_DISPLACEMENT 1200
GEOM_OPT_TOL_ENERGY       100
SYMMETRY                  False
THRESH                    12
SCF_CONVERGENCE           8
MAX_SUB_FILE_NUM          128
MEM_STATIC                400
MEM_TOTAL                 4000
$end
--------------------------------------------------------------

   15   -1510.1455219309      6.58E-09 Convergence criterion met
 Total energy in the final basis set = -1510.14552193
   13   -1510.2154716348      8.29E-09 Convergence criterion met
 Total energy in the final basis set = -1510.21547163
   14   -1510.2532640593      2.85E-09 Convergence criterion met
 Total energy in the final basis set = -1510.25326406
   14   -1510.2707035597      1.93E-09 Convergence criterion met
 Total energy in the final basis set = -1510.27070356
   14   -1510.2777105104      5.01E-09 Convergence criterion met
 Total energy in the final basis set = -1510.27771051
    2   -1510.2777105103      3.47E-09 Convergence criterion met
 Total energy in the final basis set = -1510.27771051
   14   -1510.2811731319      5.01E-09 Convergence criterion met
 Total energy in the final basis set = -1510.28117313
   14   -1510.2811897939      7.17E-09 Convergence criterion met
   10   -1510.2838609286      6.36E-09 Convergence criterion met
 Total energy in the final basis set = -1510.28386093
   11   -1510.2838684199      3.58E-09 Convergence criterion met
 Total energy in the final basis set = -1510.28386842
    9   -1510.2838722759      5.87E-09 Convergence criterion met
 Total energy in the final basis set = -1510.28387228
    9   -1510.2838758448      5.79E-09 Convergence criterion met
 Total energy in the final basis set = -1510.28387584
    9   -1510.2838793157      2.63E-09 Convergence criterion met
 Total energy in the final basis set = -1510.28387932
    9   -1510.2838812537      3.99E-09 Convergence criterion met
 Total energy in the final basis set = -1510.28388125

             Standard Nuclear Orientation (Angstroms)
    I     Atom           X                Y                Z
 ----------------------------------------------------------------
    1      O      -2.5524519245     0.4675242220     1.8083450521
    2      C      -2.9489461427     1.1394679151     0.8303752935
    3      C      -4.2031754467     0.8605922905    -0.0758154161
    4      C      -3.9278644595    -0.3447549795    -1.0879354436
    5      C      -2.4644897217    -0.8737822889    -0.9119426634
    6      O      -2.4435219368    -1.9815922046    -0.0018859901
    7      C      -1.0651874443    -2.5287294392     0.0884422066
    8      C      -0.1539938444    -1.5075569871     0.8641071401
    9      O       1.2780198590    -1.8485286870     0.6833497227
   10      C       2.0060956514    -0.6624058199     0.3440994698
   11      C       3.4833838678    -1.0567693837     0.0338540280
   12      C       4.2148564656    -0.0494089127    -0.9482863021
   13      C       3.3761737576     1.2396986197    -1.2900261590
   14      O       2.7308895331     1.4404908759    -2.3424630365
   15      O      -2.2497319385     2.2655354662     0.2921947663
   16      O       3.5677720051     2.2207209481    -0.2645441368
   17      O       1.4912791070     0.4784789546     0.2622019034
   18      C       2.7439549018     3.4130149882    -0.5612656774
   19      C       4.4470588153    -1.0069740882     1.3028681590
   20      C       5.7119710422    -1.8915261301     0.9671649121
   21      C       6.4538687223    -0.9691316642    -0.0696330362
   22      C       5.5064482577     0.2964021640    -0.0923236076
   23      O       4.9811429206     0.3705981700     1.2919792943
   24      H       3.4638711291    -2.0780861433    -0.3865953233
   25      H       4.4648379484    -0.5469085434    -1.9018351883
   26      H       3.9535307752    -1.2306748646     2.2686663985
   27      H       6.3184134424    -2.0507073753     1.8733157592
   28      H       5.4367160009    -2.8726376589     0.5485539692
   29      H       7.4611500999    -0.6932877717     0.2805537592
   30      H       6.5404295377    -1.4350462712    -1.0643229657
   31      H       5.9962694037     1.2490222844    -0.3698999931
   32      O      -1.4529145554    -0.4280563729    -1.4992214514
   33      C      -0.9627099965     2.4656710075     1.0049768207
   34      C      -5.4274330365     0.2770811210     0.7457233001
   35      C      -6.7137944329     0.3449299846    -0.1684915615
   36      C      -6.4407912248    -0.8408071840    -1.1669663956
   37      C      -5.0482811228    -1.3712416135    -0.6393162732
   38      O      -5.1332145450    -1.1721352114     0.8259190326
   39      H      -4.4617244361     1.7871812765    -0.6175391751
   40      H      -4.0454182862    -0.0169518663    -2.1359509644
   41      H      -0.1955092674     1.7260870213     0.6804554109
   42      H      -5.5435555529     0.7026507073     1.7611800627
   43      H      -7.6209878429     0.1672893408     0.4308584493
   44      H      -6.8111337355     1.3169013604    -0.6778976355
   45      H      -7.2082527622    -1.6264506374    -1.0814846580
   46      H      -6.3891071641    -0.5101864285    -2.2167126159
   47      H      -4.8223572799    -2.4290110052    -0.8737720303
   48      H      -1.0931463369     2.3875024004     2.1026585978
   49      H      -0.6235034451     3.4839045021     0.7403846276
   50      H       2.9456938576     4.1331958423     0.2527666755
   51      H       1.6643796596     3.1601316141    -0.5760647371
   52      H       3.0139559207     3.8668017955    -1.5369231737
   53      H      -0.3166939612    -0.4854289415     0.4694658528
   54      H      -0.4054820058    -1.5196737008     1.9455369357
   55      H      -0.6414850439    -2.7069100141    -0.9238059912
   56      H      -1.1549375810    -3.4897816982     0.6313826274
 ----------------------------------------------------------------

    9   -1510.2838811301      2.73E-09 Convergence criterion met
 Total energy in the final basis set = -1510.28388113
 Final energy is   -1510.28388113006
 **  OPTIMIZATION CONVERGED  **

                    Orbital Energies (a.u.)
 --------------------------------------------------------------

 Alpha MOs
 -- Occupied --
-18.940 -18.938 -18.929 -18.921 -18.889 -18.888 -18.886 -18.875
-18.869 -18.858 -10.108 -10.100 -10.094 -10.088 -10.074 -10.063
-10.062 -10.059 -10.058 -10.058 -10.052 -10.049 -10.040 -10.038
-10.035 -10.034 -10.021 -10.020 -10.020 -10.019  -1.020  -1.014
 -1.004  -0.997  -0.970  -0.968  -0.944  -0.937  -0.930  -0.922
 -0.764  -0.762  -0.727  -0.722  -0.712  -0.705  -0.693  -0.655
 -0.650  -0.616  -0.595  -0.580  -0.547  -0.545  -0.537  -0.536
 -0.513  -0.509  -0.481  -0.477  -0.463  -0.458  -0.450  -0.443
 -0.433  -0.431  -0.428  -0.411  -0.407  -0.405  -0.400  -0.396
 -0.390  -0.380  -0.373  -0.365  -0.359  -0.356  -0.350  -0.348
 -0.341  -0.338  -0.331  -0.330  -0.329  -0.326  -0.325  -0.313
 -0.307  -0.306  -0.304  -0.301  -0.291  -0.282  -0.278  -0.277
 -0.273  -0.260  -0.248  -0.246  -0.241  -0.234  -0.232  -0.187
 -0.175  -0.172  -0.164  -0.160  -0.155  -0.146  -0.144  -0.141
 -0.138

          Ground-State Mulliken Net Atomic Charges

     Atom                 Charge (a.u.)
  ----------------------------------------
      1 O                    -0.214732
      2 C                     0.201965
      3 C                    -0.078068
      4 C                    -0.078460
      5 C                     0.204483
      6 O                    -0.161773
      7 C                    -0.047304
      8 C                    -0.059520
      9 O                    -0.171208
     10 C                     0.217120
     11 C                    -0.079135
     12 C                    -0.080043
     13 C                     0.211802
     14 O                    -0.218491
     15 O                    -0.168975
     16 O                    -0.165855
     17 O                    -0.208646
     18 C                    -0.126939
     19 C                     0.026374
     20 C                    -0.142749
     21 C                    -0.144957
     22 C                     0.026907
     23 O                    -0.184117
     24 H                     0.087255
     25 H                     0.083990
     26 H                     0.084151
     27 H                     0.078261
     28 H                     0.073984
     29 H                     0.077935
     30 H                     0.073636
     31 H                     0.086660
     32 O                    -0.213543
     33 C                    -0.138731
     34 C                     0.025412
     35 C                    -0.143905
     36 C                    -0.144071
     37 C                     0.025879
     38 O                    -0.184282
     39 H                     0.086456
     40 H                     0.087086
     41 H                     0.102619
     42 H                     0.084669
     43 H                     0.077818
     44 H                     0.073659
     45 H                     0.077700
     46 H                     0.073223
     47 H                     0.086732
     48 H                     0.088683
     49 H                     0.085771
     50 H                     0.087235
     51 H                     0.091417
     52 H                     0.085611
     53 H                     0.107371
     54 H                     0.090244
     55 H                     0.090737
     56 H                     0.092660
  ----------------------------------------
  Sum of atomic charges =    -0.000000

                    Cartesian Multipole Moments
 -----------------------------------------------------------------
    Charge (ESU x 10^10)
                 0.0000
    Dipole Moment (Debye)
         X      -0.0314      Y      -0.9784      Z      -0.7074
       Tot       1.2078
    Quadrupole Moments (Debye-Ang)
        XX    -140.8629     XY      -9.2987     YY    -152.0292
        XZ       4.9013     YZ       3.9859     ZZ    -165.9966

 Total job time:  69.90s(wall), 3325.28s(cpu)
        *  Thank you very much for using Q-Chem.  Have a nice day.  *
