 Q-Chem 5.0, Q-Chem, Inc., Pleasanton, CA (2017)
 Q-Chem 5.0.1 for Intel X86 EM64T Linux

User input:
--------------------------------------------------------------
$molecule
0  1
O -2.5524519245 0.467524222 1.8083450521
C -2.9489461427 1.1394679151 0.8303752935
C -4.2031754467 0.8605922905 -0.0758154161
C -3.9278644595 -0.3447549795 -1.0879354436
C -2.4644897217 -0.8737822889 -0.9119426634
O -2.4435219368 -1.9815922046 -0.0018859901
C -1.0651874443 -2.5287294392 0.0884422066
C -0.1539938444 -1.5075569871 0.8641071401
O 1.278019859 -1.848528687 0.6833497227
C 2.0060956514 -0.6624058199 0.3440994698
C 3.4833838678 -1.0567693837 0.033854028
C 4.2148564656 -0.0494089127 -0.9482863021
C 3.3761737576 1.2396986197 -1.290026159
O 2.7308895331 1.4404908759 -2.3424630365
O -2.2497319385 2.2655354662 0.2921947663
O 3.5677720051 2.2207209481 -0.2645441368
O 1.491279107 0.4784789546 0.2622019034
C 2.7439549018 3.4130149882 -0.5612656774
C 4.4470588153 -1.0069740882 1.302868159
C 5.7119710422 -1.8915261301 0.9671649121
C 6.4538687223 -0.9691316642 -0.0696330362
C 5.5064482577 0.296402164 -0.0923236076
O 4.9811429206 0.37059817 1.2919792943
H 3.4638711291 -2.0780861433 -0.3865953233
H 4.4648379484 -0.5469085434 -1.9018351883
H 3.9535307752 -1.2306748646 2.2686663985
H 6.3184134424 -2.0507073753 1.8733157592
H 5.4367160009 -2.8726376589 0.5485539692
H 7.4611500999 -0.6932877717 0.2805537592
H 6.5404295377 -1.4350462712 -1.0643229657
H 5.9962694037 1.2490222844 -0.3698999931
O -1.4529145554 -0.4280563729 -1.4992214514
C -0.9627099965 2.4656710075 1.0049768207
C -5.4274330365 0.277081121 0.7457233001
C -6.7137944329 0.3449299846 -0.1684915615
C -6.4407912248 -0.840807184 -1.1669663956
C -5.0482811228 -1.3712416135 -0.6393162732
O -5.133214545 -1.1721352114 0.8259190326
H -4.4617244361 1.7871812765 -0.6175391751
H -4.0454182862 -0.0169518663 -2.1359509644
H -0.1955092674 1.7260870213 0.6804554109
H -5.5435555529 0.7026507073 1.7611800627
H -7.6209878429 0.1672893408 0.4308584493
H -6.8111337355 1.3169013604 -0.6778976355
H -7.2082527622 -1.6264506374 -1.081484658
H -6.3891071641 -0.5101864285 -2.2167126159
H -4.8223572799 -2.4290110052 -0.8737720303
H -1.0931463369 2.3875024004 2.1026585978
H -0.6235034451 3.4839045021 0.7403846276
H 2.9456938576 4.1331958423 0.2527666755
H 1.6643796596 3.1601316141 -0.5760647371
H 3.0139559207 3.8668017955 -1.5369231737
H -0.3166939612 -0.4854289415 0.4694658528
H -0.4054820058 -1.5196737008 1.9455369357
H -0.6414850439 -2.7069100141 -0.9238059912
H -1.154937581 -3.4897816982 0.6313826274
$end

$rem
JOBTYPE                   OPT
METHOD                    B3LYP
DFT_D                     d3_op
BASIS                     STO-3G
GEOM_OPT_MAX_CYCLES       100
GEOM_OPT_TOL_GRADIENT     300
GEOM_OPT_TOL_DISPLACEMENT 1200
GEOM_OPT_TOL_ENERGY       100
SYMMETRY                  False
THRESH                    12
SCF_CONVERGENCE           8
MAX_SUB_FILE_NUM          128
MEM_STATIC                400
MEM_TOTAL                 4000
$end
--------------------------------------------------------------

   16   -1510.2837153004      2.72E-09 Convergence criterion met
 Total energy in the final basis set = -1510.28371530
   14   -1510.2545660267      5.83E-09 Convergence criterion met
 Total energy in the final basis set = -1510.25456603
   15   -1510.2858473719      3.84E-09 Convergence criterion met
 Total energy in the final basis set = -1510.28584737
   14   -1510.2867935168      5.00E-09 Convergence criterion met
 Total energy in the final basis set = -1510.28679352
   14   -1510.2874062976      3.29E-09 Convergence criterion met
 Total energy in the final basis set = -1510.28740630
   13   -1510.2881795343      6.89E-09 Convergence criterion met
 Total energy in the final basis set = -1510.28817953
   13   -1510.2884691221      3.51E-09 Convergence criterion met
 Total energy in the final basis set = -1510.28846912
   13   -1510.2894858873      4.52E-09 Convergence criterion met
   11   -1510.3018558929      8.55E-09 Convergence criterion met
 Total energy in the final basis set = -1510.30185589
   11   -1510.3018643281      5.24E-09 Convergence criterion met
 Total energy in the final basis set = -1510.30186433
   11   -1510.3018805916      6.64E-09 Convergence criterion met
 Total energy in the final basis set = -1510.30188059
   11   -1510.3018775825      6.23E-09 Convergence criterion met
 Total energy in the final basis set = -1510.30187758
   11   -1510.3018994043      4.27E-09 Convergence criterion met
 Total energy in the final basis set = -1510.30189940
    9   -1510.3018895331      9.41E-09 Convergence criterion met
 Total energy in the final basis set = -1510.30188953

             Standard Nuclear Orientation (Angstroms)
    I     Atom           X                Y                Z
 ----------------------------------------------------------------
    1      O      -1.4660079039    -0.6859142013     1.7341585624
    2      C      -1.5558925365     0.4480082190     1.2050422396
    3      C      -2.7454847888     1.0100059247     0.3487444187
    4      C      -2.9127472204     0.4071972230    -1.1160998509
    5      C      -1.8326792599    -0.6490148733    -1.5172659867
    6      O      -2.1220308981    -1.8858075810    -0.8692827484
    7      C      -1.0201391767    -2.8626833152    -1.0474018497
    8      C      -0.2415815102    -3.0078118684     0.3254864801
    9      O       1.2312159442    -2.8440086664     0.1905227137
   10      C       1.5321459333    -1.4715124782    -0.0571606606
   11      C       3.0781961639    -1.2436901008    -0.0851961471
   12      C       3.4861548971     0.0438611819    -0.9235900560
   13      C       2.2798639243     0.6633742670    -1.7234643160
   14      O       1.8703675172     0.2588917161    -2.8339783045
   15      O      -0.6099582463     1.4996569139     1.3738340203
   16      O       1.7371620734     1.7732272733    -1.0087411728
   17      O       0.6563512903    -0.5888701240    -0.1903262836
   18      C       0.4548774715     2.1895951968    -1.6283552554
   19      C       3.5811151942    -0.8219138060     1.3632689976
   20      C       5.1591233207    -0.8533271167     1.3837090898
   21      C       5.5046998465     0.4656385525     0.5965392290
   22      C       4.0627564296     0.9810467370     0.2168697754
   23      O       3.2609386122     0.6232897684     1.4134896130
   24      H       3.5807693390    -2.1595698486    -0.4419934056
   25      H       4.2707638019    -0.2175114387    -1.6559049529
   26      H       3.0855880925    -1.3590581952     2.1955052951
   27      H       5.5324198715    -0.8188396878     2.4195323164
   28      H       5.5558526040    -1.7565738980     0.8933636128
   29      H       6.0172768764     1.1963738159     1.2423285152
   30      H       6.1272588009     0.2804615120    -0.2932779088
   31      H       3.9773215417     2.0645846116     0.0094328698
   32      O      -0.8713681722    -0.4602863458    -2.3013942877
   33      C       0.4930981043     1.0909849671     2.2811431183
   34      C      -4.1469733668     0.6127951904     0.9887169977
   35      C      -5.2530397926     1.5686274180     0.3901507356
   36      C      -5.4173595292     0.9723802698    -1.0565256625
   37      C      -4.3734604958    -0.2135872268    -1.0175172279
   38      O      -4.4513733484    -0.6996321488     0.3774696845
   39      H      -2.6205891591     2.1057068468     0.2954864468
   40      H      -2.8655603787     1.2180135110    -1.8646453551
   41      H       1.4607431937     1.0093672588     1.7261167257
   42      H      -4.1385817786     0.5302961523     2.0927028296
   43      H      -6.1864277646     1.4872356234     0.9697172188
   44      H      -4.9316043031     2.6224066732     0.3833485328
   45      H      -6.4346121908     0.5827500593    -1.2207505635
   46      H      -5.1869842607     1.7027615287    -1.8485082084
   47      H      -4.5697305273    -1.0395783901    -1.7277888384
   48      H       0.2413796124     0.1146329238     2.7400632452
   49      H       0.5777355160     1.8662986280     3.0667368273
   50      H      -0.1314266551     2.6578004865    -0.8155283344
   51      H      -0.0877480261     1.3046217628    -2.0356419918
   52      H       0.6295614827     2.9264304729    -2.4393053660
   53      H      -0.6660424440    -2.2411251459     1.0237346114
   54      H      -0.3760388810    -4.0233937932     0.7447563726
   55      H      -0.3416331356    -2.5099570919    -1.8548761173
   56      H      -1.4836098344    -3.8256085384    -1.3424688985
 ----------------------------------------------------------------

    9   -1510.3018904283      3.76E-09 Convergence criterion met
 Total energy in the final basis set = -1510.30189043
 Final energy is   -1510.30189042834
 **  OPTIMIZATION CONVERGED  **

                    Orbital Energies (a.u.)
 --------------------------------------------------------------

 Alpha MOs
 -- Occupied --
-18.934 -18.932 -18.926 -18.912 -18.902 -18.887 -18.877 -18.875
-18.867 -18.852 -10.099 -10.099 -10.095 -10.083 -10.068 -10.063
-10.062 -10.059 -10.058 -10.055 -10.040 -10.037 -10.034 -10.033
-10.029 -10.028 -10.025 -10.023 -10.019 -10.018  -1.017  -1.006
 -1.000  -0.990  -0.978  -0.968  -0.939  -0.931  -0.926  -0.915
 -0.765  -0.760  -0.726  -0.721  -0.711  -0.706  -0.691  -0.646
 -0.639  -0.614  -0.593  -0.577  -0.548  -0.542  -0.539  -0.535
 -0.512  -0.508  -0.477  -0.472  -0.461  -0.452  -0.447  -0.440
 -0.439  -0.430  -0.427  -0.405  -0.404  -0.399  -0.396  -0.392
 -0.383  -0.373  -0.369  -0.363  -0.359  -0.350  -0.348  -0.343
 -0.338  -0.337  -0.333  -0.330  -0.326  -0.322  -0.321  -0.314
 -0.305  -0.304  -0.301  -0.301  -0.289  -0.281  -0.276  -0.275
 -0.267  -0.258  -0.243  -0.239  -0.237  -0.233  -0.231  -0.180
 -0.172  -0.162  -0.158  -0.157  -0.150  -0.147  -0.145  -0.142
 -0.132

          Ground-State Mulliken Net Atomic Charges

     Atom                 Charge (a.u.)
  ----------------------------------------
      1 O                    -0.222346
      2 C                     0.219087
      3 C                    -0.077868
      4 C                    -0.078291
      5 C                     0.217525
      6 O                    -0.163696
      7 C                    -0.054514
      8 C                    -0.064387
      9 O                    -0.172127
     10 C                     0.210017
     11 C                    -0.078871
     12 C                    -0.080869
     13 C                     0.211206
     14 O                    -0.216718
     15 O                    -0.166437
     16 O                    -0.172058
     17 O                    -0.214150
     18 C                    -0.141184
     19 C                     0.026428
     20 C                    -0.143377
     21 C                    -0.143246
     22 C                     0.027133
     23 O                    -0.186896
     24 H                     0.087993
     25 H                     0.083021
     26 H                     0.085461
     27 H                     0.079247
     28 H                     0.076036
     29 H                     0.078772
     30 H                     0.075539
     31 H                     0.093188
     32 O                    -0.206397
     33 C                    -0.150659
     34 C                     0.026365
     35 C                    -0.144056
     36 C                    -0.144121
     37 C                     0.027162
     38 O                    -0.183086
     39 H                     0.085627
     40 H                     0.084651
     41 H                     0.116587
     42 H                     0.084144
     43 H                     0.077745
     44 H                     0.073684
     45 H                     0.077702
     46 H                     0.073560
     47 H                     0.084826
     48 H                     0.085947
     49 H                     0.075783
     50 H                     0.085559
     51 H                     0.110635
     52 H                     0.072585
     53 H                     0.118488
     54 H                     0.085570
     55 H                     0.102206
     56 H                     0.085875
  ----------------------------------------
  Sum of atomic charges =     0.000000

                    Cartesian Multipole Moments
 -----------------------------------------------------------------
    Charge (ESU x 10^10)
                 0.0000
    Dipole Moment (Debye)
         X       0.8098      Y       0.3525      Z       0.7111
       Tot       1.1339
    Quadrupole Moments (Debye-Ang)
        XX    -141.1344     XY      -8.6871     YY    -154.8689
        XZ       6.6840     YZ       0.6667     ZZ    -164.4761

 Total job time:  170.32s(wall), 8130.27s(cpu)
        *  Thank you very much for using Q-Chem.  Have a nice day.  *
