 Q-Chem 5.0, Q-Chem, Inc., Pleasanton, CA (2017)
 Q-Chem 5.0.1 for Intel X86 EM64T Linux

User input:
--------------------------------------------------------------
$molecule
0  1
O 1.9483304403 -0.7571284151 0.6369447134
C 3.030293907 -1.3772789787 0.520735993
C 4.3572983844 -0.8352293213 -0.1091866418
C 4.1035429187 0.4264296469 -1.0365031749
C 2.5776602423 0.6603213736 -1.334377858
O 2.1331031549 1.8682077216 -0.7014713868
C 0.6946721464 2.0796602608 -0.9916323078
C -0.1174853425 1.7252441085 0.2995666697
O -1.5550489692 1.939675167 -0.0007576161
C -2.3605663489 1.0137953784 0.7334446255
C -3.8563412463 1.2426246316 0.3227188477
C -4.3406861737 0.1945885446 -0.7770599004
C -3.1693674955 -0.7498767584 -1.2372650401
O -2.1291109735 -0.3936252818 -1.834487818
O 3.2460416882 -2.704650296 0.9991851645
O -3.4366798084 -2.0988931681 -0.8474206474
O -1.9157899693 0.1644873398 1.5360326265
C -2.2938738861 -2.9638960999 -1.2227237507
C -4.8478713004 0.8941850177 1.5110271873
C -6.2757758833 1.4653228355 1.1503602651
C -6.7525572675 0.4279698442 0.0665827115
C -5.506995042 -0.5416790958 0.0017860561
O -5.0197163216 -0.5726681633 1.4001766046
H -3.9730746729 2.2802265337 -0.0355535908
H -4.7153030356 0.723554454 -1.672659593
H -4.4681058122 1.1616371928 2.5160747892
H -6.9304295023 1.453022409 2.0360975134
H -6.225137975 2.4947961339 0.7614480173
H -7.6477610388 -0.1203404872 0.4003098175
H -6.9689580287 0.8961208517 -0.9069926656
H -5.7181662545 -1.5665193668 -0.3577934234
O 1.878500189 -0.0253481797 -2.1141671554
C 2.0091238625 -3.2184478019 1.6359268917
C 5.2614754335 -0.183913422 1.0259169818
C 6.684202128 0.1382070781 0.4193067039
C 6.3732017288 1.4310986625 -0.4226633399
C 4.8163029416 1.5695924725 -0.1995852219
O 4.6394874486 1.1464994209 1.2104389215
H 4.8756129044 -1.6561572456 -0.6353866657
H 4.6024042939 0.2796216977 -2.0115880464
H 1.1630441016 -3.2413690487 0.9191936803
H 5.2712907458 -0.7475430307 1.9792031346
H 7.4089705453 0.3419791863 1.2233519628
H 7.0662160385 -0.690376983 -0.1984090401
H 6.8982401469 2.3107172967 -0.0171938591
H 6.6359762329 1.3213582737 -1.4868768034
H 4.3955505603 2.580744731 -0.3556996418
H 1.7138535112 -2.6012491401 2.5088036245
H 2.2425348333 -4.2464253011 1.9687092295
H -2.5414432306 -3.9739529527 -0.8477657452
H -1.3504635554 -2.6120243177 -0.757785304
H -2.1517878781 -2.9995948021 -2.3223770913
H 0.0754674399 0.6704045535 0.5926030988
H 0.1922045204 2.3830877458 1.1406894272
H 0.3859095521 1.4155795168 -1.8280819336
H 0.5563562971 3.1447451018 -1.2679762029
$end

$rem
JOBTYPE                   OPT
METHOD                    B3LYP
DFT_D                     d3_op
BASIS                     STO-3G
GEOM_OPT_MAX_CYCLES       100
GEOM_OPT_TOL_GRADIENT     300
GEOM_OPT_TOL_DISPLACEMENT 1200
GEOM_OPT_TOL_ENERGY       100
SYMMETRY                  False
THRESH                    12
SCF_CONVERGENCE           8
MAX_SUB_FILE_NUM          128
MEM_STATIC                400
MEM_TOTAL                 4000
$end
--------------------------------------------------------------

   16   -1510.2834847770      3.73E-09 Convergence criterion met
 Total energy in the final basis set = -1510.28348478
   14   -1510.2840163899      3.25E-09 Convergence criterion met
 Total energy in the final basis set = -1510.28401639
   14   -1510.2859209984      9.37E-09 Convergence criterion met
 Total energy in the final basis set = -1510.28592100
   15   -1510.2835972298      2.63E-09 Convergence criterion met
 Total energy in the final basis set = -1510.28359723
   14   -1510.2820209082      4.14E-09 Convergence criterion met
 Total energy in the final basis set = -1510.28202091
   14   -1510.2880914390      9.19E-09 Convergence criterion met
 Total energy in the final basis set = -1510.28809144
   15   -1510.2718260150      3.28E-09 Convergence criterion met
 Total energy in the final basis set = -1510.27182602
   14   -1510.2911605290      9.59E-09 Convergence criterion met
   12   -1510.3035679257      8.77E-09 Convergence criterion met
 Total energy in the final basis set = -1510.30356793
   11   -1510.3035565076      5.90E-09 Convergence criterion met
 Total energy in the final basis set = -1510.30355651
   11   -1510.3035697241      2.68E-09 Convergence criterion met
 Total energy in the final basis set = -1510.30356972
   10   -1510.3035728837      9.75E-09 Convergence criterion met
 Total energy in the final basis set = -1510.30357288
    9   -1510.3035745739      6.75E-09 Convergence criterion met
 Total energy in the final basis set = -1510.30357457
    9   -1510.3035737981      5.72E-09 Convergence criterion met
 Total energy in the final basis set = -1510.30357380

             Standard Nuclear Orientation (Angstroms)
    I     Atom           X                Y                Z
 ----------------------------------------------------------------
    1      O      -0.6541209700     0.0870077466    -0.0664727516
    2      C      -1.4593325508     0.9657441791     0.3277797667
    3      C      -2.9797726911     1.0196762106    -0.0310857408
    4      C      -3.3547448124    -0.0419519694    -1.1483356512
    5      C      -2.1051513041    -0.8546782771    -1.6673216660
    6      O      -2.0098176297    -2.0901715424    -0.9525572665
    7      C      -0.6869368202    -2.7229148259    -1.1773368345
    8      C      -0.0038119544    -2.9375812181     0.2280299479
    9      O       1.4194426723    -2.5198477688     0.1490407680
   10      C       1.6917009064    -1.4299101607     1.0269249581
   11      C       3.1576535270    -0.9532044649     0.7499474636
   12      C       3.3465128303    -0.1163485476    -0.5928837164
   13      C       2.0427867899     0.0805753551    -1.4572812326
   14      O       1.5082363319    -0.7952999294    -2.1732887219
   15      O      -1.0935101803     2.0507816018     1.1582248555
   16      O       1.5859413592     1.4329681672    -1.3619141676
   17      O       0.8917146662    -0.9768564106     1.8785973489
   18      C       0.4922701413     1.6936202015    -2.3348211841
   19      C       3.6554920540     0.0941086545     1.8294905960
   20      C       5.2313342195     0.1578182934     1.7641464332
   21      C       5.4443509502     0.9639113035     0.4286800895
   22      C       3.9500743907     1.2310744852    -0.0128254082
   23      O       3.2368189108     1.4008209423     1.2731787228
   24      H       3.8031421252    -1.8494632178     0.7257949762
   25      H       4.0726752402    -0.6324521250    -1.2474262483
   26      H       3.2187675435    -0.0530359549     2.8362099778
   27      H       5.6313231721     0.7037647588     2.6332585428
   28      H       5.6873211439    -0.8445376998     1.7345225529
   29      H       5.9663686326     1.9168433038     0.6101684410
   30      H       6.0053208628     0.3927285410    -0.3280414468
   31      H       3.7943860377     2.1140563925    -0.6612230473
   32      O      -1.3866538236    -0.5460795657    -2.6496904206
   33      C       0.3662715404     1.9540682912     1.4466679985
   34      C      -3.8891597825     0.5218777254     1.1754820270
   35      C      -5.3838499319     0.9245585210     0.8611520559
   36      C      -5.7562537790    -0.1323196586    -0.2438413629
   37      C      -4.4028577015    -0.9393722444    -0.3645767692
   38      O      -3.8818640254    -0.9495453142     1.0227063110
   39      H      -3.2420751377     2.0503256403    -0.3300783226
   40      H      -3.8128891596     0.4570723174    -2.0208432412
   41      H       0.9561726330     2.0092985380     0.5048785062
   42      H      -3.5181178455     0.8147482272     2.1770925053
   43      H      -6.0105531831     0.8087646067     1.7598319971
   44      H      -5.4670570732     1.9634951018     0.5038876243
   45      H      -6.5706042685    -0.7953298022     0.0890376828
   46      H      -6.0479479426     0.3342811801    -1.1983550607
   47      H      -4.4991946689    -1.9725832784    -0.7488929529
   48      H       0.6052415109     0.9825321855     1.9350438808
   49      H       0.6043172879     2.8035814387     2.1100637611
   50      H      -0.0635847603     2.5647446614    -1.9423450208
   51      H      -0.1919658683     0.8171952632    -2.4567054639
   52      H       0.9272431944     1.9560156055    -3.3205688942
   53      H      -0.5184258928    -2.3175798763     0.9945059028
   54      H      -0.0281991926    -4.0041522029     0.5328622566
   55      H      -0.0429767421    -2.0581906555    -1.8022687928
   56      H      -0.8375112920    -3.6913170558    -1.6980885178
 ----------------------------------------------------------------

    9   -1510.3035742212      2.57E-09 Convergence criterion met
 Total energy in the final basis set = -1510.30357422
 Final energy is   -1510.30357422116
 **  OPTIMIZATION CONVERGED  **

                    Orbital Energies (a.u.)
 --------------------------------------------------------------

 Alpha MOs
 -- Occupied --
-18.933 -18.932 -18.931 -18.916 -18.887 -18.885 -18.878 -18.873
-18.873 -18.858 -10.101 -10.098 -10.098 -10.093 -10.059 -10.059
-10.058 -10.057 -10.056 -10.048 -10.039 -10.038 -10.037 -10.036
-10.031 -10.030 -10.020 -10.019 -10.019 -10.017  -1.014  -1.008
 -1.004  -0.995  -0.970  -0.967  -0.936  -0.931  -0.931  -0.922
 -0.763  -0.760  -0.724  -0.720  -0.708  -0.705  -0.686  -0.650
 -0.644  -0.608  -0.592  -0.572  -0.544  -0.542  -0.536  -0.534
 -0.511  -0.505  -0.478  -0.470  -0.465  -0.452  -0.446  -0.437
 -0.432  -0.431  -0.429  -0.412  -0.409  -0.404  -0.395  -0.393
 -0.385  -0.373  -0.364  -0.364  -0.358  -0.355  -0.349  -0.343
 -0.336  -0.333  -0.330  -0.327  -0.326  -0.320  -0.317  -0.309
 -0.309  -0.305  -0.299  -0.295  -0.287  -0.283  -0.278  -0.274
 -0.267  -0.251  -0.249  -0.242  -0.234  -0.232  -0.227  -0.183
 -0.176  -0.164  -0.157  -0.155  -0.149  -0.148  -0.143  -0.142
 -0.139

          Ground-State Mulliken Net Atomic Charges

     Atom                 Charge (a.u.)
  ----------------------------------------
      1 O                    -0.217616
      2 C                     0.214800
      3 C                    -0.079645
      4 C                    -0.081780
      5 C                     0.224357
      6 O                    -0.174669
      7 C                    -0.058022
      8 C                    -0.053302
      9 O                    -0.168836
     10 C                     0.218074
     11 C                    -0.078412
     12 C                    -0.077811
     13 C                     0.215604
     14 O                    -0.206828
     15 O                    -0.169667
     16 O                    -0.170936
     17 O                    -0.212576
     18 C                    -0.146434
     19 C                     0.023684
     20 C                    -0.143797
     21 C                    -0.144393
     22 C                     0.023854
     23 O                    -0.190813
     24 H                     0.086529
     25 H                     0.085469
     26 H                     0.086829
     27 H                     0.077835
     28 H                     0.073307
     29 H                     0.077638
     30 H                     0.073165
     31 H                     0.089425
     32 O                    -0.228482
     33 C                    -0.146423
     34 C                     0.025482
     35 C                    -0.143622
     36 C                    -0.144399
     37 C                     0.026227
     38 O                    -0.187756
     39 H                     0.085283
     40 H                     0.081830
     41 H                     0.103069
     42 H                     0.086302
     43 H                     0.077838
     44 H                     0.073466
     45 H                     0.077456
     46 H                     0.072945
     47 H                     0.088359
     48 H                     0.104814
     49 H                     0.082873
     50 H                     0.079552
     51 H                     0.122250
     52 H                     0.077399
     53 H                     0.109011
     54 H                     0.081883
     55 H                     0.120815
     56 H                     0.078792
  ----------------------------------------
  Sum of atomic charges =    -0.000000

                    Cartesian Multipole Moments
 -----------------------------------------------------------------
    Charge (ESU x 10^10)
                -0.0000
    Dipole Moment (Debye)
         X       0.5942      Y       0.7166      Z       0.0421
       Tot       0.9319
    Quadrupole Moments (Debye-Ang)
        XX    -137.1288     XY      -4.6626     YY    -157.2629
        XZ       4.0255     YZ      -3.5845     ZZ    -164.5207

 Total job time:  118.98s(wall), 5677.29s(cpu)
        *  Thank you very much for using Q-Chem.  Have a nice day.  *
