 Q-Chem 5.0, Q-Chem, Inc., Pleasanton, CA (2017)
 Q-Chem 5.0.1 for Intel X86 EM64T Linux

User input:
--------------------------------------------------------------
$molecule
0  1
O -3.94934 -3.66094 2.70899
C -3.26408 -4.56952 2.26188
C -3.36658 -6.02376 2.66595
C -4.06229 -6.33461 4.00132
C -4.73478 -5.17248 4.69797
O -6.0891 -5.34915 4.69284
C -6.79803 -4.28681 5.33945
C -7.46117 -3.38862 4.30039
O -8.17057 -2.32474 4.95443
C -8.21706 -1.15143 4.27595
C -8.91891 -0.05585 5.04262
C -7.98752 0.91455 5.78365
C -6.52934 0.87444 5.37276
O -5.77972 -0.08119 5.51203
O -2.45085 -4.31021 1.20446
O -6.01447 1.99055 4.78557
O -7.60845 -0.93229 3.23469
C -4.71548 2.11221 4.33756
C -9.73909 0.91846 4.1771
C -10.85175 1.53392 5.02227
C -10.04261 2.41304 5.95556
C -8.64221 2.24585 5.34839
O -8.88596 2.02018 3.97988
H -9.60425 -0.55615 5.76631
H -8.00932 0.76453 6.88535
H -10.15835 0.44954 3.26029
H -11.44413 2.18638 4.341
H -11.53624 0.81641 5.5238
H -10.40694 3.45921 5.85268
H -10.0526 2.10692 7.02414
H -8.01833 3.13172 5.59782
O -4.12265 -4.25753 5.23859
C -2.27525 -3.06091 0.64713
C -4.19534 -6.8594 1.67825
C -3.75931 -8.31982 1.74933
C -4.31109 -8.71019 3.10331
C -5.04933 -7.42065 3.48783
O -5.47769 -6.89644 2.25429
H -2.31519 -6.39025 2.70095
H -3.37184 -6.78037 4.7513
H -1.86474 -2.35891 1.4042
H -4.13808 -6.48894 0.6312
H -4.32453 -8.86938 0.96264
H -2.67095 -8.49683 1.61101
H -5.03302 -9.54459 2.95792
H -3.55145 -8.99443 3.86319
H -5.84543 -7.67053 4.22267
H -3.24261 -2.67395 0.26133
H -1.55874 -3.13624 -0.19632
H -4.57335 3.12371 3.90502
H -4.50985 1.35461 3.55128
H -4.0054 1.9807 5.18179
H -6.63956 -3.0166 3.64739
H -8.16887 -3.98667 3.6869
H -6.17721 -3.64332 6.00253
H -7.57367 -4.73205 5.99775
$end

$opt
CONSTRAINT
tors           1           2           3           4     -19.113
tors           3           4           5           6    +112.349
tors           4           5           6           7    +179.877
tors           5           6           7           8    +104.902
tors           6           7           8           9    -179.990
tors           7           8           9          10    +147.861
tors           8           9          10          11    -177.290
tors           9          10          11          12     +98.281
tors          11          12          13          14     -64.134
ENDCONSTRAINT
$end

$rem
JOBTYPE                   OPT
METHOD                    B3LYP
DFT_D                     d3_op
BASIS                     STO-3G
GEOM_OPT_MAX_CYCLES       100
GEOM_OPT_TOL_GRADIENT     300
GEOM_OPT_TOL_DISPLACEMENT 1200
GEOM_OPT_TOL_ENERGY       100
SYMMETRY                  False
THRESH                    12
SCF_CONVERGENCE           8
MAX_SUB_FILE_NUM          128
MEM_STATIC                400
MEM_TOTAL                 4000
$end
--------------------------------------------------------------

   15   -1510.1522043998      8.05E-09 Convergence criterion met
 Total energy in the final basis set = -1510.15220440
   13   -1510.2210021248      5.85E-09 Convergence criterion met
 Total energy in the final basis set = -1510.22100212
   14   -1510.2577054678      5.19E-09 Convergence criterion met
 Total energy in the final basis set = -1510.25770547
   14   -1510.2734616800      4.59E-09 Convergence criterion met
 Total energy in the final basis set = -1510.27346168
   13   -1510.2785627334      5.16E-09 Convergence criterion met
 Total energy in the final basis set = -1510.27856273
   13   -1510.2805593828      3.21E-09 Convergence criterion met
 Total energy in the final basis set = -1510.28055938
   13   -1510.2814524596      1.96E-09 Convergence criterion met
 Total energy in the final basis set = -1510.28145246
   12   -1510.2820023934      9.57E-09 Convergence criterion met
   11   -1510.2836204580      5.64E-09 Convergence criterion met
 Total energy in the final basis set = -1510.28362046
   10   -1510.2836258129      9.74E-09 Convergence criterion met
 Total energy in the final basis set = -1510.28362581
    9   -1510.2836296329      9.62E-09 Convergence criterion met
 Total energy in the final basis set = -1510.28362963
    9   -1510.2836308925      4.90E-09 Convergence criterion met
 Total energy in the final basis set = -1510.28363089
    9   -1510.2836321474      4.21E-09 Convergence criterion met
 Total energy in the final basis set = -1510.28363215
    9   -1510.2836333326      3.77E-09 Convergence criterion met
 Total energy in the final basis set = -1510.28363333

             Standard Nuclear Orientation (Angstroms)
    I     Atom           X                Y                Z
 ----------------------------------------------------------------
    1      O       1.9483304403    -0.7571284151     0.6369447134
    2      C       3.0302939070    -1.3772789787     0.5207359930
    3      C       4.3572983844    -0.8352293213    -0.1091866418
    4      C       4.1035429187     0.4264296469    -1.0365031749
    5      C       2.5776602423     0.6603213736    -1.3343778580
    6      O       2.1331031549     1.8682077216    -0.7014713868
    7      C       0.6946721464     2.0796602608    -0.9916323078
    8      C      -0.1174853425     1.7252441085     0.2995666697
    9      O      -1.5550489692     1.9396751670    -0.0007576161
   10      C      -2.3605663489     1.0137953784     0.7334446255
   11      C      -3.8563412463     1.2426246316     0.3227188477
   12      C      -4.3406861737     0.1945885446    -0.7770599004
   13      C      -3.1693674955    -0.7498767584    -1.2372650401
   14      O      -2.1291109735    -0.3936252818    -1.8344878180
   15      O       3.2460416882    -2.7046502960     0.9991851645
   16      O      -3.4366798084    -2.0988931681    -0.8474206474
   17      O      -1.9157899693     0.1644873398     1.5360326265
   18      C      -2.2938738861    -2.9638960999    -1.2227237507
   19      C      -4.8478713004     0.8941850177     1.5110271873
   20      C      -6.2757758833     1.4653228355     1.1503602651
   21      C      -6.7525572675     0.4279698442     0.0665827115
   22      C      -5.5069950420    -0.5416790958     0.0017860561
   23      O      -5.0197163216    -0.5726681633     1.4001766046
   24      H      -3.9730746729     2.2802265337    -0.0355535908
   25      H      -4.7153030356     0.7235544540    -1.6726595930
   26      H      -4.4681058122     1.1616371928     2.5160747892
   27      H      -6.9304295023     1.4530224090     2.0360975134
   28      H      -6.2251379750     2.4947961339     0.7614480173
   29      H      -7.6477610388    -0.1203404872     0.4003098175
   30      H      -6.9689580287     0.8961208517    -0.9069926656
   31      H      -5.7181662545    -1.5665193668    -0.3577934234
   32      O       1.8785001890    -0.0253481797    -2.1141671554
   33      C       2.0091238625    -3.2184478019     1.6359268917
   34      C       5.2614754335    -0.1839134220     1.0259169818
   35      C       6.6842021280     0.1382070781     0.4193067039
   36      C       6.3732017288     1.4310986625    -0.4226633399
   37      C       4.8163029416     1.5695924725    -0.1995852219
   38      O       4.6394874486     1.1464994209     1.2104389215
   39      H       4.8756129044    -1.6561572456    -0.6353866657
   40      H       4.6024042939     0.2796216977    -2.0115880464
   41      H       1.1630441016    -3.2413690487     0.9191936803
   42      H       5.2712907458    -0.7475430307     1.9792031346
   43      H       7.4089705453     0.3419791863     1.2233519628
   44      H       7.0662160385    -0.6903769830    -0.1984090401
   45      H       6.8982401469     2.3107172967    -0.0171938591
   46      H       6.6359762329     1.3213582737    -1.4868768034
   47      H       4.3955505603     2.5807447310    -0.3556996418
   48      H       1.7138535112    -2.6012491401     2.5088036245
   49      H       2.2425348333    -4.2464253011     1.9687092295
   50      H      -2.5414432306    -3.9739529527    -0.8477657452
   51      H      -1.3504635554    -2.6120243177    -0.7577853040
   52      H      -2.1517878781    -2.9995948021    -2.3223770913
   53      H       0.0754674399     0.6704045535     0.5926030988
   54      H       0.1922045204     2.3830877458     1.1406894272
   55      H       0.3859095521     1.4155795168    -1.8280819336
   56      H       0.5563562971     3.1447451018    -1.2679762029
 ----------------------------------------------------------------

    9   -1510.2836333299      5.12E-09 Convergence criterion met
 Total energy in the final basis set = -1510.28363333
 Final energy is   -1510.28363332988
 **  OPTIMIZATION CONVERGED  **

                    Orbital Energies (a.u.)
 --------------------------------------------------------------

 Alpha MOs
 -- Occupied --
-18.941 -18.932 -18.923 -18.922 -18.887 -18.882 -18.882 -18.868
-18.865 -18.859 -10.104 -10.094 -10.091 -10.090 -10.066 -10.061
-10.060 -10.056 -10.055 -10.054 -10.053 -10.052 -10.039 -10.034
-10.033 -10.031 -10.021 -10.019 -10.016 -10.015  -1.017  -1.008
 -1.002  -0.998  -0.969  -0.964  -0.940  -0.930  -0.928  -0.923
 -0.762  -0.758  -0.723  -0.719  -0.710  -0.702  -0.686  -0.665
 -0.656  -0.608  -0.593  -0.571  -0.545  -0.540  -0.536  -0.532
 -0.511  -0.506  -0.479  -0.472  -0.462  -0.455  -0.449  -0.441
 -0.434  -0.428  -0.425  -0.414  -0.408  -0.408  -0.406  -0.390
 -0.388  -0.375  -0.372  -0.362  -0.360  -0.356  -0.348  -0.342
 -0.341  -0.336  -0.330  -0.328  -0.326  -0.321  -0.320  -0.311
 -0.305  -0.302  -0.301  -0.297  -0.284  -0.283  -0.277  -0.273
 -0.270  -0.259  -0.249  -0.241  -0.238  -0.231  -0.228  -0.183
 -0.172  -0.170  -0.160  -0.157  -0.149  -0.147  -0.142  -0.140
 -0.137

          Ground-State Mulliken Net Atomic Charges

     Atom                 Charge (a.u.)
  ----------------------------------------
      1 O                    -0.208490
      2 C                     0.214870
      3 C                    -0.077949
      4 C                    -0.080483
      5 C                     0.214444
      6 O                    -0.172528
      7 C                    -0.052815
      8 C                    -0.053084
      9 O                    -0.172398
     10 C                     0.206991
     11 C                    -0.078725
     12 C                    -0.077873
     13 C                     0.206555
     14 O                    -0.213669
     15 O                    -0.168014
     16 O                    -0.165594
     17 O                    -0.213117
     18 C                    -0.127316
     19 C                     0.025298
     20 C                    -0.144200
     21 C                    -0.144308
     22 C                     0.024153
     23 O                    -0.186476
     24 H                     0.085226
     25 H                     0.083760
     26 H                     0.084481
     27 H                     0.077174
     28 H                     0.072783
     29 H                     0.077039
     30 H                     0.072225
     31 H                     0.090206
     32 O                    -0.221532
     33 C                    -0.128170
     34 C                     0.025049
     35 C                    -0.144112
     36 C                    -0.143643
     37 C                     0.024548
     38 O                    -0.188870
     39 H                     0.087417
     40 H                     0.083712
     41 H                     0.091336
     42 H                     0.083560
     43 H                     0.078166
     44 H                     0.073964
     45 H                     0.077788
     46 H                     0.073265
     47 H                     0.092097
     48 H                     0.093006
     49 H                     0.091758
     50 H                     0.090014
     51 H                     0.092776
     52 H                     0.088382
     53 H                     0.109152
     54 H                     0.081333
     55 H                     0.107669
     56 H                     0.083170
  ----------------------------------------
  Sum of atomic charges =     0.000000

                    Cartesian Multipole Moments
 -----------------------------------------------------------------
    Charge (ESU x 10^10)
                 0.0000
    Dipole Moment (Debye)
         X       0.8312      Y      -0.2106      Z      -0.8413
       Tot       1.2013
    Quadrupole Moments (Debye-Ang)
        XX    -135.1808     XY      -7.3157     YY    -150.6481
        XZ       2.2320     YZ      -0.7116     ZZ    -163.3551

 Total job time:  59.90s(wall), 2847.89s(cpu)
        *  Thank you very much for using Q-Chem.  Have a nice day.  *
