 Q-Chem 5.0, Q-Chem, Inc., Pleasanton, CA (2017)
 Q-Chem 5.0.1 for Intel X86 EM64T Linux

User input:
--------------------------------------------------------------
$molecule
0  1
O -3.94934 -3.66094 2.70899
C -3.26408 -4.56952 2.26188
C -3.36658 -6.02376 2.66595
C -3.31333 -6.34067 4.16947
C -3.34238 -5.15619 5.10982
O -4.34364 -5.31482 6.0251
C -4.38266 -4.27073 7.00367
C -5.75285 -3.60086 7.00323
O -5.70869 -2.39574 7.78337
C -6.26495 -1.30407 7.20202
C -6.10312 -0.05055 8.02856
C -6.02855 1.25286 7.21995
C -6.47623 1.1606 5.77504
O -5.78345 0.78339 4.84105
O -2.29378 -4.26941 1.35871
O -7.72421 1.61946 5.47399
O -7.13159 -1.40022 6.33983
C -8.27303 1.62923 4.20846
C -7.31171 0.23539 8.94272
C -6.85923 1.08097 10.13101
C -6.56443 2.39641 9.44012
C -7.06422 2.07742 8.02409
O -8.10006 1.14752 8.22382
H -5.20764 -0.19193 8.67727
H -5.03215 1.74619 7.23413
H -7.82613 -0.68526 9.29562
H -7.75083 1.21265 10.78566
H -6.0236 0.66629 10.73486
H -7.18139 3.18857 9.9193
H -5.49454 2.69768 9.42715
H -7.34721 3.01902 7.50348
O -2.46202 -4.30354 5.13526
C -2.0372 -2.99907 0.88694
C -4.73945 -6.62555 2.29874
C -4.6018 -8.13152 2.09859
C -4.35587 -8.57881 3.52276
C -4.56389 -7.25337 4.27031
O -5.4955 -6.55533 3.48343
H -2.58036 -6.57569 2.10054
H -2.38226 -6.89432 4.42265
H -1.75257 -2.32923 1.72644
H -5.19869 -6.16091 1.39841
H -5.60168 -8.50182 1.77601
H -3.83803 -8.45794 1.36038
H -5.13604 -9.32459 3.79349
H -3.34467 -8.99541 3.72153
H -4.8697 -7.48129 5.31396
H -2.93383 -2.59437 0.37052
H -1.19726 -3.04227 0.16366
H -9.29664 2.0535 4.25952
H -8.33411 0.59359 3.81085
H -7.65854 2.25782 3.52916
H -6.00927 -3.40455 5.93623
H -6.50462 -4.3063 7.41706
H -3.64288 -3.45557 6.84296
H -4.1792 -4.68785 8.0128
$end

$opt
CONSTRAINT
tors           1           2           3           4     -51.713
tors           3           4           5           6    +126.640
tors           4           5           6           7    +176.375
tors           5           6           7           8    +123.140
tors           6           7           8           9    -168.555
tors           7           8           9          10    +132.703
tors           8           9          10          11    -176.036
tors           9          10          11          12    +150.211
tors          11          12          13          14     -83.352
ENDCONSTRAINT
$end

$rem
JOBTYPE                   OPT
METHOD                    B3LYP
DFT_D                     d3_op
BASIS                     STO-3G
GEOM_OPT_MAX_CYCLES       100
GEOM_OPT_TOL_GRADIENT     300
GEOM_OPT_TOL_DISPLACEMENT 1200
GEOM_OPT_TOL_ENERGY       100
SYMMETRY                  False
THRESH                    12
SCF_CONVERGENCE           8
MAX_SUB_FILE_NUM          128
MEM_STATIC                400
MEM_TOTAL                 4000
$end
--------------------------------------------------------------

   15   -1510.1444040984      9.15E-09 Convergence criterion met
 Total energy in the final basis set = -1510.14440410
   13   -1510.2142154132      6.61E-09 Convergence criterion met
 Total energy in the final basis set = -1510.21421541
   14   -1510.2520770509      1.46E-09 Convergence criterion met
 Total energy in the final basis set = -1510.25207705
   13   -1510.2692803783      9.18E-09 Convergence criterion met
 Total energy in the final basis set = -1510.26928038
   13   -1510.2754772984      6.89E-09 Convergence criterion met
 Total energy in the final basis set = -1510.27547730
   13   -1510.2779846691      3.51E-09 Convergence criterion met
 Total energy in the final basis set = -1510.27798467
   13   -1510.2791163369      2.43E-09 Convergence criterion met
 Total energy in the final basis set = -1510.27911634
   12   -1510.2798275159      9.43E-09 Convergence criterion met
   10   -1510.2815311801      9.38E-09 Convergence criterion met
 Total energy in the final basis set = -1510.28153118
   11   -1510.2815371898      4.32E-09 Convergence criterion met
 Total energy in the final basis set = -1510.28153719
   10   -1510.2815339831      8.61E-09 Convergence criterion met
 Total energy in the final basis set = -1510.28153398
    9   -1510.2815365049      3.89E-09 Convergence criterion met
 Total energy in the final basis set = -1510.28153650
    9   -1510.2815397731      2.81E-09 Convergence criterion met
 Total energy in the final basis set = -1510.28153977
    9   -1510.2815421296      2.57E-09 Convergence criterion met
 Total energy in the final basis set = -1510.28154213

             Standard Nuclear Orientation (Angstroms)
    I     Atom           X                Y                Z
 ----------------------------------------------------------------
    1      O       2.2297806259    -1.2793312479     0.3937935930
    2      C       3.3217050474    -1.4838832036    -0.1806232321
    3      C       4.6042741820    -0.5844973864    -0.1124706359
    4      C       4.2948179640     0.9376830308    -0.4488045632
    5      C       2.8371985110     1.1354341542    -0.9932537391
    6      O       2.1444680749     2.1342036817    -0.2357365406
    7      C       0.8013333635     2.3634971026    -0.8254497973
    8      C      -0.2787929756     2.1123164364     0.2789897269
    9      O      -1.6085801451     2.0695444175    -0.3832140673
   10      C      -2.3513593705     0.9349415863     0.0766217901
   11      C      -3.6985509655     0.8630437394    -0.7112609201
   12      C      -4.2365746764    -0.6218253935    -0.8806354061
   13      C      -3.2815841349    -1.7063897024    -0.2526958180
   14      O      -2.2737243946    -2.2060524051    -0.7997676606
   15      O       3.5972705101    -2.6216421983    -1.0030303123
   16      O      -3.7758167627    -2.0947042025     1.0319874623
   17      O      -1.9415172730     0.1300797297     0.9438937354
   18      C      -2.8230387227    -3.0305460533     1.6696687706
   19      C      -4.9019797914     1.5241351162     0.0977352361
   20      C      -6.0993089904     1.7545760173    -0.9074014086
   21      C      -6.6301586865     0.2838902818    -1.0867754063
   22      C      -5.6397358884    -0.5159218962    -0.1501028695
   23      O      -5.3799609163     0.4262743131     0.9640128772
   24      H      -3.5547595422     1.3617645759    -1.6859649539
   25      H      -4.3512045664    -0.8635363503    -1.9525651600
   26      H      -4.6189620613     2.4064402302     0.7041979806
   27      H      -6.8614560058     2.4065484150    -0.4515266019
   28      H      -5.7670511224     2.2088231818    -1.8543391547
   29      H      -7.6666769163     0.1829386127    -0.7275910235
   30      H      -6.5827575131    -0.0615789935    -2.1317585734
   31      H      -6.0249579938    -1.4770162825     0.2398459973
   32      O       2.3434355297     0.5406832694    -1.9785302465
   33      C       2.3916098046    -3.4803728380    -1.0903631375
   34      C       5.1008668026    -0.4488888693     1.3914775915
   35      C       6.5306793014     0.2244706766     1.3949260085
   36      C       6.1614635409     1.7282605814     1.1115058819
   37      C       4.5943178140     1.6283959092     0.9463277604
   38      O       4.2117016694     0.5992262187     1.9407498564
   39      H       5.3775733588    -1.0090894700    -0.7755884960
   40      H       4.9864913361     1.3035042753    -1.2305824113
   41      H       1.5215479841    -2.9199360147    -1.4889296153
   42      H       5.0167725120    -1.3788474502     1.9867327232
   43      H       7.0126739907     0.1033289863     2.3779470989
   44      H       7.1897709952    -0.2041971948     0.6230422279
   45      H       6.4159961652     2.3731708029     1.9676273482
   46      H       6.6529169470     2.1268056749     0.2096737567
   47      H       4.0301265896     2.5644116129     1.1196501745
   48      H       2.1164388494    -3.8980069292    -0.1002096790
   49      H       2.6525835465    -4.3041515117    -1.7796798919
   50      H      -3.2723809559    -3.3093320035     2.6404141844
   51      H      -1.8411218337    -2.5432525240     1.8392743080
   52      H      -2.6669435512    -3.9409057349     1.0549906445
   53      H      -0.1004810734     1.1436022981     0.7957950965
   54      H      -0.2715409907     2.9285673027     1.0324332397
   55      H       0.6696633155     1.6545954110    -1.6729660240
   56      H       0.7523822917     3.4081033475    -1.1979030065
 ----------------------------------------------------------------

    9   -1510.2815430398      3.10E-09 Convergence criterion met
 Total energy in the final basis set = -1510.28154304
 Final energy is   -1510.28154303977
 **  OPTIMIZATION CONVERGED  **

                    Orbital Energies (a.u.)
 --------------------------------------------------------------

 Alpha MOs
 -- Occupied --
-18.935 -18.934 -18.929 -18.921 -18.886 -18.885 -18.879 -18.875
-18.866 -18.856 -10.101 -10.100 -10.092 -10.087 -10.065 -10.064
-10.060 -10.059 -10.057 -10.056 -10.055 -10.050 -10.039 -10.037
-10.035 -10.031 -10.020 -10.019 -10.019 -10.017  -1.015  -1.011
 -1.003  -0.996  -0.969  -0.967  -0.940  -0.935  -0.928  -0.921
 -0.762  -0.760  -0.725  -0.720  -0.712  -0.704  -0.692  -0.657
 -0.648  -0.613  -0.593  -0.575  -0.545  -0.542  -0.536  -0.534
 -0.513  -0.507  -0.480  -0.472  -0.460  -0.457  -0.449  -0.443
 -0.433  -0.431  -0.430  -0.408  -0.405  -0.404  -0.400  -0.397
 -0.395  -0.374  -0.370  -0.363  -0.358  -0.354  -0.351  -0.345
 -0.340  -0.335  -0.331  -0.329  -0.328  -0.322  -0.320  -0.309
 -0.307  -0.303  -0.301  -0.298  -0.287  -0.286  -0.274  -0.274
 -0.272  -0.253  -0.249  -0.245  -0.240  -0.232  -0.230  -0.184
 -0.171  -0.168  -0.161  -0.160  -0.156  -0.145  -0.143  -0.141
 -0.136

          Ground-State Mulliken Net Atomic Charges

     Atom                 Charge (a.u.)
  ----------------------------------------
      1 O                    -0.212943
      2 C                     0.208772
      3 C                    -0.078832
      4 C                    -0.078028
      5 C                     0.214117
      6 O                    -0.169414
      7 C                    -0.055418
      8 C                    -0.055183
      9 O                    -0.173500
     10 C                     0.212295
     11 C                    -0.078876
     12 C                    -0.080027
     13 C                     0.212291
     14 O                    -0.221826
     15 O                    -0.168793
     16 O                    -0.166470
     17 O                    -0.206224
     18 C                    -0.126924
     19 C                     0.025978
     20 C                    -0.143561
     21 C                    -0.144564
     22 C                     0.026035
     23 O                    -0.185991
     24 H                     0.086619
     25 H                     0.082526
     26 H                     0.082777
     27 H                     0.077667
     28 H                     0.073603
     29 H                     0.077350
     30 H                     0.072978
     31 H                     0.089370
     32 O                    -0.216248
     33 C                    -0.128997
     34 C                     0.025647
     35 C                    -0.144310
     36 C                    -0.143759
     37 C                     0.023909
     38 O                    -0.186470
     39 H                     0.086433
     40 H                     0.085005
     41 H                     0.096879
     42 H                     0.082981
     43 H                     0.077973
     44 H                     0.073742
     45 H                     0.077871
     46 H                     0.072627
     47 H                     0.092093
     48 H                     0.087533
     49 H                     0.089098
     50 H                     0.087947
     51 H                     0.096055
     52 H                     0.084854
     53 H                     0.110099
     54 H                     0.084150
     55 H                     0.105728
     56 H                     0.083359
  ----------------------------------------
  Sum of atomic charges =    -0.000000

                    Cartesian Multipole Moments
 -----------------------------------------------------------------
    Charge (ESU x 10^10)
                -0.0000
    Dipole Moment (Debye)
         X       0.9826      Y       1.0336      Z      -1.4637
       Tot       2.0436
    Quadrupole Moments (Debye-Ang)
        XX    -137.1639     XY       0.3956     YY    -148.2181
        XZ       7.8613     YZ      -3.6409     ZZ    -164.2871

 Total job time:  58.52s(wall), 2781.34s(cpu)
        *  Thank you very much for using Q-Chem.  Have a nice day.  *
