 Q-Chem 5.0, Q-Chem, Inc., Pleasanton, CA (2017)
 Q-Chem 5.0.1 for Intel X86 EM64T Linux

User input:
--------------------------------------------------------------
$molecule
0  1
O 2.2297806259 -1.2793312479 0.393793593
C 3.3217050474 -1.4838832036 -0.1806232321
C 4.604274182 -0.5844973864 -0.1124706359
C 4.294817964 0.9376830308 -0.4488045632
C 2.837198511 1.1354341542 -0.9932537391
O 2.1444680749 2.1342036817 -0.2357365406
C 0.8013333635 2.3634971026 -0.8254497973
C -0.2787929756 2.1123164364 0.2789897269
O -1.6085801451 2.0695444175 -0.3832140673
C -2.3513593705 0.9349415863 0.0766217901
C -3.6985509655 0.8630437394 -0.7112609201
C -4.2365746764 -0.6218253935 -0.8806354061
C -3.2815841349 -1.7063897024 -0.252695818
O -2.2737243946 -2.2060524051 -0.7997676606
O 3.5972705101 -2.6216421983 -1.0030303123
O -3.7758167627 -2.0947042025 1.0319874623
O -1.941517273 0.1300797297 0.9438937354
C -2.8230387227 -3.0305460533 1.6696687706
C -4.9019797914 1.5241351162 0.0977352361
C -6.0993089904 1.7545760173 -0.9074014086
C -6.6301586865 0.2838902818 -1.0867754063
C -5.6397358884 -0.5159218962 -0.1501028695
O -5.3799609163 0.4262743131 0.9640128772
H -3.5547595422 1.3617645759 -1.6859649539
H -4.3512045664 -0.8635363503 -1.95256516
H -4.6189620613 2.4064402302 0.7041979806
H -6.8614560058 2.406548415 -0.4515266019
H -5.7670511224 2.2088231818 -1.8543391547
H -7.6666769163 0.1829386127 -0.7275910235
H -6.5827575131 -0.0615789935 -2.1317585734
H -6.0249579938 -1.4770162825 0.2398459973
O 2.3434355297 0.5406832694 -1.9785302465
C 2.3916098046 -3.480372838 -1.0903631375
C 5.1008668026 -0.4488888693 1.3914775915
C 6.5306793014 0.2244706766 1.3949260085
C 6.1614635409 1.7282605814 1.1115058819
C 4.594317814 1.6283959092 0.9463277604
O 4.2117016694 0.5992262187 1.9407498564
H 5.3775733588 -1.00908947 -0.775588496
H 4.9864913361 1.3035042753 -1.2305824113
H 1.5215479841 -2.9199360147 -1.4889296153
H 5.016772512 -1.3788474502 1.9867327232
H 7.0126739907 0.1033289863 2.3779470989
H 7.1897709952 -0.2041971948 0.6230422279
H 6.4159961652 2.3731708029 1.9676273482
H 6.652916947 2.1268056749 0.2096737567
H 4.0301265896 2.5644116129 1.1196501745
H 2.1164388494 -3.8980069292 -0.100209679
H 2.6525835465 -4.3041515117 -1.7796798919
H -3.2723809559 -3.3093320035 2.6404141844
H -1.8411218337 -2.543252524 1.839274308
H -2.6669435512 -3.9409057349 1.0549906445
H -0.1004810734 1.1436022981 0.7957950965
H -0.2715409907 2.9285673027 1.0324332397
H 0.6696633155 1.654595411 -1.672966024
H 0.7523822917 3.4081033475 -1.1979030065
$end

$rem
JOBTYPE                   OPT
METHOD                    B3LYP
DFT_D                     d3_op
BASIS                     STO-3G
GEOM_OPT_MAX_CYCLES       100
GEOM_OPT_TOL_GRADIENT     300
GEOM_OPT_TOL_DISPLACEMENT 1200
GEOM_OPT_TOL_ENERGY       100
SYMMETRY                  False
THRESH                    12
SCF_CONVERGENCE           8
MAX_SUB_FILE_NUM          128
MEM_STATIC                400
MEM_TOTAL                 4000
$end
--------------------------------------------------------------

   16   -1510.2814239100      4.52E-09 Convergence criterion met
 Total energy in the final basis set = -1510.28142391
   14   -1510.2828419865      2.18E-09 Convergence criterion met
 Total energy in the final basis set = -1510.28284199
   14   -1510.2843014048      4.30E-09 Convergence criterion met
 Total energy in the final basis set = -1510.28430140
   14   -1510.2801336960      1.64E-09 Convergence criterion met
 Total energy in the final basis set = -1510.28013370
   14   -1510.2851123420      2.49E-09 Convergence criterion met
 Total energy in the final basis set = -1510.28511234
   13   -1510.2851846942      5.36E-09 Convergence criterion met
 Total energy in the final basis set = -1510.28518469
   14   -1510.2854731649      9.49E-09 Convergence criterion met
 Total energy in the final basis set = -1510.28547316
   13   -1510.2861039601      9.99E-09 Convergence criterion met
   11   -1510.2992519736      7.63E-09 Convergence criterion met
 Total energy in the final basis set = -1510.29925197
   11   -1510.2992487662      4.43E-09 Convergence criterion met
 Total energy in the final basis set = -1510.29924877
    9   -1510.2992476070      9.70E-09 Convergence criterion met
 Total energy in the final basis set = -1510.29924761
   10   -1510.2992498510      7.91E-09 Convergence criterion met
 Total energy in the final basis set = -1510.29924985
    9   -1510.2992498296      7.61E-09 Convergence criterion met
 Total energy in the final basis set = -1510.29924983
    9   -1510.2992486910      5.12E-09 Convergence criterion met
 Total energy in the final basis set = -1510.29924869

             Standard Nuclear Orientation (Angstroms)
    I     Atom           X                Y                Z
 ----------------------------------------------------------------
    1      O      -1.3775692788     0.8888792852     0.6735346205
    2      C      -2.2610085524     1.1945433316    -0.1672241516
    3      C      -3.7454047221     0.6893214513    -0.1850696237
    4      C      -3.8852497963    -0.8151520015    -0.6968192336
    5      C      -2.4830983485    -1.4484514629    -1.0115183231
    6      O      -2.0809128845    -2.2865910238     0.0781406897
    7      C      -0.6484428136    -2.6458859955    -0.0591059310
    8      C       0.1840803296    -1.6984829430     0.8897539873
    9      O       1.6082044180    -1.6052042435     0.4808410490
   10      C       1.7559573010    -0.6591325335    -0.5756057206
   11      C       3.2677063921    -0.5062474276    -0.9809220531
   12      C       3.8078300464     0.9734283581    -0.7658031507
   13      C       2.7642655357     1.9223820770    -0.0842113417
   14      O       2.4485732575     3.0814622965    -0.4333901074
   15      O      -2.0711416601     2.0526807264    -1.2779487052
   16      O       2.2307984980     1.2359419398     1.0486002744
   17      O       0.7895440377    -0.0876198935    -1.1333257396
   18      C       1.1620195322     2.0296868509     1.7044760410
   19      C       4.2727228665    -1.3334564636    -0.0759744431
   20      C       5.6526127112    -1.4301336218    -0.8383665617
   21      C       6.2015835343     0.0340203893    -0.6574298009
   22      C       5.0444807614     0.6911386548     0.1950847617
   23      O       4.5651596081    -0.4165695787     1.0499492597
   24      H       3.3543696156    -0.7939076168    -2.0450223631
   25      H       4.1233524773     1.4382519667    -1.7159758189
   26      H       3.8630990552    -2.2898725608     0.3001736324
   27      H       6.3087350682    -2.1695387671    -0.3521844075
   28      H       5.5262495848    -1.7117011521    -1.8959206765
   29      H       7.1477455597     0.0441783070    -0.0934956769
   30      H       6.3560732810     0.5526381447    -1.6171664400
   31      H       5.3493585049     1.5568340939     0.8143820236
   32      O      -1.7936913901    -1.2463222125    -2.0361864435
   33      C      -0.6447142545     2.4528636882    -1.4137486218
   34      C      -4.3601284840     0.5631673894     1.2747297180
   35      C      -5.9308051477     0.4810672577     1.1372390415
   36      C      -6.1074703300    -0.9819098105     0.5847094968
   37      C      -4.6078896810    -1.4810981328     0.5455385449
   38      O      -3.9792828071    -0.8011825775     1.7024289570
   39      H      -4.3293051520     1.3754636538    -0.8233313851
   40      H      -4.4985854723    -0.8554800548    -1.6148800321
   41      H       0.0183545302     1.5568727146    -1.3668420212
   42      H      -3.9839213443     1.3131366564     1.9972435759
   43      H      -6.4082281957     0.6015167996     2.1228187323
   44      H      -6.3316581036     1.2469463158     0.4543381392
   45      H      -6.7032317372    -1.6049473156     1.2704829181
   46      H      -6.5774744880    -1.0048892775    -0.4114515018
   47      H      -4.4715160763    -2.5766515916     0.6195745988
   48      H      -0.3561354074     3.1763194470    -0.6255864185
   49      H      -0.5665702377     2.9410872848    -2.4016461283
   50      H       1.2451531113     1.8446351026     2.7912826926
   51      H       0.1676643486     1.6842979304     1.3315220113
   52      H       1.2961640900     3.1072602271     1.4869596511
   53      H      -0.3069453266    -0.6946374895     0.8807084059
   54      H       0.1978476063    -2.0970966165     1.9227788795
   55      H      -0.3402384851    -2.4907884956    -1.1158913492
   56      H      -0.5396340491    -3.7118079256     0.2227690917
 ----------------------------------------------------------------

    9   -1510.2992478113      2.28E-09 Convergence criterion met
 Total energy in the final basis set = -1510.29924781
 Final energy is   -1510.29924781129
 **  OPTIMIZATION CONVERGED  **

                    Orbital Energies (a.u.)
 --------------------------------------------------------------

 Alpha MOs
 -- Occupied --
-18.941 -18.934 -18.931 -18.926 -18.888 -18.885 -18.882 -18.876
-18.870 -18.868 -10.108 -10.102 -10.098 -10.093 -10.062 -10.061
-10.059 -10.058 -10.055 -10.054 -10.042 -10.040 -10.039 -10.036
-10.035 -10.034 -10.021 -10.020 -10.019 -10.017  -1.017  -1.012
 -1.008  -1.001  -0.970  -0.967  -0.939  -0.937  -0.932  -0.928
 -0.764  -0.760  -0.726  -0.721  -0.712  -0.705  -0.688  -0.656
 -0.646  -0.612  -0.595  -0.577  -0.547  -0.543  -0.538  -0.534
 -0.514  -0.507  -0.481  -0.477  -0.466  -0.460  -0.450  -0.438
 -0.433  -0.431  -0.423  -0.420  -0.408  -0.405  -0.399  -0.397
 -0.381  -0.378  -0.370  -0.365  -0.359  -0.355  -0.352  -0.349
 -0.342  -0.338  -0.332  -0.328  -0.326  -0.323  -0.315  -0.310
 -0.306  -0.306  -0.301  -0.299  -0.290  -0.289  -0.284  -0.278
 -0.274  -0.260  -0.244  -0.238  -0.238  -0.234  -0.230  -0.188
 -0.176  -0.171  -0.161  -0.159  -0.154  -0.150  -0.146  -0.143
 -0.140

          Ground-State Mulliken Net Atomic Charges

     Atom                 Charge (a.u.)
  ----------------------------------------
      1 O                    -0.220159
      2 C                     0.220156
      3 C                    -0.078657
      4 C                    -0.077313
      5 C                     0.206738
      6 O                    -0.168946
      7 C                    -0.056758
      8 C                    -0.060048
      9 O                    -0.166424
     10 C                     0.222098
     11 C                    -0.078071
     12 C                    -0.079194
     13 C                     0.207874
     14 O                    -0.218060
     15 O                    -0.161985
     16 O                    -0.168900
     17 O                    -0.226011
     18 C                    -0.150895
     19 C                     0.024889
     20 C                    -0.144269
     21 C                    -0.144070
     22 C                     0.026156
     23 O                    -0.184967
     24 H                     0.083707
     25 H                     0.084256
     26 H                     0.091587
     27 H                     0.077406
     28 H                     0.072552
     29 H                     0.077694
     30 H                     0.073582
     31 H                     0.082721
     32 O                    -0.208346
     33 C                    -0.145171
     34 C                     0.025360
     35 C                    -0.143564
     36 C                    -0.144611
     37 C                     0.025913
     38 O                    -0.185340
     39 H                     0.087942
     40 H                     0.085939
     41 H                     0.119332
     42 H                     0.084136
     43 H                     0.078229
     44 H                     0.073859
     45 H                     0.078055
     46 H                     0.073358
     47 H                     0.089181
     48 H                     0.084505
     49 H                     0.087935
     50 H                     0.082920
     51 H                     0.109701
     52 H                     0.086986
     53 H                     0.114480
     54 H                     0.088285
     55 H                     0.099711
     56 H                     0.084515
  ----------------------------------------
  Sum of atomic charges =     0.000000

                    Cartesian Multipole Moments
 -----------------------------------------------------------------
    Charge (ESU x 10^10)
                 0.0000
    Dipole Moment (Debye)
         X      -0.8961      Y      -0.6932      Z      -0.8416
       Tot       1.4114
    Quadrupole Moments (Debye-Ang)
        XX    -137.4775     XY      -3.0269     YY    -157.6474
        XZ      -5.5797     YZ       4.6089     ZZ    -164.7818

 Total job time:  136.93s(wall), 6530.11s(cpu)
        *  Thank you very much for using Q-Chem.  Have a nice day.  *
