 Q-Chem 5.0, Q-Chem, Inc., Pleasanton, CA (2017)
 Q-Chem 5.0.1 for Intel X86 EM64T Linux

User input:
--------------------------------------------------------------
$molecule
0  1
O -3.94934 -3.66094 2.70899
C -3.26408 -4.56952 2.26188
C -3.36658 -6.02376 2.66595
C -3.53546 -6.32659 4.16382
C -3.76134 -5.13744 5.07102
O -5.09869 -4.88004 5.1743
C -5.39392 -3.76733 6.02516
C -5.78186 -2.55338 5.18733
O -5.88331 -1.39196 6.0262
C -5.98162 -0.2076 5.37294
C -5.79089 0.98327 6.28185
C -5.13483 2.20401 5.62029
C -5.09559 2.19317 4.10535
O -4.25354 1.62861 3.42214
O -2.24564 -4.25864 1.4173
O -6.02139 2.94739 3.44745
O -6.49032 -0.12646 4.26104
C -6.10724 3.06486 2.0757
C -7.12303 1.59196 6.76673
C -6.89453 2.3233 8.08769
C -6.06749 3.50061 7.614
C -6.13568 3.28612 6.0954
O -7.37634 2.65755 5.8891
H -5.23062 0.63548 7.1807
H -4.10769 2.42612 5.98358
H -7.93769 0.84271 6.8752
H -7.89009 2.69616 8.42048
H -6.43957 1.72458 8.90588
H -6.58694 4.43675 7.91658
H -5.01352 3.51423 7.96695
H -5.98651 4.25567 5.57052
O -2.8645 -4.36203 5.38221
C -1.96512 -2.98267 0.97501
C -4.64684 -6.67604 2.10113
C -4.4471 -8.18554 1.97652
C -4.45215 -8.58913 3.43543
C -4.78361 -7.24249 4.09055
O -5.58709 -6.58882 3.14008
H -2.49421 -6.55325 2.2188
H -2.67987 -6.89133 4.59533
H -1.72743 -2.32226 1.83632
H -4.96036 -6.25056 1.12228
H -5.36318 -8.59393 1.49205
H -3.55493 -8.50748 1.39754
H -5.27575 -9.32031 3.59397
H -3.49457 -9.00439 3.81748
H -5.24125 -7.40757 5.09108
H -2.83298 -2.57254 0.41548
H -1.08711 -3.01698 0.29798
H -6.95176 3.73728 1.82068
H -6.29142 2.06934 1.6181
H -5.16892 3.49861 1.66879
H -4.95197 -2.3775 4.47402
H -6.72235 -2.73812 4.62304
H -4.54784 -3.47398 6.68893
H -6.22546 -4.03927 6.70877
$end

$opt
CONSTRAINT
tors           1           2           3           4     -42.374
tors           3           4           5           6     +89.499
tors           4           5           6           7    +179.724
tors           5           6           7           8    +104.902
tors           6           7           8           9    -171.485
tors           7           8           9          10    +168.465
tors           8           9          10          11    -167.803
tors           9          10          11          12    +147.780
tors          11          12          13          14     -83.352
ENDCONSTRAINT
$end

$rem
JOBTYPE                   OPT
METHOD                    B3LYP
DFT_D                     d3_op
BASIS                     STO-3G
GEOM_OPT_MAX_CYCLES       100
GEOM_OPT_TOL_GRADIENT     300
GEOM_OPT_TOL_DISPLACEMENT 1200
GEOM_OPT_TOL_ENERGY       100
SYMMETRY                  False
THRESH                    12
SCF_CONVERGENCE           8
MAX_SUB_FILE_NUM          128
MEM_STATIC                400
MEM_TOTAL                 4000
$end
--------------------------------------------------------------

   16   -1510.1452540372      2.19E-09 Convergence criterion met
 Total energy in the final basis set = -1510.14525404
   13   -1510.2151320193      5.42E-09 Convergence criterion met
 Total energy in the final basis set = -1510.21513202
   13   -1510.2530378553      9.83E-09 Convergence criterion met
 Total energy in the final basis set = -1510.25303786
   14   -1510.2706673653      4.03E-09 Convergence criterion met
 Total energy in the final basis set = -1510.27066737
   13   -1510.2777116071      6.76E-09 Convergence criterion met
 Total energy in the final basis set = -1510.27771161
   13   -1510.2808879037      3.52E-09 Convergence criterion met
 Total energy in the final basis set = -1510.28088790
   13   -1510.2822053842      2.34E-09 Convergence criterion met
 Total energy in the final basis set = -1510.28220538
   13   -1510.2826284341      2.23E-09 Convergence criterion met
   12   -1510.2834401058      5.04E-09 Convergence criterion met
 Total energy in the final basis set = -1510.28344011
   12   -1510.2835186647      4.74E-09 Convergence criterion met
 Total energy in the final basis set = -1510.28351866
   11   -1510.2835515239      6.81E-09 Convergence criterion met
 Total energy in the final basis set = -1510.28355152
   11   -1510.2835576394      4.81E-09 Convergence criterion met
 Total energy in the final basis set = -1510.28355764
   10   -1510.2835695857      5.52E-09 Convergence criterion met
 Total energy in the final basis set = -1510.28356959
   10   -1510.2835742598      8.20E-09 Convergence criterion met
 Total energy in the final basis set = -1510.28357426

             Standard Nuclear Orientation (Angstroms)
    I     Atom           X                Y                Z
 ----------------------------------------------------------------
    1      O      -1.9147236118     0.9789912201     0.0033290592
    2      C      -3.0222342813     1.4635638257    -0.3193195937
    3      C      -4.4318202594     0.7850008625    -0.2547574462
    4      C      -4.4484510233    -0.7254972788    -0.7531606640
    5      C      -3.0126208797    -1.2765547350    -1.0710028857
    6      O      -2.4490102375    -1.8566998187     0.1104992926
    7      C      -1.0942329279    -2.3861100185    -0.1826908839
    8      C      -0.0552175171    -1.3942644167     0.4410231871
    9      O       1.2932261264    -1.8066989811    -0.0267334052
   10      C       2.2464412187    -0.7905462793     0.2877008921
   11      C       3.5787373521    -1.0921406819    -0.4764748149
   12      C       4.3624466324     0.2261833316    -0.8866753079
   13      C       3.6168650818     1.5483272131    -0.4624280362
   14      O       2.7007140500     2.1154824097    -1.0981023863
   15      O      -3.1888624969     2.7992568025    -0.8009994103
   16      O       4.1925950927     2.0588674441     0.7436078235
   17      O       2.0003899388     0.2051071236     1.0057669142
   18      C       3.4209295705     3.2343995652     1.2033902093
   19      C       4.6549952621    -1.8021928991     0.4572433162
   20      C       5.7859349799    -2.4082176004    -0.4635848293
   21      C       6.5598670991    -1.1050302521    -0.8868104274
   22      C       5.7340308991     0.0049245143    -0.1220582033
   23      O       5.3246839523    -0.6701245966     1.1326035350
   24      H       3.3353701839    -1.7170028932    -1.3538628316
   25      H       4.5041176951     0.2619991431    -1.9818111877
   26      H       4.2258364319    -2.5028044324     1.1997678946
   27      H       6.4285150982    -3.0896947635     0.1166179333
   28      H       5.3733487567    -2.9589489458    -1.3239489440
   29      H       7.6030334235    -1.1217838449    -0.5330595834
   30      H       6.5586779999    -0.9451576058    -1.9768016142
   31      H       6.2874677795     0.9360198646     0.1037989646
   32      O      -2.4480214265    -1.2583263487    -2.1878442153
   33      C      -1.8737212147     3.4818499832    -0.8620739611
   34      C      -4.9795720113     0.6165526160     1.2337444041
   35      C      -6.5440498212     0.4202103209     1.1452771649
   36      C      -6.6289302345    -1.0444354634     0.5768742687
   37      C      -5.0994626208    -1.4384455169     0.5041469494
   38      O      -4.4923082927    -0.7158522139     1.6470195188
   39      H      -5.1220623577     1.4054154364    -0.8532119769
   40      H      -5.0609885656    -0.8303092233    -1.6661968645
   41      H      -1.1693993180     2.9490671470    -1.5329791605
   42      H      -4.6384114702     1.3946015602     1.9440805006
   43      H      -6.9943084264     0.4911030906     2.1483931334
   44      H      -7.0239223999     1.1630557506     0.4884252631
   45      H      -7.1691257844    -1.7154479688     1.2632757972
   46      H      -7.1126205773    -1.0870078285    -0.4120716430
   47      H      -4.8866599766    -2.5220098668     0.5762673998
   48      H      -1.4096125738     3.5610129724     0.1420225595
   49      H      -2.0743493356     4.4933405437    -1.2600091522
   50      H       3.9390888962     3.6075427528     2.1057332587
   51      H       2.3808983647     2.9485161517     1.4625004068
   52      H       3.3893346411     4.0323494531     0.4331557586
   53      H      -0.3089725424    -0.3588982679     0.1205079917
   54      H      -0.1141104436    -1.4279267859     1.5506569699
   55      H      -0.9533789057    -2.4452230012    -1.2835698577
   56      H      -1.0187981013    -3.3938225611     0.2736288159
 ----------------------------------------------------------------

    9   -1510.2835742822      5.52E-09 Convergence criterion met
 Total energy in the final basis set = -1510.28357428
 Final energy is   -1510.28357428220
 **  OPTIMIZATION CONVERGED  **

                    Orbital Energies (a.u.)
 --------------------------------------------------------------

 Alpha MOs
 -- Occupied --
-18.939 -18.930 -18.927 -18.921 -18.890 -18.883 -18.880 -18.871
-18.870 -18.855 -10.104 -10.097 -10.094 -10.087 -10.064 -10.063
-10.062 -10.061 -10.057 -10.056 -10.053 -10.051 -10.040 -10.039
-10.032 -10.029 -10.022 -10.021 -10.017 -10.015  -1.016  -1.009
 -1.006  -0.995  -0.972  -0.965  -0.939  -0.935  -0.929  -0.921
 -0.765  -0.757  -0.726  -0.719  -0.712  -0.704  -0.689  -0.664
 -0.649  -0.610  -0.594  -0.572  -0.548  -0.541  -0.539  -0.532
 -0.515  -0.505  -0.485  -0.470  -0.462  -0.451  -0.449  -0.437
 -0.435  -0.431  -0.428  -0.412  -0.409  -0.404  -0.400  -0.396
 -0.390  -0.380  -0.372  -0.363  -0.361  -0.351  -0.347  -0.345
 -0.339  -0.335  -0.332  -0.330  -0.327  -0.325  -0.319  -0.311
 -0.306  -0.305  -0.300  -0.298  -0.291  -0.281  -0.278  -0.273
 -0.271  -0.259  -0.247  -0.243  -0.238  -0.235  -0.228  -0.181
 -0.174  -0.169  -0.161  -0.159  -0.150  -0.148  -0.145  -0.140
 -0.135

          Ground-State Mulliken Net Atomic Charges

     Atom                 Charge (a.u.)
  ----------------------------------------
      1 O                    -0.213222
      2 C                     0.211066
      3 C                    -0.079798
      4 C                    -0.078853
      5 C                     0.210410
      6 O                    -0.164628
      7 C                    -0.051976
      8 C                    -0.054389
      9 O                    -0.175572
     10 C                     0.210684
     11 C                    -0.079516
     12 C                    -0.079986
     13 C                     0.212599
     14 O                    -0.224025
     15 O                    -0.167670
     16 O                    -0.166108
     17 O                    -0.209168
     18 C                    -0.126629
     19 C                     0.025668
     20 C                    -0.143669
     21 C                    -0.144600
     22 C                     0.025858
     23 O                    -0.186342
     24 H                     0.086037
     25 H                     0.082317
     26 H                     0.082403
     27 H                     0.077201
     28 H                     0.073477
     29 H                     0.076886
     30 H                     0.072617
     31 H                     0.088559
     32 O                    -0.218027
     33 C                    -0.129229
     34 C                     0.026249
     35 C                    -0.142889
     36 C                    -0.144922
     37 C                     0.026973
     38 O                    -0.183768
     39 H                     0.087300
     40 H                     0.085585
     41 H                     0.095825
     42 H                     0.083841
     43 H                     0.078552
     44 H                     0.074421
     45 H                     0.078285
     46 H                     0.073646
     47 H                     0.087181
     48 H                     0.090869
     49 H                     0.091401
     50 H                     0.087836
     51 H                     0.093572
     52 H                     0.084816
     53 H                     0.110762
     54 H                     0.085731
     55 H                     0.101088
     56 H                     0.085273
  ----------------------------------------
  Sum of atomic charges =    -0.000000

                    Cartesian Multipole Moments
 -----------------------------------------------------------------
    Charge (ESU x 10^10)
                -0.0000
    Dipole Moment (Debye)
         X      -1.6240      Y      -0.0384      Z      -0.9353
       Tot       1.8745
    Quadrupole Moments (Debye-Ang)
        XX    -137.6466     XY      -3.7158     YY    -148.4554
        XZ      -6.4390     YZ       2.6242     ZZ    -166.0535

 Total job time:  49.45s(wall), 2352.02s(cpu)
        *  Thank you very much for using Q-Chem.  Have a nice day.  *
