 Q-Chem 5.0, Q-Chem, Inc., Pleasanton, CA (2017)
 Q-Chem 5.0.1 for Intel X86 EM64T Linux

User input:
--------------------------------------------------------------
$molecule
0  1
O -1.9147236118 0.9789912201 0.0033290592
C -3.0222342813 1.4635638257 -0.3193195937
C -4.4318202594 0.7850008625 -0.2547574462
C -4.4484510233 -0.7254972788 -0.753160664
C -3.0126208797 -1.276554735 -1.0710028857
O -2.4490102375 -1.8566998187 0.1104992926
C -1.0942329279 -2.3861100185 -0.1826908839
C -0.0552175171 -1.3942644167 0.4410231871
O 1.2932261264 -1.8066989811 -0.0267334052
C 2.2464412187 -0.7905462793 0.2877008921
C 3.5787373521 -1.0921406819 -0.4764748149
C 4.3624466324 0.2261833316 -0.8866753079
C 3.6168650818 1.5483272131 -0.4624280362
O 2.70071405 2.1154824097 -1.0981023863
O -3.1888624969 2.7992568025 -0.8009994103
O 4.1925950927 2.0588674441 0.7436078235
O 2.0003899388 0.2051071236 1.0057669142
C 3.4209295705 3.2343995652 1.2033902093
C 4.6549952621 -1.8021928991 0.4572433162
C 5.7859349799 -2.4082176004 -0.4635848293
C 6.5598670991 -1.1050302521 -0.8868104274
C 5.7340308991 0.0049245143 -0.1220582033
O 5.3246839523 -0.6701245966 1.132603535
H 3.3353701839 -1.7170028932 -1.3538628316
H 4.5041176951 0.2619991431 -1.9818111877
H 4.2258364319 -2.5028044324 1.1997678946
H 6.4285150982 -3.0896947635 0.1166179333
H 5.3733487567 -2.9589489458 -1.323948944
H 7.6030334235 -1.1217838449 -0.5330595834
H 6.5586779999 -0.9451576058 -1.9768016142
H 6.2874677795 0.9360198646 0.1037989646
O -2.4480214265 -1.2583263487 -2.1878442153
C -1.8737212147 3.4818499832 -0.8620739611
C -4.9795720113 0.616552616 1.2337444041
C -6.5440498212 0.4202103209 1.1452771649
C -6.6289302345 -1.0444354634 0.5768742687
C -5.0994626208 -1.4384455169 0.5041469494
O -4.4923082927 -0.7158522139 1.6470195188
H -5.1220623577 1.4054154364 -0.8532119769
H -5.0609885656 -0.8303092233 -1.6661968645
H -1.169399318 2.949067147 -1.5329791605
H -4.6384114702 1.3946015602 1.9440805006
H -6.9943084264 0.4911030906 2.1483931334
H -7.0239223999 1.1630557506 0.4884252631
H -7.1691257844 -1.7154479688 1.2632757972
H -7.1126205773 -1.0870078285 -0.412071643
H -4.8866599766 -2.5220098668 0.5762673998
H -1.4096125738 3.5610129724 0.1420225595
H -2.0743493356 4.4933405437 -1.2600091522
H 3.9390888962 3.6075427528 2.1057332587
H 2.3808983647 2.9485161517 1.4625004068
H 3.3893346411 4.0323494531 0.4331557586
H -0.3089725424 -0.3588982679 0.1205079917
H -0.1141104436 -1.4279267859 1.5506569699
H -0.9533789057 -2.4452230012 -1.2835698577
H -1.0187981013 -3.3938225611 0.2736288159
$end

$rem
JOBTYPE                   OPT
METHOD                    B3LYP
DFT_D                     d3_op
BASIS                     STO-3G
GEOM_OPT_MAX_CYCLES       100
GEOM_OPT_TOL_GRADIENT     300
GEOM_OPT_TOL_DISPLACEMENT 1200
GEOM_OPT_TOL_ENERGY       100
SYMMETRY                  False
THRESH                    12
SCF_CONVERGENCE           8
MAX_SUB_FILE_NUM          128
MEM_STATIC                400
MEM_TOTAL                 4000
$end
--------------------------------------------------------------

   16   -1510.2835434757      6.66E-09 Convergence criterion met
 Total energy in the final basis set = -1510.28354348
   14   -1510.2845814181      4.97E-09 Convergence criterion met
 Total energy in the final basis set = -1510.28458142
   14   -1510.2853137798      3.99E-09 Convergence criterion met
 Total energy in the final basis set = -1510.28531378
   13   -1510.2860054357      7.35E-09 Convergence criterion met
 Total energy in the final basis set = -1510.28600544
   13   -1510.2868706893      7.60E-09 Convergence criterion met
 Total energy in the final basis set = -1510.28687069
   13   -1510.2876291076      8.50E-09 Convergence criterion met
 Total energy in the final basis set = -1510.28762911
   13   -1510.2869092529      8.74E-09 Convergence criterion met
 Total energy in the final basis set = -1510.28690925
   14   -1510.2876397581      1.82E-09 Convergence criterion met
   12   -1510.2980769470      6.90E-09 Convergence criterion met
 Total energy in the final basis set = -1510.29807695
   11   -1510.2980831359      9.26E-09 Convergence criterion met
 Total energy in the final basis set = -1510.29808314
   12   -1510.2980815127      2.45E-09 Convergence criterion met
 Total energy in the final basis set = -1510.29808151
    9   -1510.2980803241      8.96E-09 Convergence criterion met
 Total energy in the final basis set = -1510.29808032
   10   -1510.2980830280      7.34E-09 Convergence criterion met
 Total energy in the final basis set = -1510.29808303
    9   -1510.2980823366      4.91E-09 Convergence criterion met
 Total energy in the final basis set = -1510.29808234

             Standard Nuclear Orientation (Angstroms)
    I     Atom           X                Y                Z
 ----------------------------------------------------------------
    1      O      -0.6309557416     0.3065771206    -0.0389250633
    2      C      -1.7153001001     0.9151880636    -0.1930522020
    3      C      -2.9497350758     0.3448774445    -0.9736607813
    4      C      -3.0070689120    -1.2377302648    -0.9062719770
    5      C      -1.8971950643    -1.9113419704    -0.0160152045
    6      O      -2.1421433156    -1.5728109797     1.3606500032
    7      C      -1.2097384195    -2.2931496364     2.2555623447
    8      C       0.1147032638    -1.4953796338     2.5279537691
    9      O       0.9634101422    -1.5938458827     1.3193309951
   10      C       1.5960673121    -0.3498189278     1.0250575641
   11      C       2.2643162196    -0.4896239242    -0.3822171061
   12      C       2.8858984437     0.8642096020    -0.9162566465
   13      C       2.7243748239     2.0748110079     0.0740421702
   14      O       1.8407650811     2.9638762069     0.0202777779
   15      O      -1.9940116929     2.2125884792     0.3047669508
   16      O       3.8327656721     2.1089716968     0.9742906622
   17      O       1.5971972595     0.6505307101     1.7788036895
   18      C       3.6388430441     3.1922184758     1.9636066584
   19      C       3.5444068972    -1.4316948869    -0.3662739489
   20      C       3.8705193127    -1.8351666748    -1.8577676170
   21      C       4.4766613300    -0.4906712202    -2.4071645173
   22      C       4.3989491468     0.4291657948    -1.1235532779
   23      O       4.6454611534    -0.5107763184    -0.0057445888
   24      H       1.4918414199    -0.8813419575    -1.0682548511
   25      H       2.4097826383     1.1569166969    -1.8685584367
   26      H       3.4830350082    -2.2739484281     0.3499827845
   27      H       4.6086478928    -2.6527201576    -1.8833719372
   28      H       2.9697870586    -2.1534943721    -2.4063845124
   29      H       5.5231390764    -0.6186004063    -2.7264964263
   30      H       3.8982593378    -0.0761498597    -3.2482454099
   31      H       5.1255865402     1.2633857488    -1.0942292434
   32      O      -1.0307433110    -2.7253281194    -0.4015126887
   33      C      -0.8495517276     2.7135789723     1.1093575608
   34      C      -4.3511344644     0.7360650493    -0.3430184875
   35      C      -5.4724502332     0.4574718629    -1.4196059201
   36      C      -5.5314583188    -1.1150679116    -1.3939090036
   37      C      -4.4554579558    -1.4444748779    -0.2835083045
   38      O      -4.5808997091    -0.3191654204     0.6707558905
   39      H      -2.8788202747     0.6896694352    -2.0224181199
   40      H      -2.9257638494    -1.6823772041    -1.9137242335
   41      H       0.0979384821     2.7882605880     0.5194905868
   42      H      -4.3682740313     1.7395533322     0.1238259535
   43      H      -6.4287393352     0.9020509514    -1.1011047883
   44      H      -5.2090861686     0.8594880148    -2.4109245300
   45      H      -6.5252761718    -1.4787263014    -1.0879699818
   46      H      -5.2741108585    -1.5663253270    -2.3655106011
   47      H      -4.5974000250    -2.4110878022     0.2373301606
   48      H      -0.6658697958     2.0542893243     1.9817656940
   49      H      -1.1544192517     3.7153326293     1.4623678447
   50      H       4.5457025651     3.1955652546     2.5955600681
   51      H       2.7460958492     2.9965646649     2.5923193498
   52      H       3.5197228535     4.1798498983     1.4729630030
   53      H      -0.0925588811    -0.4288791500     2.7607081435
   54      H       0.6431127700    -1.9520896478     3.3943755930
   55      H      -0.9473687446    -3.2834029388     1.8244281279
   56      H      -1.7519787774    -2.4308278405     3.2138266220
 ----------------------------------------------------------------

   10   -1510.2980828745      8.86E-09 Convergence criterion met
 Total energy in the final basis set = -1510.29808287
 Final energy is   -1510.29808287445
 **  OPTIMIZATION CONVERGED  **

                    Orbital Energies (a.u.)
 --------------------------------------------------------------

 Alpha MOs
 -- Occupied --
-18.935 -18.929 -18.927 -18.922 -18.885 -18.882 -18.871 -18.871
-18.865 -18.861 -10.100 -10.099 -10.095 -10.092 -10.069 -10.067
-10.058 -10.056 -10.055 -10.054 -10.054 -10.039 -10.036 -10.033
-10.030 -10.029 -10.019 -10.018 -10.015 -10.014  -1.014  -1.007
 -1.001  -0.997  -0.967  -0.964  -0.935  -0.934  -0.927  -0.926
 -0.760  -0.757  -0.724  -0.718  -0.711  -0.702  -0.692  -0.652
 -0.650  -0.611  -0.593  -0.574  -0.542  -0.540  -0.535  -0.532
 -0.509  -0.508  -0.486  -0.473  -0.463  -0.457  -0.440  -0.433
 -0.430  -0.429  -0.420  -0.412  -0.407  -0.402  -0.402  -0.398
 -0.394  -0.376  -0.369  -0.363  -0.360  -0.353  -0.347  -0.341
 -0.337  -0.333  -0.329  -0.328  -0.322  -0.320  -0.318  -0.309
 -0.306  -0.301  -0.300  -0.295  -0.293  -0.282  -0.273  -0.272
 -0.270  -0.252  -0.245  -0.241  -0.238  -0.232  -0.229  -0.182
 -0.178  -0.162  -0.159  -0.154  -0.151  -0.143  -0.142  -0.140
 -0.138

          Ground-State Mulliken Net Atomic Charges

     Atom                 Charge (a.u.)
  ----------------------------------------
      1 O                    -0.222837
      2 C                     0.217804
      3 C                    -0.078799
      4 C                    -0.080100
      5 C                     0.212905
      6 O                    -0.173981
      7 C                    -0.048952
      8 C                    -0.049354
      9 O                    -0.169097
     10 C                     0.231189
     11 C                    -0.076078
     12 C                    -0.080932
     13 C                     0.223459
     14 O                    -0.229870
     15 O                    -0.168365
     16 O                    -0.164067
     17 O                    -0.219113
     18 C                    -0.126822
     19 C                     0.025296
     20 C                    -0.143288
     21 C                    -0.144472
     22 C                     0.026247
     23 O                    -0.188247
     24 H                     0.096941
     25 H                     0.082889
     26 H                     0.085819
     27 H                     0.076950
     28 H                     0.075955
     29 H                     0.076539
     30 H                     0.072561
     31 H                     0.085210
     32 O                    -0.214988
     33 C                    -0.143897
     34 C                     0.023693
     35 C                    -0.143812
     36 C                    -0.144435
     37 C                     0.026259
     38 O                    -0.187202
     39 H                     0.084171
     40 H                     0.082501
     41 H                     0.117297
     42 H                     0.091669
     43 H                     0.077676
     44 H                     0.072835
     45 H                     0.077304
     46 H                     0.073087
     47 H                     0.082314
     48 H                     0.083271
     49 H                     0.083694
     50 H                     0.089012
     51 H                     0.093098
     52 H                     0.086733
     53 H                     0.097453
     54 H                     0.082742
     55 H                     0.096528
     56 H                     0.087609
  ----------------------------------------
  Sum of atomic charges =    -0.000000

                    Cartesian Multipole Moments
 -----------------------------------------------------------------
    Charge (ESU x 10^10)
                -0.0000
    Dipole Moment (Debye)
         X      -1.0277      Y      -0.1736      Z      -1.1181
       Tot       1.5285
    Quadrupole Moments (Debye-Ang)
        XX    -157.7912     XY       4.1118     YY    -157.9964
        XZ       2.2158     YZ      -1.2578     ZZ    -149.3710

 Total job time:  165.66s(wall), 7900.51s(cpu)
        *  Thank you very much for using Q-Chem.  Have a nice day.  *
