 Q-Chem 5.0, Q-Chem, Inc., Pleasanton, CA (2017)
 Q-Chem 5.0.1 for Intel X86 EM64T Linux

User input:
--------------------------------------------------------------
$molecule
0  1
O -1.8653051124 0.6976044267 1.4634338908
C -2.3099987695 1.1975313007 0.4055088055
C -3.6934453606 0.9426142298 -0.2903437862
C -3.8424901811 -0.4394537441 -1.0672914126
C -2.5990210839 -1.3891577005 -1.018288421
O -2.3156713131 -1.6624656494 0.3522590281
C -1.1771770617 -2.5930378869 0.5063241311
C -0.0939208707 -1.9609656865 1.4583683496
O 1.2052632521 -1.9484975852 0.7388458327
C 1.9042427647 -0.7043165524 0.8087790959
C 3.1885303219 -0.9130044351 -0.0704377586
C 3.5887423035 0.2529954692 -1.0670675104
C 2.9097785513 1.6366110862 -0.7728748677
O 2.053031642 2.2079941612 -1.4892876261
O -1.6121673238 2.1525801142 -0.3927179994
O 3.4830531978 2.1892447361 0.4079639492
O 1.5034619031 0.3137819324 1.4153840238
C 2.9011563518 3.5130721008 0.7257907595
C 4.5490905478 -1.1102223229 0.7433068973
C 5.4949118142 -1.9999027434 -0.1547493298
C 5.8532913419 -0.9797415463 -1.2988432754
C 5.1497715566 0.3368612032 -0.7753273846
O 5.2081289979 0.2111834178 0.699434948
H 2.9847305174 -1.8300589197 -0.6517136905
H 3.3591544173 -0.0208082153 -2.1118919736
H 4.4232167328 -1.4501811323 1.7894985711
H 6.390961441 -2.2956594362 0.4142566368
H 4.9942787881 -2.9075415313 -0.5275116258
H 6.9411238624 -0.8291590104 -1.3832616188
H 5.4638604136 -1.2916142853 -2.2813124308
H 5.6229498858 1.2831649964 -1.1009621036
O -1.959161403 -1.8609988468 -1.9849926419
C -0.3053934086 2.4958011343 0.2136603636
C -4.8650044302 0.8064555783 0.7766853578
C -6.2397355896 1.044414853 0.0361965553
C -6.3930462132 -0.3071666105 -0.7559710155
C -5.087705283 -1.0742684167 -0.3040829431
O -4.8897672007 -0.6385428059 1.0944427114
H -3.8718399455 1.78428836 -0.982161036
H -4.0728984235 -0.2591923228 -2.1322610107
H 0.048641772 1.6889923498 0.8905181608
H -4.7139010215 1.3993055633 1.6995242236
H -7.0523645734 1.1760665245 0.768302243
H -6.2114310938 1.926154417 -0.6236284855
H -7.292221211 -0.8608096999 -0.4423309956
H -6.4312673535 -0.1604507929 -1.8472355575
H -5.146530654 -2.1784192081 -0.3623601805
H -0.3981503655 3.4401954057 0.7865046336
H 0.4308369255 2.6203594865 -0.6091305621
H 3.711544532 4.1232729111 1.1669532875
H 2.0841461973 3.3994710107 1.466013111
H 2.5028162327 4.001675589 -0.1852855788
H -0.4040007734 -0.9216060889 1.723725033
H 0.0188455592 -2.5592231855 2.386515346
H -0.737957839 -2.79424776 -0.4968000545
H -1.5643016813 -3.5432236932 0.9304831305
$end

$rem
JOBTYPE                   OPT
METHOD                    B3LYP
DFT_D                     d3_op
BASIS                     STO-3G
GEOM_OPT_MAX_CYCLES       100
GEOM_OPT_TOL_GRADIENT     300
GEOM_OPT_TOL_DISPLACEMENT 1200
GEOM_OPT_TOL_ENERGY       100
SYMMETRY                  False
THRESH                    12
SCF_CONVERGENCE           8
MAX_SUB_FILE_NUM          128
MEM_STATIC                400
MEM_TOTAL                 4000
$end
--------------------------------------------------------------

   16   -1510.2836576944      6.22E-09 Convergence criterion met
 Total energy in the final basis set = -1510.28365769
   14   -1510.2793414396      3.36E-09 Convergence criterion met
 Total energy in the final basis set = -1510.27934144
   14   -1510.2762076873      3.73E-09 Convergence criterion met
 Total energy in the final basis set = -1510.27620769
   15   -1510.2810815699      4.79E-09 Convergence criterion met
 Total energy in the final basis set = -1510.28108157
   14   -1510.2808553770      2.59E-09 Convergence criterion met
 Total energy in the final basis set = -1510.28085538
   13   -1510.2834651724      5.75E-09 Convergence criterion met
 Total energy in the final basis set = -1510.28346517
   13   -1510.2875647796      9.07E-09 Convergence criterion met
 Total energy in the final basis set = -1510.28756478
   13   -1510.2884435475      5.40E-09 Convergence criterion met
   12   -1510.2950170365      5.43E-09 Convergence criterion met
 Total energy in the final basis set = -1510.29501704
   11   -1510.2950408340      7.16E-09 Convergence criterion met
 Total energy in the final basis set = -1510.29504083
   10   -1510.2950393372      8.62E-09 Convergence criterion met
 Total energy in the final basis set = -1510.29503934
    9   -1510.2950383438      7.82E-09 Convergence criterion met
 Total energy in the final basis set = -1510.29503834
   11   -1510.2950430128      2.11E-09 Convergence criterion met
 Total energy in the final basis set = -1510.29504301
    9   -1510.2950406823      8.59E-09 Convergence criterion met
 Total energy in the final basis set = -1510.29504068

             Standard Nuclear Orientation (Angstroms)
    I     Atom           X                Y                Z
 ----------------------------------------------------------------
    1      O      -1.7085848882     1.0636325440     1.1056682797
    2      C      -2.1331241118     1.3723234916    -0.0322574445
    3      C      -3.3197345356     0.7105144535    -0.8133622387
    4      C      -3.2764431031    -0.8789965155    -0.8277099112
    5      C      -2.0161271982    -1.4663705018    -0.0954859934
    6      O      -2.3579474772    -1.8096458187     1.2486915214
    7      C      -1.1714263627    -2.2934480060     1.9966642977
    8      C      -0.0774440804    -1.1807551652     2.2156329212
    9      O       1.0620054746    -1.4837939690     1.3116498022
   10      C       1.5449548584    -0.3144986710     0.6662159950
   11      C       2.5370983788    -0.7469551169    -0.4650498063
   12      C       3.4158528364     0.4415552038    -1.0346610785
   13      C       3.1656020742     1.8258594166    -0.3345037051
   14      O       2.6051647592     2.8233978917    -0.8395339221
   15      O      -1.6052974908     2.4251350109    -0.8307435551
   16      O       3.7791682749     1.8130301202     0.9606130296
   17      O       1.1928355412     0.8525809641     0.9589505350
   18      C       3.4712301516     3.0745045170     1.6689965976
   19      C       3.6597583464    -1.7481940417     0.0435806657
   20      C       4.2976707477    -2.4489047193    -1.2198242364
   21      C       5.1641760534    -1.2747279742    -1.8090995244
   22      C       4.8762313318    -0.1250745448    -0.7627707614
   23      O       4.7339587513    -0.8495112064     0.5209583307
   24      H       1.9271820368    -1.2139623948    -1.2611251578
   25      H       3.2284633796     0.5839502948    -2.1134226458
   26      H       3.3241846673    -2.4278486357     0.8505338517
   27      H       4.9259189006    -3.2997728678    -0.9117334956
   28      H       3.5313400107    -2.8104621700    -1.9240416070
   29      H       6.2361653739    -1.5282344741    -1.8175834953
   30      H       4.8602458509    -0.9916737303    -2.8296411929
   31      H       5.6626820711     0.6500027864    -0.6841725730
   32      O      -0.8824130681    -1.6212239117    -0.6009014133
   33      C      -0.4581265277     3.0703827653    -0.1411299181
   34      C      -4.7133192220     0.9581383791    -0.0832357125
   35      C      -5.8697608746     0.6345422287    -1.1103629020
   36      C      -5.8245408822    -0.9384869103    -1.1305282465
   37      C      -4.6488431373    -1.2242026299    -0.1133646873
   38      O      -4.7947776510    -0.1482784187     0.8945018907
   39      H      -3.3227710362     1.1210872997    -1.8379908304
   40      H      -3.2516866601    -1.2474540817    -1.8690292711
   41      H       0.2419824163     2.3068812393     0.2682893280
   42      H      -4.7963571720     1.9362350490     0.4290974477
   43      H      -6.8351893780     1.0071100585    -0.7325342813
   44      H      -5.6817729560     1.0792952017    -2.1005886807
   45      H      -6.7662779389    -1.3747306616    -0.7613031542
   46      H      -5.6155401437    -1.3461372368    -2.1325746407
   47      H      -4.6743251315    -2.2171218574     0.3743093383
   48      H      -0.8130594046     3.7224929053     0.6825278733
   49      H       0.0540741289     3.6832489871    -0.9045278014
   50      H       4.0410615023     3.0422951945     2.6156612356
   51      H       2.3868112101     3.1505559899     1.8914007666
   52      H       3.7746004968     3.9631710955     1.0787290151
   53      H      -0.5089383622    -0.1769259192     1.9821012919
   54      H       0.2835318538    -1.1992760308     3.2658917304
   55      H      -0.7022689250    -3.1609288261     1.4810004287
   56      H      -1.5784910412    -2.6270604514     2.9717872309
 ----------------------------------------------------------------

    9   -1510.2950412095      2.69E-09 Convergence criterion met
 Total energy in the final basis set = -1510.29504121
 Final energy is   -1510.29504120954
 **  OPTIMIZATION CONVERGED  **

                    Orbital Energies (a.u.)
 --------------------------------------------------------------

 Alpha MOs
 -- Occupied --
-18.936 -18.934 -18.930 -18.920 -18.887 -18.884 -18.882 -18.871
-18.870 -18.857 -10.106 -10.099 -10.097 -10.088 -10.071 -10.060
-10.059 -10.058 -10.056 -10.056 -10.052 -10.037 -10.037 -10.035
-10.035 -10.030 -10.020 -10.019 -10.017 -10.016  -1.018  -1.009
 -1.005  -0.996  -0.969  -0.966  -0.939  -0.935  -0.931  -0.922
 -0.762  -0.759  -0.725  -0.719  -0.712  -0.704  -0.691  -0.650
 -0.650  -0.614  -0.593  -0.576  -0.545  -0.541  -0.536  -0.534
 -0.513  -0.509  -0.482  -0.473  -0.461  -0.453  -0.441  -0.439
 -0.432  -0.431  -0.427  -0.415  -0.405  -0.400  -0.399  -0.397
 -0.393  -0.375  -0.373  -0.365  -0.361  -0.355  -0.350  -0.344
 -0.336  -0.332  -0.331  -0.328  -0.326  -0.321  -0.316  -0.310
 -0.307  -0.304  -0.301  -0.297  -0.295  -0.282  -0.279  -0.275
 -0.271  -0.257  -0.248  -0.242  -0.235  -0.233  -0.230  -0.188
 -0.173  -0.165  -0.162  -0.160  -0.153  -0.145  -0.142  -0.141
 -0.138

          Ground-State Mulliken Net Atomic Charges

     Atom                 Charge (a.u.)
  ----------------------------------------
      1 O                    -0.219359
      2 C                     0.210723
      3 C                    -0.079660
      4 C                    -0.079536
      5 C                     0.208565
      6 O                    -0.164376
      7 C                    -0.047392
      8 C                    -0.062834
      9 O                    -0.168453
     10 C                     0.228286
     11 C                    -0.078016
     12 C                    -0.081709
     13 C                     0.212114
     14 O                    -0.222874
     15 O                    -0.168452
     16 O                    -0.169236
     17 O                    -0.215778
     18 C                    -0.128079
     19 C                     0.025104
     20 C                    -0.143610
     21 C                    -0.144353
     22 C                     0.026528
     23 O                    -0.187315
     24 H                     0.094107
     25 H                     0.083124
     26 H                     0.088776
     27 H                     0.077080
     28 H                     0.074220
     29 H                     0.076881
     30 H                     0.073277
     31 H                     0.083976
     32 O                    -0.222499
     33 C                    -0.144788
     34 C                     0.025978
     35 C                    -0.143696
     36 C                    -0.144321
     37 C                     0.026060
     38 O                    -0.185196
     39 H                     0.087177
     40 H                     0.083665
     41 H                     0.116131
     42 H                     0.083349
     43 H                     0.077947
     44 H                     0.074159
     45 H                     0.077646
     46 H                     0.072925
     47 H                     0.087507
     48 H                     0.077948
     49 H                     0.092771
     50 H                     0.087975
     51 H                     0.089980
     52 H                     0.086439
     53 H                     0.124791
     54 H                     0.083308
     55 H                     0.091811
     56 H                     0.091206
  ----------------------------------------
  Sum of atomic charges =    -0.000000

                    Cartesian Multipole Moments
 -----------------------------------------------------------------
    Charge (ESU x 10^10)
                -0.0000
    Dipole Moment (Debye)
         X      -0.9320      Y      -1.3438      Z      -1.3991
       Tot       2.1521
    Quadrupole Moments (Debye-Ang)
        XX    -153.2817     XY       0.4439     YY    -154.5568
        XZ       2.7820     YZ       2.8509     ZZ    -156.5215

 Total job time:  142.93s(wall), 6820.08s(cpu)
        *  Thank you very much for using Q-Chem.  Have a nice day.  *
