 Q-Chem 5.0, Q-Chem, Inc., Pleasanton, CA (2017)
 Q-Chem 5.0.1 for Intel X86 EM64T Linux

User input:
--------------------------------------------------------------
$molecule
0  1
O -3.94934 -3.66094 2.70899
C -3.26408 -4.56952 2.26188
C -3.36658 -6.02376 2.66595
C -2.77152 -6.41828 4.02761
C -2.29931 -5.28492 4.91112
O -3.33295 -4.42671 5.15707
C -2.97356 -3.34634 6.02477
C -3.3181 -2.01142 5.37255
O -2.15156 -1.17495 5.32388
C -1.91195 -0.57731 4.13033
C -0.63882 0.23494 4.12411
C 0.23955 0.05215 2.87778
C -0.42795 -0.61258 1.69065
O -0.15506 -1.72099 1.253
O -2.54489 -4.34376 1.13524
O -1.35192 0.1427 1.0282
O -2.74502 -0.50706 3.23503
C -1.83326 -0.06831 -0.24925
C -0.85134 1.7652 4.07712
C 0.36818 2.4643 4.67824
C 1.4116 2.18095 3.6124
C 0.53431 1.52368 2.53873
O -0.72968 2.11773 2.72038
H -0.08379 0.0046 5.0636
H 1.1394 -0.55564 3.12011
H -1.78128 2.09601 4.58892
H 0.14149 3.55493 4.67288
H 0.65026 2.15993 5.70906
H 1.82681 3.15147 3.26151
H 2.2341 1.50049 3.92274
H 0.98769 1.63446 1.529
O -1.15855 -5.19375 5.34835
C -2.70968 -3.23172 0.34571
C -4.82195 -6.49462 2.8458
C -4.90433 -8.01374 2.69127
C -4.25512 -8.46636 3.98428
C -3.99591 -7.11386 4.6555
O -5.07297 -6.31739 4.21887
H -2.88514 -6.61824 1.85537
H -1.91361 -7.11915 3.91657
H -2.57952 -2.32277 0.95947
H -5.52872 -5.99546 2.14713
H -5.98126 -8.2955 2.71968
H -4.44426 -8.41389 1.76222
H -5.00523 -9.04247 4.57069
H -3.32603 -9.06494 3.8667
H -3.8907 -7.23693 5.75602
H -3.7315 -3.22504 -0.08996
H -1.96813 -3.25561 -0.47831
H -1.6346 0.836 -0.86011
H -2.93008 -0.23015 -0.20896
H -1.34402 -0.92928 -0.74994
H -3.91251 -2.11131 4.44821
H -4.01423 -1.49271 6.0677
H -1.9376 -3.33052 6.4323
H -3.61853 -3.46 6.92372
$end

$opt
CONSTRAINT
tors           1           2           3           4     -75.574
tors           3           4           5           6     +57.999
tors           4           5           6           7    +178.124
tors           5           6           7           8    +126.088
tors           6           7           8           9    -124.940
tors           7           8           9          10    +132.703
tors           8           9          10          11    -177.290
tors           9          10          11          12    +135.792
tors          11          12          13          14    -111.887
ENDCONSTRAINT
$end

$rem
JOBTYPE                   OPT
METHOD                    B3LYP
DFT_D                     d3_op
BASIS                     STO-3G
GEOM_OPT_MAX_CYCLES       100
GEOM_OPT_TOL_GRADIENT     300
GEOM_OPT_TOL_DISPLACEMENT 1200
GEOM_OPT_TOL_ENERGY       100
SYMMETRY                  False
THRESH                    12
SCF_CONVERGENCE           8
MAX_SUB_FILE_NUM          128
MEM_STATIC                400
MEM_TOTAL                 4000
$end
--------------------------------------------------------------

   15   -1510.1446221284      6.93E-09 Convergence criterion met
 Total energy in the final basis set = -1510.14462213
   14   -1510.2114052935      3.94E-09 Convergence criterion met
 Total energy in the final basis set = -1510.21140529
   14   -1510.2401771322      8.02E-09 Convergence criterion met
 Total energy in the final basis set = -1510.24017713
   15   -1510.2631638132      2.08E-09 Convergence criterion met
 Total energy in the final basis set = -1510.26316381
   13   -1510.2711305905      4.04E-09 Convergence criterion met
 Total energy in the final basis set = -1510.27113059
    2   -1510.2711305905      5.27E-09 Convergence criterion met
 Total energy in the final basis set = -1510.27113059
   13   -1510.2765891780      3.74E-09 Convergence criterion met
 Total energy in the final basis set = -1510.27658918
   13   -1510.2794064771      4.67E-09 Convergence criterion met
   11   -1510.2836564899      1.63E-09 Convergence criterion met
 Total energy in the final basis set = -1510.28365649
    9   -1510.2836616238      3.62E-09 Convergence criterion met
 Total energy in the final basis set = -1510.28366162
    9   -1510.2836658836      4.81E-09 Convergence criterion met
 Total energy in the final basis set = -1510.28366588
    9   -1510.2836670795      8.43E-09 Convergence criterion met
 Total energy in the final basis set = -1510.28366708
    9   -1510.2836696731      5.87E-09 Convergence criterion met
 Total energy in the final basis set = -1510.28366967
    9   -1510.2836706750      3.30E-09 Convergence criterion met
 Total energy in the final basis set = -1510.28367067

             Standard Nuclear Orientation (Angstroms)
    I     Atom           X                Y                Z
 ----------------------------------------------------------------
    1      O      -1.8653051124     0.6976044267     1.4634338908
    2      C      -2.3099987695     1.1975313007     0.4055088055
    3      C      -3.6934453606     0.9426142298    -0.2903437862
    4      C      -3.8424901811    -0.4394537441    -1.0672914126
    5      C      -2.5990210839    -1.3891577005    -1.0182884210
    6      O      -2.3156713131    -1.6624656494     0.3522590281
    7      C      -1.1771770617    -2.5930378869     0.5063241311
    8      C      -0.0939208707    -1.9609656865     1.4583683496
    9      O       1.2052632521    -1.9484975852     0.7388458327
   10      C       1.9042427647    -0.7043165524     0.8087790959
   11      C       3.1885303219    -0.9130044351    -0.0704377586
   12      C       3.5887423035     0.2529954692    -1.0670675104
   13      C       2.9097785513     1.6366110862    -0.7728748677
   14      O       2.0530316420     2.2079941612    -1.4892876261
   15      O      -1.6121673238     2.1525801142    -0.3927179994
   16      O       3.4830531978     2.1892447361     0.4079639492
   17      O       1.5034619031     0.3137819324     1.4153840238
   18      C       2.9011563518     3.5130721008     0.7257907595
   19      C       4.5490905478    -1.1102223229     0.7433068973
   20      C       5.4949118142    -1.9999027434    -0.1547493298
   21      C       5.8532913419    -0.9797415463    -1.2988432754
   22      C       5.1497715566     0.3368612032    -0.7753273846
   23      O       5.2081289979     0.2111834178     0.6994349480
   24      H       2.9847305174    -1.8300589197    -0.6517136905
   25      H       3.3591544173    -0.0208082153    -2.1118919736
   26      H       4.4232167328    -1.4501811323     1.7894985711
   27      H       6.3909614410    -2.2956594362     0.4142566368
   28      H       4.9942787881    -2.9075415313    -0.5275116258
   29      H       6.9411238624    -0.8291590104    -1.3832616188
   30      H       5.4638604136    -1.2916142853    -2.2813124308
   31      H       5.6229498858     1.2831649964    -1.1009621036
   32      O      -1.9591614030    -1.8609988468    -1.9849926419
   33      C      -0.3053934086     2.4958011343     0.2136603636
   34      C      -4.8650044302     0.8064555783     0.7766853578
   35      C      -6.2397355896     1.0444148530     0.0361965553
   36      C      -6.3930462132    -0.3071666105    -0.7559710155
   37      C      -5.0877052830    -1.0742684167    -0.3040829431
   38      O      -4.8897672007    -0.6385428059     1.0944427114
   39      H      -3.8718399455     1.7842883600    -0.9821610360
   40      H      -4.0728984235    -0.2591923228    -2.1322610107
   41      H       0.0486417720     1.6889923498     0.8905181608
   42      H      -4.7139010215     1.3993055633     1.6995242236
   43      H      -7.0523645734     1.1760665245     0.7683022430
   44      H      -6.2114310938     1.9261544170    -0.6236284855
   45      H      -7.2922212110    -0.8608096999    -0.4423309956
   46      H      -6.4312673535    -0.1604507929    -1.8472355575
   47      H      -5.1465306540    -2.1784192081    -0.3623601805
   48      H      -0.3981503655     3.4401954057     0.7865046336
   49      H       0.4308369255     2.6203594865    -0.6091305621
   50      H       3.7115445320     4.1232729111     1.1669532875
   51      H       2.0841461973     3.3994710107     1.4660131110
   52      H       2.5028162327     4.0016755890    -0.1852855788
   53      H      -0.4040007734    -0.9216060889     1.7237250330
   54      H       0.0188455592    -2.5592231855     2.3865153460
   55      H      -0.7379578390    -2.7942477600    -0.4968000545
   56      H      -1.5643016813    -3.5432236932     0.9304831305
 ----------------------------------------------------------------

    9   -1510.2836708890      2.41E-09 Convergence criterion met
 Total energy in the final basis set = -1510.28367089
 Final energy is   -1510.28367088904
 **  OPTIMIZATION CONVERGED  **

                    Orbital Energies (a.u.)
 --------------------------------------------------------------

 Alpha MOs
 -- Occupied --
-18.939 -18.933 -18.931 -18.921 -18.891 -18.887 -18.882 -18.877
-18.873 -18.865 -10.105 -10.103 -10.097 -10.090 -10.066 -10.064
-10.063 -10.062 -10.059 -10.059 -10.056 -10.041 -10.038 -10.036
-10.032 -10.028 -10.022 -10.021 -10.019 -10.018  -1.015  -1.012
 -1.009  -0.999  -0.972  -0.968  -0.941  -0.937  -0.934  -0.923
 -0.765  -0.760  -0.727  -0.722  -0.713  -0.705  -0.693  -0.661
 -0.646  -0.616  -0.595  -0.577  -0.547  -0.542  -0.539  -0.535
 -0.517  -0.511  -0.486  -0.477  -0.458  -0.451  -0.442  -0.439
 -0.434  -0.432  -0.429  -0.421  -0.409  -0.405  -0.401  -0.398
 -0.395  -0.374  -0.373  -0.365  -0.359  -0.358  -0.348  -0.345
 -0.342  -0.338  -0.335  -0.329  -0.328  -0.325  -0.323  -0.313
 -0.309  -0.305  -0.304  -0.303  -0.294  -0.285  -0.280  -0.276
 -0.270  -0.254  -0.248  -0.238  -0.236  -0.233  -0.232  -0.186
 -0.176  -0.167  -0.165  -0.159  -0.154  -0.152  -0.145  -0.142
 -0.141

          Ground-State Mulliken Net Atomic Charges

     Atom                 Charge (a.u.)
  ----------------------------------------
      1 O                    -0.213691
      2 C                     0.207700
      3 C                    -0.078908
      4 C                    -0.078181
      5 C                     0.206747
      6 O                    -0.165045
      7 C                    -0.053658
      8 C                    -0.058682
      9 O                    -0.175782
     10 C                     0.211198
     11 C                    -0.080049
     12 C                    -0.078553
     13 C                     0.215807
     14 O                    -0.218885
     15 O                    -0.172901
     16 O                    -0.156101
     17 O                    -0.211032
     18 C                    -0.130944
     19 C                     0.026553
     20 C                    -0.142143
     21 C                    -0.145258
     22 C                     0.027522
     23 O                    -0.182149
     24 H                     0.088454
     25 H                     0.087308
     26 H                     0.084417
     27 H                     0.078311
     28 H                     0.074928
     29 H                     0.078431
     30 H                     0.074374
     31 H                     0.083919
     32 O                    -0.215998
     33 C                    -0.156074
     34 C                     0.026640
     35 C                    -0.144007
     36 C                    -0.144040
     37 C                     0.027010
     38 O                    -0.183264
     39 H                     0.086674
     40 H                     0.084986
     41 H                     0.102636
     42 H                     0.084844
     43 H                     0.077536
     44 H                     0.073889
     45 H                     0.077560
     46 H                     0.073865
     47 H                     0.082076
     48 H                     0.071479
     49 H                     0.103458
     50 H                     0.090144
     51 H                     0.092320
     52 H                     0.095048
     53 H                     0.116965
     54 H                     0.085085
     55 H                     0.102722
     56 H                     0.084739
  ----------------------------------------
  Sum of atomic charges =     0.000000

                    Cartesian Multipole Moments
 -----------------------------------------------------------------
    Charge (ESU x 10^10)
                -0.0000
    Dipole Moment (Debye)
         X       0.4280      Y      -0.4935      Z      -0.9840
       Tot       1.1811
    Quadrupole Moments (Debye-Ang)
        XX    -143.2973     XY      -5.2786     YY    -150.8724
        XZ      -0.5258     YZ      -0.1656     ZZ    -166.0842

 Total job time:  75.27s(wall), 3587.67s(cpu)
        *  Thank you very much for using Q-Chem.  Have a nice day.  *
