 Q-Chem 5.0, Q-Chem, Inc., Pleasanton, CA (2017)
 Q-Chem 5.0.1 for Intel X86 EM64T Linux

User input:
--------------------------------------------------------------
$molecule
0  1
O -1.9314874321 1.0066615729 0.7912329266
C -3.0208327824 1.5323838515 0.4682622291
C -4.250622914 0.8308789945 -0.1968409253
C -3.8474990048 -0.3948861558 -1.1224443881
C -2.3018389996 -0.6795558385 -1.1106111107
O -1.9921749411 -1.6777275708 -0.1340051702
C -0.542652833 -1.9876776488 -0.1835457176
C 0.1577022016 -1.3206649007 1.0498947869
O 1.6072693582 -1.6126674327 0.9534231276
C 2.368625218 -0.4143224976 1.1707590496
C 3.8811820391 -0.7812464081 0.9856225577
C 4.365350988 -0.6586424896 -0.5254840832
C 3.227022137 -0.4713657136 -1.5875168467
O 3.0439509349 -1.1775092495 -2.6049521517
O -3.3458774183 2.9029073276 0.7013894748
O 2.4367390178 0.6646744345 -1.239454225
O 1.879924599 0.6790651035 1.524768359
C 1.3722331418 0.904364541 -2.2458523305
C 4.7867041494 0.3249884278 1.6688069465
C 6.2860663578 -0.1727999935 1.6882404954
C 6.7114123676 0.0672177024 0.1917648868
C 5.3522859371 0.5871156659 -0.4233393608
O 4.7842178756 1.4135115625 0.6632951471
H 4.0575771014 -1.7975125909 1.3796934499
H 4.9195770113 -1.5662116244 -0.8232690928
H 4.3954226932 0.6966378292 2.6354471516
H 6.8868735838 0.4347748973 2.3833362495
H 6.3647986997 -1.2306769821 1.9862482951
H 7.4893312686 0.8436324143 0.1133928728
H 7.0725614413 -0.8482319042 -0.3033982475
H 5.4478428141 1.1798193527 -1.3536366356
O -1.4684839144 -0.170603381 -1.8976976006
C -2.2155344913 3.5816803097 1.3804272514
C -5.1920891621 0.1082504344 0.8663046456
C -6.5851808046 -0.1570998787 0.1723262065
C -6.2172417314 -1.3425209139 -0.7957656496
C -4.6897382869 -1.5594690958 -0.4522084178
O -4.6071637237 -1.2434770322 0.9938785019
H -4.8134858909 1.5950248909 -0.7616172928
H -4.1431692848 -0.2088273656 -2.1701327208
H -1.2711389015 3.4695953966 0.8102679281
H -5.2423112888 0.6078491552 1.8532478852
H -7.3329373561 -0.4640221807 0.9211036052
H -6.9619983562 0.7299962592 -0.3611442221
H -6.7965577706 -2.2498997411 -0.5624042524
H -6.3717057458 -1.0889969046 -1.8568064206
H -4.2996576391 -2.5764572959 -0.6475717204
H -2.0586263378 3.1804506271 2.4025434545
H -2.4931893187 4.6499083939 1.440409331
H 1.2533908256 2.000918136 -2.3257231815
H 0.4026320751 0.4515662762 -1.9329343481
H 1.6657734787 0.4788484453 -3.2254535646
H -0.0229387084 -0.2236693221 1.0563406453
H -0.2428046364 -1.7521557641 1.9918746196
H -0.1062228015 -1.6039375709 -1.1287618884
H -0.4408343779 -3.0914107155 -0.1401967782
$end

$rem
JOBTYPE                   OPT
METHOD                    B3LYP
DFT_D                     d3_op
BASIS                     STO-3G
GEOM_OPT_MAX_CYCLES       100
GEOM_OPT_TOL_GRADIENT     300
GEOM_OPT_TOL_DISPLACEMENT 1200
GEOM_OPT_TOL_ENERGY       100
SYMMETRY                  False
THRESH                    12
SCF_CONVERGENCE           8
MAX_SUB_FILE_NUM          128
MEM_STATIC                400
MEM_TOTAL                 4000
$end
--------------------------------------------------------------

   16   -1510.2894974774      5.86E-09 Convergence criterion met
 Total energy in the final basis set = -1510.28949748
   15   -1510.2654847795      3.57E-09 Convergence criterion met
 Total energy in the final basis set = -1510.26548478
   14   -1510.2906170147      3.41E-09 Convergence criterion met
 Total energy in the final basis set = -1510.29061701
   14   -1510.2898235530      1.80E-09 Convergence criterion met
 Total energy in the final basis set = -1510.28982355
   13   -1510.2914347386      6.31E-09 Convergence criterion met
 Total energy in the final basis set = -1510.29143474
   13   -1510.2924474795      7.53E-09 Convergence criterion met
 Total energy in the final basis set = -1510.29244748
   13   -1510.2930929556      5.60E-09 Convergence criterion met
 Total energy in the final basis set = -1510.29309296
   14   -1510.2932275968      3.78E-09 Convergence criterion met
   10   -1510.2980251686      7.93E-09 Convergence criterion met
 Total energy in the final basis set = -1510.29802517
   10   -1510.2980260475      9.68E-09 Convergence criterion met
 Total energy in the final basis set = -1510.29802605
   10   -1510.2980264562      7.88E-09 Convergence criterion met
 Total energy in the final basis set = -1510.29802646
   11   -1510.2980197783      6.82E-09 Convergence criterion met
 Total energy in the final basis set = -1510.29801978
   12   -1510.2980093157      1.99E-09 Convergence criterion met
 Total energy in the final basis set = -1510.29800932
   12   -1510.2979980293      1.93E-09 Convergence criterion met
 Total energy in the final basis set = -1510.29799803

             Standard Nuclear Orientation (Angstroms)
    I     Atom           X                Y                Z
 ----------------------------------------------------------------
    1      O      -1.2080058902     0.6827807389    -0.6167144545
    2      C      -2.3179101033     1.2157182841    -0.3706583168
    3      C      -3.7180335180     0.5888997647    -0.6966059489
    4      C      -3.6751017864    -0.9940427152    -0.8411812418
    5      C      -2.2634867587    -1.6266148806    -0.5575147148
    6      O      -2.0700888790    -1.6983670346     0.8592445780
    7      C      -0.6608263147    -2.0396909323     1.1852099493
    8      C       0.0313359169    -0.6934901060     1.5880735093
    9      O       1.5038260704    -0.8309665424     1.4959019857
   10      C       2.0882734834     0.4436672080     1.2079291718
   11      C       3.6361373502     0.2294265366     1.0830019134
   12      C       4.0335418717    -0.8144391065    -0.0431205357
   13      C       2.8157689406    -1.3698688720    -0.8636731144
   14      O       2.5523870809    -2.5668180752    -1.1111694452
   15      O      -2.4725391297     2.4844203863     0.2441436706
   16      O       2.0702918877    -0.2543237621    -1.3536085766
   17      O       1.4540146172     1.5185080671     1.1178172066
   18      C       1.0095217053    -0.6976864729    -2.2894675926
   19      C       4.3738480859     1.5342369398     0.5751166288
   20      C       5.9147379941     1.3814827228     0.8829879864
   21      C       6.3371795520     0.3309687392    -0.2112764094
   22      C       4.9640940361     0.0969419347    -0.9586236071
   23      O       4.3052831647     1.4204051240    -0.9006290225
   24      H       4.0150230742    -0.0989923836     2.0685974809
   25      H       4.5831355997    -1.6756071922     0.3750011277
   26      H       3.9010674093     2.4773530699     0.9116737795
   27      H       6.4342780493     2.3426107482     0.7411542732
   28      H       6.1020769539     1.0265167921     1.9088965076
   29      H       7.0858804967     0.7473517171    -0.9038029053
   30      H       6.7363381736    -0.5994796224     0.2231462615
   31      H       5.0523285730    -0.2468384454    -2.0075439370
   32      O      -1.4690490940    -2.0927131325    -1.4078335752
   33      C      -1.1495251342     3.1196404185     0.4936271810
   34      C      -4.7789949251     0.7645259940     0.4720887674
   35      C      -6.2173577851     0.5059191228    -0.1252821140
   36      C      -6.1898796169    -1.0565661821    -0.3095161151
   37      C      -4.7539426526    -1.4081880726     0.2495492372
   38      O      -4.5460850022    -0.4177866094     1.3313546707
   39      H      -4.0829610943     1.0566767120    -1.6305246326
   40      H      -3.9768161125    -1.3019433129    -1.8578880595
   41      H      -0.8236130455     3.6734011581    -0.4102381172
   42      H      -4.6587278810     1.7013569139     1.0499728275
   43      H      -6.9915207780     0.8135903667     0.5956487694
   44      H      -6.3813916627     1.0450285621    -1.0721452053
   45      H      -6.9690225976    -1.5490443893     0.2935140923
   46      H      -6.3103803245    -1.3640513921    -1.3606164085
   47      H      -4.6385045375    -2.4376096908     0.6397078968
   48      H      -0.3569457212     2.3851011666     0.7649259364
   49      H      -1.3081391131     3.8362867987     1.3201458108
   50      H       0.5732079166     0.2308677993    -2.6997485571
   51      H       0.2032415405    -1.2868643420    -1.7931712181
   52      H       1.4374023969    -1.3017899597    -3.1149471477
   53      H      -0.3144556494     0.0827254824     0.8664620223
   54      H      -0.2628539709    -0.3950297966     2.6171988239
   55      H      -0.1616937271    -2.4855638043     0.2975614142
   56      H      -0.6763448815    -2.7713056967     2.0175725646
 ----------------------------------------------------------------

    9   -1510.2979988818      9.68E-09 Convergence criterion met
 Total energy in the final basis set = -1510.29799888
 Final energy is   -1510.29799888184
 **  OPTIMIZATION CONVERGED  **

                    Orbital Energies (a.u.)
 --------------------------------------------------------------

 Alpha MOs
 -- Occupied --
-18.948 -18.929 -18.928 -18.918 -18.890 -18.888 -18.883 -18.875
-18.875 -18.859 -10.112 -10.102 -10.099 -10.085 -10.063 -10.062
-10.062 -10.055 -10.055 -10.054 -10.052 -10.045 -10.040 -10.033
-10.033 -10.029 -10.023 -10.022 -10.017 -10.016  -1.023  -1.010
 -1.007  -0.994  -0.972  -0.964  -0.946  -0.937  -0.932  -0.920
 -0.766  -0.758  -0.727  -0.720  -0.713  -0.701  -0.691  -0.661
 -0.641  -0.611  -0.595  -0.576  -0.548  -0.541  -0.539  -0.532
 -0.516  -0.504  -0.485  -0.471  -0.466  -0.460  -0.449  -0.438
 -0.436  -0.431  -0.425  -0.417  -0.407  -0.401  -0.397  -0.395
 -0.393  -0.381  -0.371  -0.364  -0.356  -0.354  -0.352  -0.344
 -0.342  -0.335  -0.333  -0.326  -0.325  -0.323  -0.317  -0.315
 -0.308  -0.304  -0.301  -0.299  -0.288  -0.285  -0.283  -0.281
 -0.266  -0.264  -0.245  -0.240  -0.236  -0.234  -0.229  -0.189
 -0.177  -0.167  -0.165  -0.160  -0.153  -0.152  -0.146  -0.138
 -0.137

          Ground-State Mulliken Net Atomic Charges

     Atom                 Charge (a.u.)
  ----------------------------------------
      1 O                    -0.214807
      2 C                     0.218967
      3 C                    -0.077880
      4 C                    -0.079679
      5 C                     0.218355
      6 O                    -0.171891
      7 C                    -0.053237
      8 C                    -0.064184
      9 O                    -0.175621
     10 C                     0.222611
     11 C                    -0.077962
     12 C                    -0.078439
     13 C                     0.208516
     14 O                    -0.216912
     15 O                    -0.165691
     16 O                    -0.170909
     17 O                    -0.216795
     18 C                    -0.138349
     19 C                     0.024684
     20 C                    -0.143960
     21 C                    -0.144186
     22 C                     0.026015
     23 O                    -0.185626
     24 H                     0.083650
     25 H                     0.083401
     26 H                     0.087910
     27 H                     0.077017
     28 H                     0.072274
     29 H                     0.077128
     30 H                     0.073366
     31 H                     0.082102
     32 O                    -0.216212
     33 C                    -0.140489
     34 C                     0.024133
     35 C                    -0.143585
     36 C                    -0.144484
     37 C                     0.026704
     38 O                    -0.186591
     39 H                     0.087107
     40 H                     0.085092
     41 H                     0.085792
     42 H                     0.091094
     43 H                     0.078788
     44 H                     0.073588
     45 H                     0.078498
     46 H                     0.073930
     47 H                     0.086388
     48 H                     0.119050
     49 H                     0.088679
     50 H                     0.085999
     51 H                     0.107620
     52 H                     0.079495
     53 H                     0.109818
     54 H                     0.078065
     55 H                     0.104670
     56 H                     0.086984
  ----------------------------------------
  Sum of atomic charges =     0.000000

                    Cartesian Multipole Moments
 -----------------------------------------------------------------
    Charge (ESU x 10^10)
                 0.0000
    Dipole Moment (Debye)
         X      -1.2599      Y       1.1976      Z       0.6744
       Tot       1.8645
    Quadrupole Moments (Debye-Ang)
        XX    -136.7578     XY       0.1524     YY    -163.6446
        XZ      11.0817     YZ      -1.5337     ZZ    -158.5773

 Total job time:  148.12s(wall), 7065.45s(cpu)
        *  Thank you very much for using Q-Chem.  Have a nice day.  *
