 Q-Chem 5.0, Q-Chem, Inc., Pleasanton, CA (2017)
 Q-Chem 5.0.1 for Intel X86 EM64T Linux

User input:
--------------------------------------------------------------
$molecule
0  1
O -3.94934 -3.66094 2.70899
C -3.26408 -4.56952 2.26188
C -3.36658 -6.02376 2.66595
C -3.82413 -6.32317 4.10291
C -4.29854 -5.14164 4.91963
O -5.65592 -5.02546 4.82245
C -6.1894 -3.96694 5.62507
C -6.57364 -2.78224 4.74475
O -7.07272 -1.70924 5.55868
C -6.5593 -0.4838 5.28696
C -7.07355 0.58902 6.21715
C -6.26767 0.7632 7.51272
C -4.89753 0.11583 7.53073
O -4.49505 -0.66804 8.37815
O -2.22864 -4.25599 1.43926
O -4.0524 0.44587 6.51569
O -5.95398 -0.21403 4.2556
C -2.78322 -0.06954 6.35692
C -6.97439 2.03048 5.65546
C -7.9982 2.92545 6.35468
C -7.38798 3.02501 7.73846
C -6.06412 2.28787 7.50512
O -5.76353 2.54039 6.15435
H -8.15635 0.38688 6.38415
H -6.82023 0.39978 8.40717
H -7.11368 2.08819 4.55394
H -7.93492 3.92489 5.86681
H -9.05224 2.57489 6.32517
H -7.21449 4.09943 7.96925
H -7.97572 2.54787 8.55251
H -5.29704 2.61037 8.2438
O -3.54048 -4.30162 5.39159
C -1.94063 -2.97906 1.00466
C -4.46567 -6.74971 1.86094
C -4.16058 -8.24515 1.80162
C -4.43622 -8.64238 3.23555
C -4.97376 -7.31595 3.78802
O -5.60203 -6.71391 2.68441
H -2.39476 -6.50535 2.41124
H -3.0488 -6.83516 4.71416
H -1.72094 -2.31957 1.87142
H -4.59602 -6.34637 0.83237
H -4.93669 -8.70671 1.14942
H -3.15398 -8.51832 1.41825
H -5.22797 -9.42418 3.23636
H -3.55211 -8.99391 3.81014
H -5.61672 -7.51001 4.67497
H -2.79759 -2.56917 0.42836
H -1.04927 -3.01149 0.34519
H -2.3231 0.37142 5.44907
H -2.83238 -1.17272 6.23278
H -2.15405 0.18347 7.23685
H -5.68045 -2.50405 4.14655
H -7.37142 -3.11142 4.0453
H -5.49203 -3.59904 6.41281
H -7.08222 -4.34244 6.16837
$end

$opt
CONSTRAINT
tors           1           2           3           4     -29.988
tors           3           4           5           6     +94.171
tors           4           5           6           7    +177.028
tors           5           6           7           8    +104.902
tors           6           7           8           9    -178.373
tors           7           8           9          10    +132.703
tors           8           9          10          11    -177.290
tors           9          10          11          12     +87.798
tors          11          12          13          14    -126.102
ENDCONSTRAINT
$end

$rem
JOBTYPE                   OPT
METHOD                    B3LYP
DFT_D                     d3_op
BASIS                     STO-3G
GEOM_OPT_MAX_CYCLES       100
GEOM_OPT_TOL_GRADIENT     300
GEOM_OPT_TOL_DISPLACEMENT 1200
GEOM_OPT_TOL_ENERGY       100
SYMMETRY                  False
THRESH                    12
SCF_CONVERGENCE           8
MAX_SUB_FILE_NUM          128
MEM_STATIC                400
MEM_TOTAL                 4000
$end
--------------------------------------------------------------

   15   -1510.1522347299      4.43E-09 Convergence criterion met
 Total energy in the final basis set = -1510.15223473
   13   -1510.2213851343      8.96E-09 Convergence criterion met
 Total energy in the final basis set = -1510.22138513
   14   -1510.2585775982      3.34E-09 Convergence criterion met
 Total energy in the final basis set = -1510.25857760
   14   -1510.2753508896      5.36E-09 Convergence criterion met
 Total energy in the final basis set = -1510.27535089
   13   -1510.2819311124      9.84E-09 Convergence criterion met
 Total energy in the final basis set = -1510.28193111
   13   -1510.2847307617      5.25E-09 Convergence criterion met
 Total energy in the final basis set = -1510.28473076
   13   -1510.2860564520      3.07E-09 Convergence criterion met
 Total energy in the final basis set = -1510.28605645
   13   -1510.2867149324      2.13E-09 Convergence criterion met
   10   -1510.2893273336      8.79E-09 Convergence criterion met
 Total energy in the final basis set = -1510.28932733
    9   -1510.2893352227      9.47E-09 Convergence criterion met
 Total energy in the final basis set = -1510.28933522
   10   -1510.2893483386      7.99E-09 Convergence criterion met
 Total energy in the final basis set = -1510.28934834
   10   -1510.2893607057      7.77E-09 Convergence criterion met
 Total energy in the final basis set = -1510.28936071
   10   -1510.2893770982      8.82E-09 Convergence criterion met
 Total energy in the final basis set = -1510.28937710
    9   -1510.2893788002      6.89E-09 Convergence criterion met
 Total energy in the final basis set = -1510.28937880

             Standard Nuclear Orientation (Angstroms)
    I     Atom           X                Y                Z
 ----------------------------------------------------------------
    1      O      -1.9314874321     1.0066615729     0.7912329266
    2      C      -3.0208327824     1.5323838515     0.4682622291
    3      C      -4.2506229140     0.8308789945    -0.1968409253
    4      C      -3.8474990048    -0.3948861558    -1.1224443881
    5      C      -2.3018389996    -0.6795558385    -1.1106111107
    6      O      -1.9921749411    -1.6777275708    -0.1340051702
    7      C      -0.5426528330    -1.9876776488    -0.1835457176
    8      C       0.1577022016    -1.3206649007     1.0498947869
    9      O       1.6072693582    -1.6126674327     0.9534231276
   10      C       2.3686252180    -0.4143224976     1.1707590496
   11      C       3.8811820391    -0.7812464081     0.9856225577
   12      C       4.3653509880    -0.6586424896    -0.5254840832
   13      C       3.2270221370    -0.4713657136    -1.5875168467
   14      O       3.0439509349    -1.1775092495    -2.6049521517
   15      O      -3.3458774183     2.9029073276     0.7013894748
   16      O       2.4367390178     0.6646744345    -1.2394542250
   17      O       1.8799245990     0.6790651035     1.5247683590
   18      C       1.3722331418     0.9043645410    -2.2458523305
   19      C       4.7867041494     0.3249884278     1.6688069465
   20      C       6.2860663578    -0.1727999935     1.6882404954
   21      C       6.7114123676     0.0672177024     0.1917648868
   22      C       5.3522859371     0.5871156659    -0.4233393608
   23      O       4.7842178756     1.4135115625     0.6632951471
   24      H       4.0575771014    -1.7975125909     1.3796934499
   25      H       4.9195770113    -1.5662116244    -0.8232690928
   26      H       4.3954226932     0.6966378292     2.6354471516
   27      H       6.8868735838     0.4347748973     2.3833362495
   28      H       6.3647986997    -1.2306769821     1.9862482951
   29      H       7.4893312686     0.8436324143     0.1133928728
   30      H       7.0725614413    -0.8482319042    -0.3033982475
   31      H       5.4478428141     1.1798193527    -1.3536366356
   32      O      -1.4684839144    -0.1706033810    -1.8976976006
   33      C      -2.2155344913     3.5816803097     1.3804272514
   34      C      -5.1920891621     0.1082504344     0.8663046456
   35      C      -6.5851808046    -0.1570998787     0.1723262065
   36      C      -6.2172417314    -1.3425209139    -0.7957656496
   37      C      -4.6897382869    -1.5594690958    -0.4522084178
   38      O      -4.6071637237    -1.2434770322     0.9938785019
   39      H      -4.8134858909     1.5950248909    -0.7616172928
   40      H      -4.1431692848    -0.2088273656    -2.1701327208
   41      H      -1.2711389015     3.4695953966     0.8102679281
   42      H      -5.2423112888     0.6078491552     1.8532478852
   43      H      -7.3329373561    -0.4640221807     0.9211036052
   44      H      -6.9619983562     0.7299962592    -0.3611442221
   45      H      -6.7965577706    -2.2498997411    -0.5624042524
   46      H      -6.3717057458    -1.0889969046    -1.8568064206
   47      H      -4.2996576391    -2.5764572959    -0.6475717204
   48      H      -2.0586263378     3.1804506271     2.4025434545
   49      H      -2.4931893187     4.6499083939     1.4404093310
   50      H       1.2533908256     2.0009181360    -2.3257231815
   51      H       0.4026320751     0.4515662762    -1.9329343481
   52      H       1.6657734787     0.4788484453    -3.2254535646
   53      H      -0.0229387084    -0.2236693221     1.0563406453
   54      H      -0.2428046364    -1.7521557641     1.9918746196
   55      H      -0.1062228015    -1.6039375709    -1.1287618884
   56      H      -0.4408343779    -3.0914107155    -0.1401967782
 ----------------------------------------------------------------

    9   -1510.2893797318      2.70E-09 Convergence criterion met
 Total energy in the final basis set = -1510.28937973
 Final energy is   -1510.28937973175
 **  OPTIMIZATION CONVERGED  **

                    Orbital Energies (a.u.)
 --------------------------------------------------------------

 Alpha MOs
 -- Occupied --
-18.943 -18.935 -18.924 -18.920 -18.892 -18.883 -18.883 -18.873
-18.867 -18.863 -10.106 -10.103 -10.090 -10.089 -10.066 -10.065
-10.062 -10.062 -10.055 -10.054 -10.053 -10.042 -10.041 -10.037
-10.032 -10.030 -10.024 -10.023 -10.016 -10.015  -1.020  -1.010
 -1.003  -0.997  -0.973  -0.965  -0.942  -0.937  -0.926  -0.924
 -0.767  -0.757  -0.727  -0.720  -0.713  -0.701  -0.690  -0.666
 -0.645  -0.611  -0.595  -0.575  -0.550  -0.541  -0.539  -0.532
 -0.516  -0.504  -0.486  -0.469  -0.464  -0.459  -0.450  -0.438
 -0.437  -0.429  -0.425  -0.414  -0.411  -0.402  -0.401  -0.394
 -0.390  -0.377  -0.367  -0.361  -0.361  -0.357  -0.349  -0.346
 -0.339  -0.335  -0.335  -0.330  -0.328  -0.325  -0.318  -0.314
 -0.308  -0.302  -0.301  -0.300  -0.292  -0.284  -0.281  -0.277
 -0.266  -0.262  -0.247  -0.239  -0.237  -0.234  -0.229  -0.185
 -0.179  -0.166  -0.162  -0.158  -0.152  -0.148  -0.147  -0.142
 -0.138

          Ground-State Mulliken Net Atomic Charges

     Atom                 Charge (a.u.)
  ----------------------------------------
      1 O                    -0.210476
      2 C                     0.211737
      3 C                    -0.079462
      4 C                    -0.079391
      5 C                     0.218438
      6 O                    -0.163363
      7 C                    -0.052135
      8 C                    -0.057735
      9 O                    -0.179842
     10 C                     0.214080
     11 C                    -0.078333
     12 C                    -0.079539
     13 C                     0.204339
     14 O                    -0.218479
     15 O                    -0.167634
     16 O                    -0.168530
     17 O                    -0.206702
     18 C                    -0.144730
     19 C                     0.026120
     20 C                    -0.145020
     21 C                    -0.142985
     22 C                     0.026157
     23 O                    -0.184124
     24 H                     0.085397
     25 H                     0.083290
     26 H                     0.086046
     27 H                     0.077173
     28 H                     0.072800
     29 H                     0.077135
     30 H                     0.073416
     31 H                     0.082918
     32 O                    -0.223445
     33 C                    -0.129081
     34 C                     0.026031
     35 C                    -0.143001
     36 C                    -0.144652
     37 C                     0.026605
     38 O                    -0.185130
     39 H                     0.087515
     40 H                     0.086137
     41 H                     0.096610
     42 H                     0.084139
     43 H                     0.078845
     44 H                     0.074673
     45 H                     0.078689
     46 H                     0.073946
     47 H                     0.088555
     48 H                     0.090677
     49 H                     0.092045
     50 H                     0.083692
     51 H                     0.104415
     52 H                     0.090893
     53 H                     0.113575
     54 H                     0.082629
     55 H                     0.098876
     56 H                     0.086196
  ----------------------------------------
  Sum of atomic charges =    -0.000000

                    Cartesian Multipole Moments
 -----------------------------------------------------------------
    Charge (ESU x 10^10)
                -0.0000
    Dipole Moment (Debye)
         X      -1.9092      Y      -0.0095      Z       0.2739
       Tot       1.9288
    Quadrupole Moments (Debye-Ang)
        XX    -134.8246     XY      -6.6656     YY    -157.9715
        XZ       7.2653     YZ      -1.0510     ZZ    -161.1072

 Total job time:  68.12s(wall), 3244.42s(cpu)
        *  Thank you very much for using Q-Chem.  Have a nice day.  *
