 Q-Chem 5.0, Q-Chem, Inc., Pleasanton, CA (2017)
 Q-Chem 5.0.1 for Intel X86 EM64T Linux

User input:
--------------------------------------------------------------
$molecule
0  1
O -1.3591003342 1.0123240279 0.5783345978
C -2.3856553311 1.5006924914 0.0473019483
C -3.8121566461 0.8522530443 -0.0256724432
C -3.8649090713 -0.4018495302 -1.0059672439
C -2.4211235736 -0.8644471906 -1.413210096
O -2.020839056 -2.015029547 -0.6555054779
C -0.6705215372 -2.4343354031 -1.1046703383
C 0.2653858933 -2.749473901 0.1185899224
O 1.6406874457 -2.349257778 -0.267036421
C 2.125430533 -1.3385578018 0.6411330202
C 3.5413841389 -0.9278538214 0.1229955014
C 3.4935484652 0.3863550314 -0.7745216684
C 2.290528112 1.3412992001 -0.4084862942
O 1.5938262296 2.0265582807 -1.1969508518
O -2.4402921647 2.7101253988 -0.6982844014
O 2.2418325707 1.4271035869 1.0061307538
O 1.4964221054 -0.9655415367 1.6541742489
C 1.1286376012 2.2832278653 1.4758072016
C 4.6858163542 -0.5626596059 1.1642480069
C 6.0468024394 -0.925447068 0.4512782957
C 6.0824840661 0.1789727199 -0.6731208383
C 4.838794452 1.0761716207 -0.2758952988
O 4.7405660935 0.9167044808 1.1931867697
H 3.8747678779 -1.7711129673 -0.5081862628
H 3.4806577718 0.1674279131 -1.8561039701
H 4.5446672892 -0.9676623103 2.184836005
H 6.8880734036 -0.8082331538 1.1531343838
H 6.0591446831 -1.9505863324 0.0478483419
H 7.0120973163 0.7683914678 -0.6354205338
H 5.9760768407 -0.2457164568 -1.6845492262
H 4.929322864 2.1471190296 -0.5428761994
O -1.6994270841 -0.3069553849 -2.2720446995
C -1.1236510484 3.38906531 -0.7937023611
C -4.3274493459 0.2011058363 1.3300714312
C -5.9010073367 0.1238005229 1.2391214175
C -6.0780157601 -1.0188296754 0.1703049618
C -4.5778354084 -1.460170228 -0.0681691122
O -3.9199719625 -1.218281768 1.2385876461
H -4.506209056 1.6367743396 -0.37485142
H -4.4337454564 -0.1706566416 -1.9242175521
H -0.2675478557 2.6954636769 -0.9753561718
H -3.9215538787 0.6625292461 2.2509701359
H -6.3253875536 -0.1682728172 2.2130799613
H -6.3538101405 1.0781942146 0.9266046252
H -6.6694336849 -1.8586882126 0.567766054
H -6.5538969513 -0.6614974823 -0.7571391254
H -4.4382979152 -2.5124003395 -0.3807668167
H -0.9255408595 3.9683528935 0.1307529167
H -1.2162721318 4.0931912644 -1.6410293494
H 1.21162323 2.2893747201 2.5774778633
H 0.1445668997 1.8529904493 1.1645319083
H 1.2321677842 3.318548663 1.093334331
H -0.0363016136 -2.1568470763 1.0113536083
H 0.26322415 -3.8305740507 0.3654112926
H -0.239251189 -1.6071279815 -1.7112865149
H -0.7779679552 -3.328572435 -1.7550449367
$end

$rem
JOBTYPE                   OPT
METHOD                    B3LYP
DFT_D                     d3_op
BASIS                     STO-3G
GEOM_OPT_MAX_CYCLES       100
GEOM_OPT_TOL_GRADIENT     300
GEOM_OPT_TOL_DISPLACEMENT 1200
GEOM_OPT_TOL_ENERGY       100
SYMMETRY                  False
THRESH                    12
SCF_CONVERGENCE           8
MAX_SUB_FILE_NUM          128
MEM_STATIC                400
MEM_TOTAL                 4000
$end
--------------------------------------------------------------

   16   -1510.2804516980      6.36E-09 Convergence criterion met
 Total energy in the final basis set = -1510.28045170
   15   -1510.2709219170      7.33E-09 Convergence criterion met
 Total energy in the final basis set = -1510.27092192
   15   -1510.2677572670      4.04E-09 Convergence criterion met
 Total energy in the final basis set = -1510.26775727
   14   -1510.2771408144      4.80E-09 Convergence criterion met
 Total energy in the final basis set = -1510.27714081
   14   -1510.2700044722      5.80E-09 Convergence criterion met
 Total energy in the final basis set = -1510.27000447
   15   -1510.2807515063      5.29E-09 Convergence criterion met
 Total energy in the final basis set = -1510.28075151
   13   -1510.2818465203      5.14E-09 Convergence criterion met
 Total energy in the final basis set = -1510.28184652
   13   -1510.2840325214      3.19E-09 Convergence criterion met
   10   -1510.2994480513      8.98E-09 Convergence criterion met
 Total energy in the final basis set = -1510.29944805
   10   -1510.2994521331      9.84E-09 Convergence criterion met
 Total energy in the final basis set = -1510.29945213
    9   -1510.2994437489      8.32E-09 Convergence criterion met
 Total energy in the final basis set = -1510.29944375
    9   -1510.2994452000      4.90E-09 Convergence criterion met
 Total energy in the final basis set = -1510.29944520
    9   -1510.2994433221      3.48E-09 Convergence criterion met
 Total energy in the final basis set = -1510.29944332
    9   -1510.2994451765      4.49E-09 Convergence criterion met
 Total energy in the final basis set = -1510.29944518

             Standard Nuclear Orientation (Angstroms)
    I     Atom           X                Y                Z
 ----------------------------------------------------------------
    1      O      -1.4198466281     0.8948172432     0.8130063962
    2      C      -2.2452493041     1.4946896571     0.0799294420
    3      C      -3.5713046240     0.9269646460    -0.5317878645
    4      C      -3.5073567822    -0.5788099518    -1.0311195418
    5      C      -2.1048981179    -1.2611005666    -0.8226754152
    6      O      -2.1872656404    -2.1871870822     0.2649485129
    7      C      -0.8643303794    -2.7971827231     0.5340430335
    8      C       0.1363266179    -1.7590230448     1.1688011085
    9      O       1.1694856815    -1.3789061411     0.1757411913
   10      C       2.4823855901    -1.6143056605     0.7010523992
   11      C       3.5172280416    -1.1499853785    -0.3824161788
   12      C       3.3366570030     0.3575331491    -0.8398409109
   13      C       2.2024595955     1.1238063131    -0.0807650022
   14      O       1.3449221419     1.8709247184    -0.6093974398
   15      O      -2.1583154512     2.8565838777    -0.3083931718
   16      O       2.3323707843     0.8752685415     1.3140232609
   17      O       2.7238674745    -2.1500201606     1.8044623119
   18      C       1.2386628771     1.5229012625     2.0803731576
   19      C       4.9933449667    -1.1274719962     0.1911521019
   20      C       5.9960619755    -1.0987245211    -1.0274847100
   21      C       5.8143354387     0.3814213828    -1.5310614255
   22      C       4.7739231248     0.9389581094    -0.4794746540
   23      O       5.1213454954     0.2305416950     0.7714191012
   24      H       3.4303132338    -1.8278072137    -1.2515274448
   25      H       3.1234894784     0.4347675001    -1.9201811591
   26      H       5.1856177809    -1.8978762075     0.9629369903
   27      H       7.0260878791    -1.2840907912    -0.6835060466
   28      H       5.7398671503    -1.8459215289    -1.7955470489
   29      H       6.7579698752     0.9471691937    -1.4758070942
   30      H       5.4291257456     0.4364610358    -2.5619390303
   31      H       4.8012910359     2.0353839928    -0.3267289463
   32      O      -1.0797873880    -1.0760986250    -1.5136546782
   33      C      -0.9297268258     3.4987627607     0.2257404840
   34      C      -4.7264706145     0.8250857693     0.5640569719
   35      C      -6.1076838636     0.7282015001    -0.1953769987
   36      C      -6.0541386356    -0.7516306190    -0.7277205353
   37      C      -4.6594414258    -1.2322144459    -0.1599552225
   38      O      -4.5467850902    -0.5250290099     1.1373460981
   39      H      -3.8695576086     1.6059890610    -1.3493480633
   40      H      -3.7359407808    -0.6251791631    -2.1113672248
   41      H      -0.0168345887     2.9141260604    -0.0546424290
   42      H      -4.6780861556     1.5956325992     1.3581647958
   43      H      -6.9427389614     0.8742710116     0.5082812018
   44      H      -6.1911905157     1.4725632640    -1.0031278508
   45      H      -6.8708704132    -1.3612450122    -0.3098783690
   46      H      -6.0961093796    -0.8101711362    -1.8271454525
   47      H      -4.5569466844    -2.3241512356    -0.0148299108
   48      H      -0.9903664321     3.6023093310     1.3279087284
   49      H      -0.9022701473     4.5043238453    -0.2314300627
   50      H       1.2803928466     1.0763591540     3.0904029315
   51      H       0.2410722421     1.3358207045     1.6148110055
   52      H       1.4124928143     2.6152914169     2.1595023458
   53      H      -0.4360665274    -0.8434751413     1.4362292610
   54      H       0.6474337621    -2.1792215285     2.0615588586
   55      H      -0.4192877575    -3.2153840233    -0.3956335042
   56      H      -1.0737158663    -3.6220876181     1.2438600047
 ----------------------------------------------------------------

    9   -1510.2994460459      2.93E-09 Convergence criterion met
 Total energy in the final basis set = -1510.29944605
 Final energy is   -1510.29944604588
 **  OPTIMIZATION CONVERGED  **

                    Orbital Energies (a.u.)
 --------------------------------------------------------------

 Alpha MOs
 -- Occupied --
-18.939 -18.935 -18.927 -18.921 -18.888 -18.885 -18.882 -18.877
-18.868 -18.868 -10.107 -10.103 -10.094 -10.094 -10.066 -10.062
-10.058 -10.058 -10.054 -10.051 -10.044 -10.041 -10.038 -10.036
-10.035 -10.033 -10.021 -10.019 -10.018 -10.017  -1.015  -1.012
 -1.006  -0.999  -0.970  -0.967  -0.939  -0.935  -0.931  -0.927
 -0.763  -0.760  -0.725  -0.721  -0.711  -0.703  -0.689  -0.659
 -0.649  -0.612  -0.594  -0.578  -0.545  -0.542  -0.537  -0.534
 -0.513  -0.508  -0.479  -0.475  -0.462  -0.459  -0.445  -0.440
 -0.433  -0.430  -0.425  -0.416  -0.412  -0.403  -0.402  -0.397
 -0.376  -0.374  -0.373  -0.364  -0.364  -0.358  -0.352  -0.347
 -0.341  -0.335  -0.331  -0.329  -0.325  -0.321  -0.319  -0.308
 -0.306  -0.303  -0.301  -0.299  -0.292  -0.290  -0.283  -0.275
 -0.270  -0.256  -0.246  -0.239  -0.237  -0.233  -0.231  -0.182
 -0.177  -0.174  -0.163  -0.157  -0.153  -0.149  -0.145  -0.141
 -0.140

          Ground-State Mulliken Net Atomic Charges

     Atom                 Charge (a.u.)
  ----------------------------------------
      1 O                    -0.219839
      2 C                     0.220451
      3 C                    -0.079020
      4 C                    -0.079589
      5 C                     0.209275
      6 O                    -0.170760
      7 C                    -0.048870
      8 C                    -0.065593
      9 O                    -0.173117
     10 C                     0.216555
     11 C                    -0.077461
     12 C                    -0.077193
     13 C                     0.224644
     14 O                    -0.216523
     15 O                    -0.166157
     16 O                    -0.164780
     17 O                    -0.216659
     18 C                    -0.145330
     19 C                     0.024451
     20 C                    -0.143846
     21 C                    -0.143879
     22 C                     0.025516
     23 O                    -0.186435
     24 H                     0.085019
     25 H                     0.087618
     26 H                     0.090375
     27 H                     0.077637
     28 H                     0.073045
     29 H                     0.077523
     30 H                     0.073907
     31 H                     0.081578
     32 O                    -0.210678
     33 C                    -0.150176
     34 C                     0.025706
     35 C                    -0.143411
     36 C                    -0.144730
     37 C                     0.025504
     38 O                    -0.187170
     39 H                     0.088417
     40 H                     0.084103
     41 H                     0.122095
     42 H                     0.082171
     43 H                     0.077950
     44 H                     0.074427
     45 H                     0.077745
     46 H                     0.073284
     47 H                     0.090337
     48 H                     0.075247
     49 H                     0.083570
     50 H                     0.087394
     51 H                     0.114560
     52 H                     0.077053
     53 H                     0.106687
     54 H                     0.097162
     55 H                     0.091388
     56 H                     0.088820
  ----------------------------------------
  Sum of atomic charges =    -0.000000

                    Cartesian Multipole Moments
 -----------------------------------------------------------------
    Charge (ESU x 10^10)
                -0.0000
    Dipole Moment (Debye)
         X      -1.3134      Y       0.3838      Z      -1.8411
       Tot       2.2939
    Quadrupole Moments (Debye-Ang)
        XX    -147.4137     XY      -1.0414     YY    -152.4435
        XZ      -4.8894     YZ       5.7576     ZZ    -162.7294

 Total job time:  175.49s(wall), 8380.01s(cpu)
        *  Thank you very much for using Q-Chem.  Have a nice day.  *
