 Q-Chem 5.0, Q-Chem, Inc., Pleasanton, CA (2017)
 Q-Chem 5.0.1 for Intel X86 EM64T Linux

User input:
--------------------------------------------------------------
$molecule
0  1
O -3.94934 -3.66094 2.70899
C -3.26408 -4.56952 2.26188
C -3.36658 -6.02376 2.66595
C -2.88888 -6.39567 4.07922
C -2.52808 -5.2459 4.99352
O -3.55026 -5.01021 5.86817
C -3.26722 -3.95588 6.79419
C -4.46731 -3.0218 6.91005
O -4.01963 -1.6744 7.12676
C -4.39569 -0.77609 6.18295
C -3.84089 0.60621 6.43214
C -2.56011 0.93977 5.65327
C -2.22827 0.01446 4.49985
O -1.10392 -0.34069 4.17694
O -2.52483 -4.39624 1.12816
O -3.2478 -0.18973 3.62858
O -5.31902 -0.9616 5.39761
C -3.08749 -0.73192 2.3856
C -4.75973 1.75902 5.96293
C -4.42238 3.03444 6.73562
C -3.07268 3.37707 6.13812
C -2.97391 2.299 5.05266
O -4.30966 2.07607 4.6711
H -3.71671 0.71817 7.5339
H -1.65529 1.02408 6.29476
H -5.84292 1.52893 6.06314
H -5.15772 3.80843 6.41798
H -4.44261 2.94729 7.84323
H -3.13695 4.39137 5.68533
H -2.21367 3.32575 6.84174
H -2.28486 2.62329 4.2413
O -1.52442 -4.55974 4.84012
C -2.27809 -3.24264 0.42168
C -4.82165 -6.52549 2.69274
C -4.85369 -8.03792 2.48592
C -4.28661 -8.51225 3.80628
C -4.14943 -7.17519 4.54612
O -5.20596 -6.39731 4.03828
H -2.79605 -6.6141 1.91126
H -2.01136 -7.07951 4.08294
H -1.53577 -2.61707 0.95188
H -5.47311 -6.02085 1.94569
H -5.92489 -8.33778 2.43063
H -4.32337 -8.40618 1.58145
H -5.04673 -9.15681 4.30141
H -3.31632 -9.05044 3.74202
H -4.15523 -7.36005 5.64295
H -3.2242 -2.7025 0.20686
H -1.80695 -3.51728 -0.54409
H -4.07772 -0.84468 1.89879
H -2.61235 -1.70962 2.52345
H -2.43929 -0.08065 1.76119
H -5.03242 -3.13188 5.95763
H -5.15467 -3.36323 7.71281
H -2.40969 -3.31825 6.48373
H -3.00904 -4.35455 7.79837
$end

$opt
CONSTRAINT
tors           1           2           3           4     -70.118
tors           3           4           5           6    +101.157
tors           4           5           6           7    +178.372
tors           5           6           7           8    +134.755
tors           6           7           8           9    -146.124
tors           7           8           9          10    +120.007
tors           8           9          10          11    -177.290
tors           9          10          11          12     +96.970
tors          11          12          13          14    -142.938
ENDCONSTRAINT
$end

$rem
JOBTYPE                   OPT
METHOD                    B3LYP
DFT_D                     d3_op
BASIS                     STO-3G
GEOM_OPT_MAX_CYCLES       100
GEOM_OPT_TOL_GRADIENT     300
GEOM_OPT_TOL_DISPLACEMENT 1200
GEOM_OPT_TOL_ENERGY       100
SYMMETRY                  False
THRESH                    12
SCF_CONVERGENCE           8
MAX_SUB_FILE_NUM          128
MEM_STATIC                400
MEM_TOTAL                 4000
$end
--------------------------------------------------------------

   15   -1510.1391272152      7.94E-09 Convergence criterion met
 Total energy in the final basis set = -1510.13912722
   14   -1510.2075292206      1.84E-09 Convergence criterion met
 Total energy in the final basis set = -1510.20752922
   14   -1510.2370842984      6.86E-09 Convergence criterion met
 Total energy in the final basis set = -1510.23708430
   14   -1510.2626739243      2.80E-09 Convergence criterion met
 Total energy in the final basis set = -1510.26267392
   13   -1510.2695647816      5.65E-09 Convergence criterion met
 Total energy in the final basis set = -1510.26956478
   13   -1510.2725809581      8.02E-09 Convergence criterion met
 Total energy in the final basis set = -1510.27258096
   13   -1510.2755939456      4.94E-09 Convergence criterion met
 Total energy in the final basis set = -1510.27559395
   13   -1510.2769077519      3.67E-09 Convergence criterion met
   11   -1510.2803435093      7.22E-09 Convergence criterion met
 Total energy in the final basis set = -1510.28034351
   10   -1510.2803499978      9.59E-09 Convergence criterion met
 Total energy in the final basis set = -1510.28035000
   10   -1510.2803548432      9.86E-09 Convergence criterion met
 Total energy in the final basis set = -1510.28035484
    9   -1510.2803559593      7.42E-09 Convergence criterion met
 Total energy in the final basis set = -1510.28035596
    9   -1510.2803582450      4.49E-09 Convergence criterion met
 Total energy in the final basis set = -1510.28035824
    9   -1510.2803593148      3.52E-09 Convergence criterion met
 Total energy in the final basis set = -1510.28035931

             Standard Nuclear Orientation (Angstroms)
    I     Atom           X                Y                Z
 ----------------------------------------------------------------
    1      O      -1.3591003342     1.0123240279     0.5783345978
    2      C      -2.3856553311     1.5006924914     0.0473019483
    3      C      -3.8121566461     0.8522530443    -0.0256724432
    4      C      -3.8649090713    -0.4018495302    -1.0059672439
    5      C      -2.4211235736    -0.8644471906    -1.4132100960
    6      O      -2.0208390560    -2.0150295470    -0.6555054779
    7      C      -0.6705215372    -2.4343354031    -1.1046703383
    8      C       0.2653858933    -2.7494739010     0.1185899224
    9      O       1.6406874457    -2.3492577780    -0.2670364210
   10      C       2.1254305330    -1.3385578018     0.6411330202
   11      C       3.5413841389    -0.9278538214     0.1229955014
   12      C       3.4935484652     0.3863550314    -0.7745216684
   13      C       2.2905281120     1.3412992001    -0.4084862942
   14      O       1.5938262296     2.0265582807    -1.1969508518
   15      O      -2.4402921647     2.7101253988    -0.6982844014
   16      O       2.2418325707     1.4271035869     1.0061307538
   17      O       1.4964221054    -0.9655415367     1.6541742489
   18      C       1.1286376012     2.2832278653     1.4758072016
   19      C       4.6858163542    -0.5626596059     1.1642480069
   20      C       6.0468024394    -0.9254470680     0.4512782957
   21      C       6.0824840661     0.1789727199    -0.6731208383
   22      C       4.8387944520     1.0761716207    -0.2758952988
   23      O       4.7405660935     0.9167044808     1.1931867697
   24      H       3.8747678779    -1.7711129673    -0.5081862628
   25      H       3.4806577718     0.1674279131    -1.8561039701
   26      H       4.5446672892    -0.9676623103     2.1848360050
   27      H       6.8880734036    -0.8082331538     1.1531343838
   28      H       6.0591446831    -1.9505863324     0.0478483419
   29      H       7.0120973163     0.7683914678    -0.6354205338
   30      H       5.9760768407    -0.2457164568    -1.6845492262
   31      H       4.9293228640     2.1471190296    -0.5428761994
   32      O      -1.6994270841    -0.3069553849    -2.2720446995
   33      C      -1.1236510484     3.3890653100    -0.7937023611
   34      C      -4.3274493459     0.2011058363     1.3300714312
   35      C      -5.9010073367     0.1238005229     1.2391214175
   36      C      -6.0780157601    -1.0188296754     0.1703049618
   37      C      -4.5778354084    -1.4601702280    -0.0681691122
   38      O      -3.9199719625    -1.2182817680     1.2385876461
   39      H      -4.5062090560     1.6367743396    -0.3748514200
   40      H      -4.4337454564    -0.1706566416    -1.9242175521
   41      H      -0.2675478557     2.6954636769    -0.9753561718
   42      H      -3.9215538787     0.6625292461     2.2509701359
   43      H      -6.3253875536    -0.1682728172     2.2130799613
   44      H      -6.3538101405     1.0781942146     0.9266046252
   45      H      -6.6694336849    -1.8586882126     0.5677660540
   46      H      -6.5538969513    -0.6614974823    -0.7571391254
   47      H      -4.4382979152    -2.5124003395    -0.3807668167
   48      H      -0.9255408595     3.9683528935     0.1307529167
   49      H      -1.2162721318     4.0931912644    -1.6410293494
   50      H       1.2116232300     2.2893747201     2.5774778633
   51      H       0.1445668997     1.8529904493     1.1645319083
   52      H       1.2321677842     3.3185486630     1.0933343310
   53      H      -0.0363016136    -2.1568470763     1.0113536083
   54      H       0.2632241500    -3.8305740507     0.3654112926
   55      H      -0.2392511890    -1.6071279815    -1.7112865149
   56      H      -0.7779679552    -3.3285724350    -1.7550449367
 ----------------------------------------------------------------

    8   -1510.2803598387      7.91E-09 Convergence criterion met
 Total energy in the final basis set = -1510.28035984
 Final energy is   -1510.28035983871
 **  OPTIMIZATION CONVERGED  **

                    Orbital Energies (a.u.)
 --------------------------------------------------------------

 Alpha MOs
 -- Occupied --
-18.938 -18.934 -18.925 -18.924 -18.887 -18.886 -18.881 -18.876
-18.874 -18.864 -10.105 -10.098 -10.094 -10.090 -10.060 -10.060
-10.059 -10.059 -10.058 -10.058 -10.047 -10.041 -10.038 -10.034
-10.033 -10.032 -10.021 -10.020 -10.019 -10.018  -1.015  -1.009
 -1.007  -0.999  -0.969  -0.967  -0.939  -0.936  -0.931  -0.923
 -0.764  -0.761  -0.726  -0.721  -0.711  -0.703  -0.689  -0.659
 -0.643  -0.611  -0.593  -0.575  -0.547  -0.542  -0.537  -0.535
 -0.512  -0.504  -0.484  -0.475  -0.459  -0.454  -0.444  -0.439
 -0.432  -0.432  -0.427  -0.417  -0.404  -0.402  -0.399  -0.396
 -0.393  -0.372  -0.370  -0.365  -0.358  -0.352  -0.349  -0.346
 -0.341  -0.337  -0.331  -0.330  -0.325  -0.321  -0.320  -0.308
 -0.306  -0.304  -0.303  -0.298  -0.294  -0.284  -0.278  -0.277
 -0.271  -0.254  -0.248  -0.241  -0.235  -0.233  -0.229  -0.182
 -0.178  -0.171  -0.164  -0.158  -0.151  -0.147  -0.143  -0.143
 -0.136

          Ground-State Mulliken Net Atomic Charges

     Atom                 Charge (a.u.)
  ----------------------------------------
      1 O                    -0.212947
      2 C                     0.215369
      3 C                    -0.079196
      4 C                    -0.076953
      5 C                     0.208512
      6 O                    -0.164412
      7 C                    -0.057042
      8 C                    -0.059313
      9 O                    -0.176979
     10 C                     0.208114
     11 C                    -0.079087
     12 C                    -0.076617
     13 C                     0.207337
     14 O                    -0.223766
     15 O                    -0.165523
     16 O                    -0.157665
     17 O                    -0.200199
     18 C                    -0.144915
     19 C                     0.027103
     20 C                    -0.141385
     21 C                    -0.145073
     22 C                     0.025081
     23 O                    -0.182172
     24 H                     0.085149
     25 H                     0.085581
     26 H                     0.087722
     27 H                     0.077652
     28 H                     0.073299
     29 H                     0.077747
     30 H                     0.073656
     31 H                     0.082284
     32 O                    -0.214960
     33 C                    -0.141342
     34 C                     0.025066
     35 C                    -0.142596
     36 C                    -0.145314
     37 C                     0.025871
     38 O                    -0.184390
     39 H                     0.086960
     40 H                     0.087295
     41 H                     0.116858
     42 H                     0.085250
     43 H                     0.078276
     44 H                     0.073719
     45 H                     0.077985
     46 H                     0.073119
     47 H                     0.088061
     48 H                     0.078699
     49 H                     0.088108
     50 H                     0.085738
     51 H                     0.113524
     52 H                     0.073562
     53 H                     0.111649
     54 H                     0.083102
     55 H                     0.104808
     56 H                     0.079594
  ----------------------------------------
  Sum of atomic charges =    -0.000000

                    Cartesian Multipole Moments
 -----------------------------------------------------------------
    Charge (ESU x 10^10)
                 0.0000
    Dipole Moment (Debye)
         X      -0.9676      Y      -0.6273      Z      -1.0655
       Tot       1.5701
    Quadrupole Moments (Debye-Ang)
        XX    -136.1435     XY      -4.9978     YY    -152.9208
        XZ      -3.5847     YZ       4.2100     ZZ    -165.8219

 Total job time:  76.78s(wall), 3660.18s(cpu)
        *  Thank you very much for using Q-Chem.  Have a nice day.  *
