 Q-Chem 5.0, Q-Chem, Inc., Pleasanton, CA (2017)
 Q-Chem 5.0.1 for Intel X86 EM64T Linux

User input:
--------------------------------------------------------------
$molecule
0  1
O -3.94934 -3.66094 2.70899
C -3.26408 -4.56952 2.26188
C -3.36658 -6.02376 2.66595
C -3.82588 -6.3232 4.10234
C -4.30178 -5.14177 4.91833
O -5.66668 -5.13112 4.96703
C -6.19293 -4.07727 5.78048
C -7.32455 -3.36332 5.04846
O -7.8233 -2.28325 5.85318
C -8.02006 -1.11154 5.19933
C -8.51741 -0.00928 6.10394
C -7.42953 0.68621 6.93526
C -6.00114 0.43949 6.49308
O -5.09972 0.02462 7.20714
O -2.22964 -4.25619 1.43789
O -5.71028 0.70639 5.1901
O -7.9932 -0.99423 3.97945
C -4.47584 0.5065 4.60865
C -9.10326 1.21982 5.36352
C -10.06608 1.96481 6.28867
C -9.09389 2.56437 7.28484
C -7.76223 2.15918 6.64247
O -8.03979 2.13314 5.26366
H -9.34164 -0.44085 6.71644
H -7.49326 0.43025 8.01595
H -9.61892 0.96208 4.41294
H -10.51233 2.79036 5.68851
H -10.88382 1.35629 6.73114
H -9.22207 3.6695 7.2791
H -9.17564 2.17427 8.32259
H -6.94527 2.84346 6.96248
O -3.54844 -4.29062 5.37718
C -1.94269 -2.97949 1.00185
C -4.46583 -6.7471 1.85843
C -4.15494 -8.24013 1.78712
C -4.41677 -8.64625 3.22052
C -4.96562 -7.32776 3.78245
O -5.60046 -6.72222 2.6853
H -2.39466 -6.50552 2.41159
H -3.04626 -6.82901 4.71326
H -1.72254 -2.31905 1.86776
H -4.60128 -6.33742 0.83299
H -4.93554 -8.69933 1.13853
H -3.15112 -8.50888 1.39348
H -5.19722 -9.43932 3.22235
H -3.52439 -8.98725 3.78868
H -5.60565 -7.54136 4.66687
H -2.80041 -2.57056 0.426
H -1.05196 -3.01207 0.34154
H -4.52394 0.80634 3.54182
H -4.19682 -0.56773 4.66557
H -3.70676 1.12367 5.12025
H -6.92346 -3.03857 4.06178
H -8.14173 -4.09422 4.86795
H -5.45748 -3.29941 6.08466
H -6.61162 -4.51768 6.71069
$end

$opt
CONSTRAINT
tors           1           2           3           4     -29.911
tors           3           4           5           6    +102.266
tors           4           5           6           7    +177.028
tors           5           6           7           8    +133.349
tors           6           7           8           9    -178.373
tors           7           8           9          10    +134.695
tors           8           9          10          11    -178.824
tors           9          10          11          12     +80.579
tors          11          12          13          14    -126.102
ENDCONSTRAINT
$end

$rem
JOBTYPE                   OPT
METHOD                    B3LYP
DFT_D                     d3_op
BASIS                     STO-3G
GEOM_OPT_MAX_CYCLES       100
GEOM_OPT_TOL_GRADIENT     300
GEOM_OPT_TOL_DISPLACEMENT 1200
GEOM_OPT_TOL_ENERGY       100
SYMMETRY                  False
THRESH                    12
SCF_CONVERGENCE           8
MAX_SUB_FILE_NUM          128
MEM_STATIC                400
MEM_TOTAL                 4000
$end
--------------------------------------------------------------

   16   -1510.1528467808      2.27E-09 Convergence criterion met
 Total energy in the final basis set = -1510.15284678
   13   -1510.2219330922      8.00E-09 Convergence criterion met
 Total energy in the final basis set = -1510.22193309
   14   -1510.2590717278      2.20E-09 Convergence criterion met
 Total energy in the final basis set = -1510.25907173
   14   -1510.2754697846      1.91E-09 Convergence criterion met
 Total energy in the final basis set = -1510.27546978
   13   -1510.2811768597      7.64E-09 Convergence criterion met
 Total energy in the final basis set = -1510.28117686
   13   -1510.2834372658      2.89E-09 Convergence criterion met
 Total energy in the final basis set = -1510.28343727
   13   -1510.2844429013      2.93E-09 Convergence criterion met
 Total energy in the final basis set = -1510.28444290
   13   -1510.2851091388      2.65E-09 Convergence criterion met
    9   -1510.2880463564      7.89E-09 Convergence criterion met
 Total energy in the final basis set = -1510.28804636
    9   -1510.2880506535      5.95E-09 Convergence criterion met
 Total energy in the final basis set = -1510.28805065
    9   -1510.2880558481      6.59E-09 Convergence criterion met
 Total energy in the final basis set = -1510.28805585
    9   -1510.2880587537      3.60E-09 Convergence criterion met
 Total energy in the final basis set = -1510.28805875
    9   -1510.2880532948      4.26E-09 Convergence criterion met
 Total energy in the final basis set = -1510.28805329
    9   -1510.2880611130      2.92E-09 Convergence criterion met
 Total energy in the final basis set = -1510.28806111

             Standard Nuclear Orientation (Angstroms)
    I     Atom           X                Y                Z
 ----------------------------------------------------------------
    1      O       1.9151715625    -1.0350913987     0.5642497773
    2      C       3.0789450262    -1.4889119309     0.4576183924
    3      C       4.3540976358    -0.7191987863    -0.0273078079
    4      C       4.0148708911     0.4331721668    -1.0691687924
    5      C       2.4734098194     0.5009452717    -1.3578926442
    6      O       1.8890629420     1.5932106281    -0.6362770525
    7      C       0.4509200654     1.6819828848    -0.9792144276
    8      C      -0.3436136824     1.8452582284     0.3586850515
    9      O      -1.7806792369     1.8923847903     0.0015542166
   10      C      -2.5296628152     1.0456179686     0.8900018733
   11      C      -4.0287829250     1.1193085161     0.4379297648
   12      C      -4.3113417338     0.1661246132    -0.8077870940
   13      C      -3.0228287564    -0.4734487164    -1.4336633276
   14      O      -2.6687009178    -0.4255360447    -2.6325721799
   15      O       3.4495463963    -2.8207663285     0.8119412373
   16      O      -2.2872704799    -1.1331922301    -0.3976236390
   17      O      -2.0509970797     0.4685234955     1.8887014507
   18      C      -1.0318206733    -1.7285443965    -0.9169650447
   19      C      -4.9667997018     0.4608319620     1.5303387527
   20      C      -6.4731235533     0.7713340420     1.1698756891
   21      C      -6.7158121473    -0.2289277717    -0.0212436006
   22      C      -5.2913893311    -0.8995533163    -0.1472561159
   23      O      -4.8290779979    -0.9893001133     1.2542555386
   24      H      -4.2899304646     2.1677555640     0.2097810905
   25      H      -4.8182689507     0.7189947472    -1.6183881397
   26      H      -4.6681600229     0.6803032437     2.5735870499
   27      H      -7.1286488505     0.5478714762     2.0263910266
   28      H      -6.6207436865     1.8235067219     0.8779480482
   29      H      -7.4741794946    -0.9856964425     0.2357435415
   30      H      -7.0222243954     0.2778948212    -0.9501462448
   31      H      -5.2799469514    -1.8980114333    -0.6257078545
   32      O       1.8496892869    -0.2262234678    -2.1643846097
   33      C       2.2623561894    -3.5644929798     1.2987812859
   34      C       5.0135051593     0.1290079717     1.1482309961
   35      C       6.4686398575     0.5399167337     0.6934656429
   36      C       6.1499468419     1.6683572074    -0.3564602989
   37      C       4.5712444432     1.7020198997    -0.3018561185
   38      O       4.2644715121     1.4032506615     1.1178512033
   39      H       5.0685741712    -1.4549815217    -0.4368514852
   40      H       4.5328960016     0.2582630394    -2.0289347564
   41      H       1.4829810698    -3.6417519616     0.5134054569
   42      H       4.9465200818    -0.3409522866     2.1487156071
   43      H       7.0401090762     0.9336542822     1.5491164375
   44      H       7.0231123441    -0.3064982262     0.2575367852
   45      H       6.5661960276     2.6393618269    -0.0445010919
   46      H       6.5258360238     1.4311829944    -1.3646890481
   47      H       4.1040928484     2.6584636831    -0.6037378338
   48      H       1.8155948405    -3.0814057920     2.1916611956
   49      H       2.6237238594    -4.5749877595     1.5637568798
   50      H      -0.1886722891    -1.4108123533    -0.2677518972
   51      H      -0.8589284163    -1.4002401067    -1.9614253116
   52      H      -1.1184343470    -2.8330853574    -0.8882959095
   53      H      -0.1519569553     0.9937348845     1.0462046146
   54      H      -0.0547507630     2.7897707296     0.8674562181
   55      H       0.1478825061     0.7657107124    -1.5271729543
   56      H       0.2861982285     2.5645840313    -1.6340684836
 ----------------------------------------------------------------

    9   -1510.2880619693      1.70E-09 Convergence criterion met
 Total energy in the final basis set = -1510.28806197
 Final energy is   -1510.28806196930
 **  OPTIMIZATION CONVERGED  **

                    Orbital Energies (a.u.)
 --------------------------------------------------------------

 Alpha MOs
 -- Occupied --
-18.945 -18.928 -18.926 -18.920 -18.890 -18.884 -18.884 -18.870
-18.867 -18.864 -10.107 -10.095 -10.094 -10.092 -10.069 -10.064
-10.060 -10.058 -10.057 -10.057 -10.055 -10.047 -10.041 -10.038
-10.034 -10.033 -10.023 -10.021 -10.018 -10.017  -1.020  -1.008
 -1.004  -0.998  -0.972  -0.966  -0.944  -0.932  -0.930  -0.926
 -0.765  -0.759  -0.726  -0.721  -0.712  -0.703  -0.689  -0.668
 -0.651  -0.610  -0.595  -0.574  -0.548  -0.541  -0.539  -0.533
 -0.514  -0.506  -0.485  -0.471  -0.463  -0.461  -0.449  -0.440
 -0.436  -0.430  -0.425  -0.417  -0.412  -0.407  -0.401  -0.397
 -0.390  -0.378  -0.371  -0.365  -0.360  -0.353  -0.351  -0.348
 -0.341  -0.336  -0.332  -0.331  -0.328  -0.325  -0.321  -0.313
 -0.305  -0.304  -0.302  -0.300  -0.292  -0.284  -0.281  -0.279
 -0.268  -0.261  -0.245  -0.241  -0.237  -0.235  -0.230  -0.186
 -0.174  -0.166  -0.162  -0.160  -0.153  -0.150  -0.145  -0.144
 -0.140

          Ground-State Mulliken Net Atomic Charges

     Atom                 Charge (a.u.)
  ----------------------------------------
      1 O                    -0.212640
      2 C                     0.213290
      3 C                    -0.078871
      4 C                    -0.080098
      5 C                     0.213991
      6 O                    -0.169087
      7 C                    -0.053431
      8 C                    -0.053916
      9 O                    -0.180447
     10 C                     0.215535
     11 C                    -0.078239
     12 C                    -0.078697
     13 C                     0.207543
     14 O                    -0.214117
     15 O                    -0.166411
     16 O                    -0.167477
     17 O                    -0.208986
     18 C                    -0.140386
     19 C                     0.025720
     20 C                    -0.144695
     21 C                    -0.143240
     22 C                     0.026079
     23 O                    -0.184393
     24 H                     0.085851
     25 H                     0.084143
     26 H                     0.087826
     27 H                     0.077669
     28 H                     0.073027
     29 H                     0.077487
     30 H                     0.073594
     31 H                     0.082772
     32 O                    -0.224156
     33 C                    -0.128656
     34 C                     0.025787
     35 C                    -0.143277
     36 C                    -0.144491
     37 C                     0.026074
     38 O                    -0.185902
     39 H                     0.087301
     40 H                     0.085466
     41 H                     0.091192
     42 H                     0.083662
     43 H                     0.078669
     44 H                     0.074344
     45 H                     0.078371
     46 H                     0.073703
     47 H                     0.090162
     48 H                     0.093166
     49 H                     0.092865
     50 H                     0.100150
     51 H                     0.101813
     52 H                     0.081004
     53 H                     0.106128
     54 H                     0.083033
     55 H                     0.102837
     56 H                     0.081361
  ----------------------------------------
  Sum of atomic charges =     0.000000

                    Cartesian Multipole Moments
 -----------------------------------------------------------------
    Charge (ESU x 10^10)
                 0.0000
    Dipole Moment (Debye)
         X       1.4924      Y       0.0870      Z      -0.1614
       Tot       1.5036
    Quadrupole Moments (Debye-Ang)
        XX    -131.8667     XY      -6.2582     YY    -152.2306
        XZ      -0.4047     YZ      -2.2606     ZZ    -168.7010

 Total job time:  96.41s(wall), 4589.29s(cpu)
        *  Thank you very much for using Q-Chem.  Have a nice day.  *
