 Q-Chem 5.0, Q-Chem, Inc., Pleasanton, CA (2017)
 Q-Chem 5.0.1 for Intel X86 EM64T Linux

User input:
--------------------------------------------------------------
$molecule
0  1
O 1.9151715625 -1.0350913987 0.5642497773
C 3.0789450262 -1.4889119309 0.4576183924
C 4.3540976358 -0.7191987863 -0.0273078079
C 4.0148708911 0.4331721668 -1.0691687924
C 2.4734098194 0.5009452717 -1.3578926442
O 1.889062942 1.5932106281 -0.6362770525
C 0.4509200654 1.6819828848 -0.9792144276
C -0.3436136824 1.8452582284 0.3586850515
O -1.7806792369 1.8923847903 0.0015542166
C -2.5296628152 1.0456179686 0.8900018733
C -4.028782925 1.1193085161 0.4379297648
C -4.3113417338 0.1661246132 -0.807787094
C -3.0228287564 -0.4734487164 -1.4336633276
O -2.6687009178 -0.4255360447 -2.6325721799
O 3.4495463963 -2.8207663285 0.8119412373
O -2.2872704799 -1.1331922301 -0.397623639
O -2.0509970797 0.4685234955 1.8887014507
C -1.0318206733 -1.7285443965 -0.9169650447
C -4.9667997018 0.460831962 1.5303387527
C -6.4731235533 0.771334042 1.1698756891
C -6.7158121473 -0.2289277717 -0.0212436006
C -5.2913893311 -0.8995533163 -0.1472561159
O -4.8290779979 -0.9893001133 1.2542555386
H -4.2899304646 2.167755564 0.2097810905
H -4.8182689507 0.7189947472 -1.6183881397
H -4.6681600229 0.6803032437 2.5735870499
H -7.1286488505 0.5478714762 2.0263910266
H -6.6207436865 1.8235067219 0.8779480482
H -7.4741794946 -0.9856964425 0.2357435415
H -7.0222243954 0.2778948212 -0.9501462448
H -5.2799469514 -1.8980114333 -0.6257078545
O 1.8496892869 -0.2262234678 -2.1643846097
C 2.2623561894 -3.5644929798 1.2987812859
C 5.0135051593 0.1290079717 1.1482309961
C 6.4686398575 0.5399167337 0.6934656429
C 6.1499468419 1.6683572074 -0.3564602989
C 4.5712444432 1.7020198997 -0.3018561185
O 4.2644715121 1.4032506615 1.1178512033
H 5.0685741712 -1.4549815217 -0.4368514852
H 4.5328960016 0.2582630394 -2.0289347564
H 1.4829810698 -3.6417519616 0.5134054569
H 4.9465200818 -0.3409522866 2.1487156071
H 7.0401090762 0.9336542822 1.5491164375
H 7.0231123441 -0.3064982262 0.2575367852
H 6.5661960276 2.6393618269 -0.0445010919
H 6.5258360238 1.4311829944 -1.3646890481
H 4.1040928484 2.6584636831 -0.6037378338
H 1.8155948405 -3.081405792 2.1916611956
H 2.6237238594 -4.5749877595 1.5637568798
H -0.1886722891 -1.4108123533 -0.2677518972
H -0.8589284163 -1.4002401067 -1.9614253116
H -1.118434347 -2.8330853574 -0.8882959095
H -0.1519569553 0.9937348845 1.0462046146
H -0.054750763 2.7897707296 0.8674562181
H 0.1478825061 0.7657107124 -1.5271729543
H 0.2861982285 2.5645840313 -1.6340684836
$end

$rem
JOBTYPE                   OPT
METHOD                    B3LYP
DFT_D                     d3_op
BASIS                     STO-3G
GEOM_OPT_MAX_CYCLES       100
GEOM_OPT_TOL_GRADIENT     300
GEOM_OPT_TOL_DISPLACEMENT 1200
GEOM_OPT_TOL_ENERGY       100
SYMMETRY                  False
THRESH                    12
SCF_CONVERGENCE           8
MAX_SUB_FILE_NUM          128
MEM_STATIC                400
MEM_TOTAL                 4000
$end
--------------------------------------------------------------

   16   -1510.2880260938      7.08E-09 Convergence criterion met
 Total energy in the final basis set = -1510.28802609
   14   -1510.2529992441      6.59E-09 Convergence criterion met
 Total energy in the final basis set = -1510.25299924
   14   -1510.2896518277      6.84E-09 Convergence criterion met
 Total energy in the final basis set = -1510.28965183
   14   -1510.2876342123      3.79E-09 Convergence criterion met
 Total energy in the final basis set = -1510.28763421
   14   -1510.2906708521      2.55E-09 Convergence criterion met
 Total energy in the final basis set = -1510.29067085
   14   -1510.2914151352      4.29E-09 Convergence criterion met
 Total energy in the final basis set = -1510.29141514
   14   -1510.2930700003      2.43E-09 Convergence criterion met
 Total energy in the final basis set = -1510.29307000
   13   -1510.2937681198      7.00E-09 Convergence criterion met
   13   -1510.2983030982      1.89E-09 Convergence criterion met
 Total energy in the final basis set = -1510.29830310
   12   -1510.2983468608      6.94E-09 Convergence criterion met
 Total energy in the final basis set = -1510.29834686
   12   -1510.2983357605      3.20E-09 Convergence criterion met
 Total energy in the final basis set = -1510.29833576
   12   -1510.2983596755      2.47E-09 Convergence criterion met
 Total energy in the final basis set = -1510.29835968
   11   -1510.2983807897      7.37E-09 Convergence criterion met
 Total energy in the final basis set = -1510.29838079
   10   -1510.2983751229      8.20E-09 Convergence criterion met
 Total energy in the final basis set = -1510.29837512

             Standard Nuclear Orientation (Angstroms)
    I     Atom           X                Y                Z
 ----------------------------------------------------------------
    1      O      -1.3039551817     0.9576990166    -0.1362215841
    2      C      -2.3717641015     1.1590083512     0.4935214051
    3      C      -3.8146369587     0.8057419623    -0.0099078285
    4      C      -3.8376235763    -0.3434082296    -1.1080049356
    5      C      -2.4242540230    -0.9485100824    -1.4390374965
    6      O      -2.0576229432    -1.8464543204    -0.3813969143
    7      C      -0.6245250001    -2.2250934291    -0.4786706492
    8      C       0.0931597578    -1.4624781352     0.6865087123
    9      O       1.5631163066    -1.4992732253     0.5000355967
   10      C       2.1528203851    -0.3271711075     1.0748558937
   11      C       3.7006937321    -0.4120936056     0.8342421045
   12      C       4.0939401680    -0.5482208401    -0.6965586260
   13      C       2.8629943612    -0.4690629622    -1.6626642229
   14      O       2.5773080217    -1.2559317451    -2.5919798544
   15      O      -2.4238268631     1.7555365867     1.7782271843
   16      O       2.1112816062     0.6958141868    -1.3147254434
   17      O       1.5243545000     0.5579535362     1.6975049564
   18      C       0.9323045685     0.8590994969    -2.2001402205
   19      C       4.4378858492     0.9318698662     1.2298975194
   20      C       5.9760365567     0.6174935469     1.3932100143
   21      C       6.4034370157     0.4273151785    -0.1099394056
   22      C       5.0416755605     0.7202105547    -0.8579980853
   23      O       4.3867056432     1.7407423230    -0.0105015857
   24      H       4.0872075315    -1.2724365034     1.4112416328
   25      H       4.6284842783    -1.4924502110    -0.8997763603
   26      H       3.9602146551     1.4772195233     2.0671071344
   27      H       6.4963982794     1.4715971085     1.8552814370
   28      H       6.1562221574    -0.2809615352     2.0049066127
   29      H       7.1717493776     1.1583761766    -0.4081321182
   30      H       6.7805920742    -0.5861926551    -0.3207712195
   31      H       5.1443292313     1.0867834263    -1.8978416905
   32      O      -1.7555261820    -0.7633168346    -2.4792701947
   33      C      -1.0665395302     2.1822811365     2.2168915918
   34      C      -4.7404561368     0.1751283377     1.1165964340
   35      C      -6.2404635550     0.2738308334     0.6326001067
   36      C      -6.2765159125    -0.8489725277    -0.4701233563
   37      C      -4.7953817603    -1.3955740600    -0.4002924007
   38      O      -4.4453972488    -1.2723059129     1.0335912917
   39      H      -4.2600564277     1.7363685135    -0.4098589838
   40      H      -4.2650819423     0.0311598357    -2.0546813326
   41      H      -0.7838525243     3.1270954108     1.7098203887
   42      H      -4.5360964532     0.5616248323     2.1336594755
   43      H      -6.9269918671     0.0458431079     1.4633980291
   44      H      -6.4861738241     1.2713120837     0.2345362105
   45      H      -6.9933347598    -1.6447870063    -0.2126210816
   46      H      -6.5271452747    -0.4572260033    -1.4689206281
   47      H      -4.6606693137    -2.4397200984    -0.7422046265
   48      H      -0.2788580478     1.4216660249     2.0099109564
   49      H      -1.1482144994     2.3624393999     3.3041373400
   50      H       0.0279301898     0.9398552463    -1.5618401498
   51      H       0.8475966923    -0.0111140912    -2.8804106972
   52      H       1.0595425430     1.7857557762    -2.7934646738
   53      H      -0.2617255877    -0.4082625220     0.6585718850
   54      H      -0.1783796694    -1.9113923223     1.6662277157
   55      H      -0.2185084857    -1.9144459223    -1.4654544999
   56      H      -0.5466566480    -3.3255311348    -0.3675210192
 ----------------------------------------------------------------

    9   -1510.2983753270      9.33E-09 Convergence criterion met
 Total energy in the final basis set = -1510.29837533
 Final energy is   -1510.29837532697
 **  OPTIMIZATION CONVERGED  **

                    Orbital Energies (a.u.)
 --------------------------------------------------------------

 Alpha MOs
 -- Occupied --
-18.951 -18.929 -18.923 -18.919 -18.892 -18.890 -18.884 -18.875
-18.870 -18.863 -10.117 -10.101 -10.096 -10.088 -10.063 -10.062
-10.061 -10.057 -10.057 -10.055 -10.054 -10.046 -10.038 -10.035
-10.032 -10.031 -10.023 -10.021 -10.018 -10.017  -1.026  -1.011
 -1.004  -0.996  -0.972  -0.966  -0.949  -0.936  -0.930  -0.923
 -0.766  -0.760  -0.727  -0.721  -0.713  -0.702  -0.691  -0.663
 -0.641  -0.611  -0.595  -0.576  -0.548  -0.542  -0.539  -0.534
 -0.516  -0.505  -0.486  -0.472  -0.467  -0.462  -0.449  -0.437
 -0.435  -0.432  -0.425  -0.419  -0.408  -0.406  -0.400  -0.396
 -0.392  -0.380  -0.374  -0.365  -0.358  -0.352  -0.350  -0.344
 -0.341  -0.335  -0.333  -0.328  -0.326  -0.325  -0.316  -0.316
 -0.308  -0.305  -0.301  -0.300  -0.287  -0.286  -0.284  -0.280
 -0.268  -0.266  -0.243  -0.241  -0.236  -0.232  -0.230  -0.191
 -0.176  -0.168  -0.165  -0.159  -0.155  -0.150  -0.146  -0.143
 -0.139

          Ground-State Mulliken Net Atomic Charges

     Atom                 Charge (a.u.)
  ----------------------------------------
      1 O                    -0.217638
      2 C                     0.223348
      3 C                    -0.077707
      4 C                    -0.080184
      5 C                     0.212558
      6 O                    -0.175607
      7 C                    -0.053229
      8 C                    -0.061816
      9 O                    -0.176059
     10 C                     0.222955
     11 C                    -0.077670
     12 C                    -0.077995
     13 C                     0.211037
     14 O                    -0.217618
     15 O                    -0.164115
     16 O                    -0.171877
     17 O                    -0.218274
     18 C                    -0.148083
     19 C                     0.024751
     20 C                    -0.143731
     21 C                    -0.144209
     22 C                     0.026065
     23 O                    -0.185447
     24 H                     0.083846
     25 H                     0.084288
     26 H                     0.088397
     27 H                     0.077348
     28 H                     0.072430
     29 H                     0.077314
     30 H                     0.073486
     31 H                     0.082730
     32 O                    -0.214382
     33 C                    -0.139896
     34 C                     0.024216
     35 C                    -0.143689
     36 C                    -0.144392
     37 C                     0.026901
     38 O                    -0.186571
     39 H                     0.087400
     40 H                     0.084535
     41 H                     0.086714
     42 H                     0.091076
     43 H                     0.078747
     44 H                     0.073444
     45 H                     0.078440
     46 H                     0.073975
     47 H                     0.086517
     48 H                     0.118129
     49 H                     0.089760
     50 H                     0.107831
     51 H                     0.098620
     52 H                     0.078427
     53 H                     0.105824
     54 H                     0.079180
     55 H                     0.104227
     56 H                     0.085673
  ----------------------------------------
  Sum of atomic charges =    -0.000000

                    Cartesian Multipole Moments
 -----------------------------------------------------------------
    Charge (ESU x 10^10)
                 0.0000
    Dipole Moment (Debye)
         X      -1.1465      Y       0.5256      Z       1.5657
       Tot       2.0104
    Quadrupole Moments (Debye-Ang)
        XX    -134.9633     XY      -6.8377     YY    -160.6372
        XZ       7.2094     YZ      -1.8810     ZZ    -164.0091

 Total job time:  98.28s(wall), 4684.96s(cpu)
        *  Thank you very much for using Q-Chem.  Have a nice day.  *
