 Q-Chem 5.0, Q-Chem, Inc., Pleasanton, CA (2017)
 Q-Chem 5.0.1 for Intel X86 EM64T Linux

User input:
--------------------------------------------------------------
$molecule
0  1
O -3.94934 -3.66094 2.70899
C -3.26408 -4.56952 2.26188
C -3.36658 -6.02376 2.66595
C -3.2973 -6.34207 4.16853
C -3.31197 -5.15827 5.11006
O -4.51505 -5.09179 5.75319
C -4.60233 -3.99815 6.67275
C -5.49455 -2.901 6.10149
O -5.54809 -1.79066 7.01096
C -5.4495 -0.56432 6.44043
C -4.84476 0.46698 7.36314
C -3.31183 0.55029 7.32481
C -2.64242 -0.12879 6.14692
O -1.75622 -0.96757 6.22219
O -2.30268 -4.27422 1.34743
O -3.0677 0.23862 4.90734
O -5.9555 -0.29077 5.35914
C -2.59488 -0.301 3.73064
C -5.19178 1.93185 6.99479
C -5.06009 2.81692 8.23464
C -3.55529 2.82473 8.41716
C -3.12499 2.06761 7.15517
O -4.11724 2.38333 6.20956
H -5.2665 0.28854 8.37871
H -2.84333 0.15108 8.25134
H -6.20495 2.04877 6.552
H -5.38597 3.83855 7.933
H -5.6441 2.49969 9.12518
H -3.20424 3.88015 8.39358
H -3.18529 2.31754 9.33458
H -2.08134 2.33057 6.87285
O -2.40226 -4.34011 5.18353
C -2.04101 -3.00716 0.87049
C -4.74102 -6.62304 2.30534
C -4.61162 -8.13229 2.11848
C -4.3773 -8.57013 3.54771
C -4.5629 -7.23386 4.27989
O -5.49232 -6.53528 3.4901
H -2.58341 -6.57489 2.09594
H -2.3919 -6.93013 4.43605
H -1.72535 -2.34328 1.70172
H -5.19827 -6.16329 1.4015
H -5.61025 -8.50213 1.79183
H -3.84318 -8.46526 1.38807
H -5.17534 -9.29362 3.82671
H -3.37666 -9.0085 3.75257
H -4.85875 -7.433 5.33329
H -2.94337 -2.58981 0.37462
H -1.2179 -3.06098 0.1289
H -3.11729 0.17436 2.87548
H -2.79446 -1.39271 3.71104
H -1.50388 -0.11548 3.63398
H -5.09714 -2.60829 5.10142
H -6.51645 -3.31583 5.96771
H -3.6242 -3.53573 6.93636
H -5.024 -4.36874 7.63096
$end

$opt
CONSTRAINT
tors           1           2           3           4     -52.388
tors           3           4           5           6    +107.914
tors           4           5           6           7    +179.568
tors           5           6           7           8    +106.033
tors           6           7           8           9    -178.373
tors           7           8           9          10    +136.828
tors           8           9          10          11    -151.737
tors           9          10          11          12     +87.798
tors          11          12          13          14    -126.102
ENDCONSTRAINT
$end

$rem
JOBTYPE                   OPT
METHOD                    B3LYP
DFT_D                     d3_op
BASIS                     STO-3G
GEOM_OPT_MAX_CYCLES       100
GEOM_OPT_TOL_GRADIENT     300
GEOM_OPT_TOL_DISPLACEMENT 1200
GEOM_OPT_TOL_ENERGY       100
SYMMETRY                  False
THRESH                    12
SCF_CONVERGENCE           8
MAX_SUB_FILE_NUM          128
MEM_STATIC                400
MEM_TOTAL                 4000
$end
--------------------------------------------------------------

   15   -1510.1513173361      8.98E-09 Convergence criterion met
 Total energy in the final basis set = -1510.15131734
   14   -1510.2204978478      2.33E-09 Convergence criterion met
 Total energy in the final basis set = -1510.22049785
   14   -1510.2573076203      3.69E-09 Convergence criterion met
 Total energy in the final basis set = -1510.25730762
   14   -1510.2715958950      8.05E-09 Convergence criterion met
 Total energy in the final basis set = -1510.27159590
   14   -1510.2699292137      5.61E-09 Convergence criterion met
 Total energy in the final basis set = -1510.26992921
   14   -1510.2770874456      3.02E-09 Convergence criterion met
 Total energy in the final basis set = -1510.27708745
   12   -1510.2786405741      6.53E-09 Convergence criterion met
 Total energy in the final basis set = -1510.27864057
   13   -1510.2801422781      3.39E-09 Convergence criterion met
   11   -1510.2849360452      2.76E-09 Convergence criterion met
 Total energy in the final basis set = -1510.28493605
   11   -1510.2849573876      7.59E-09 Convergence criterion met
 Total energy in the final basis set = -1510.28495739
   11   -1510.2849734929      5.85E-09 Convergence criterion met
 Total energy in the final basis set = -1510.28497349
   10   -1510.2849802314      9.45E-09 Convergence criterion met
 Total energy in the final basis set = -1510.28498023
    9   -1510.2849815697      9.50E-09 Convergence criterion met
 Total energy in the final basis set = -1510.28498157
    9   -1510.2849826414      3.64E-09 Convergence criterion met
 Total energy in the final basis set = -1510.28498264

             Standard Nuclear Orientation (Angstroms)
    I     Atom           X                Y                Z
 ----------------------------------------------------------------
    1      O      -1.8319626082     1.0528076029     1.1282462664
    2      C      -2.7840504531     1.5776579631     0.5056635252
    3      C      -4.0394058637     0.8680222492    -0.0987214857
    4      C      -3.7155260909    -0.3628927136    -1.0514729204
    5      C      -2.1761775240    -0.6499513817    -1.1981900240
    6      O      -1.8499988136    -1.8422237690    -0.4917217584
    7      C      -0.4086532889    -2.1758924933    -0.5993807090
    8      C       0.3064755863    -1.8606072445     0.7632014346
    9      O       1.7447758006    -2.1761967218     0.5792054000
   10      C       2.5906096000    -1.1646124879     1.1550821097
   11      C       3.9346082521    -1.1542069279     0.3396210956
   12      C       3.9157124328    -0.2080741955    -0.9385084991
   13      C       2.5184736895     0.3815537359    -1.3235356998
   14      O       1.9597907915     0.3009534859    -2.4406753442
   15      O      -2.9547427115     2.9853002734     0.3148864062
   16      O       1.9803885224     1.0584198796    -0.1916973618
   17      O       2.2758978699    -0.4587283023     2.1345627249
   18      C       0.6602336165     1.6514525177    -0.5023667966
   19      C       5.0747563253    -0.4607939487     1.1954109339
   20      C       6.4720500986    -0.7177174550     0.5047377364
   21      C       6.4143618346     0.3000629390    -0.6949339181
   22      C       4.9685535746     0.9062564014    -0.5017631863
   23      O       4.8245034736     0.9814427580     0.9672942396
   24      H       4.1824752184    -2.1922669913     0.0545582644
   25      H       4.2799067757    -0.7591358789    -1.8234906707
   26      H       5.0294377054    -0.6899180710     2.2775192424
   27      H       7.2953383611    -0.4811147412     1.1972229514
   28      H       6.5814385210    -1.7617355422     0.1701743024
   29      H       7.1773120125     1.0883231894    -0.5927604155
   30      H       6.5366205831    -0.1863691598    -1.6758453844
   31      H       4.8044636878     1.9004602791    -0.9606497011
   32      O      -1.3657304359     0.0211868090    -1.8792173739
   33      C      -1.8646054267     3.7535839874     0.9606876286
   34      C      -4.9091150419     0.1489837405     1.0269202650
   35      C      -6.3475283301    -0.1115554169     0.4315864932
   36      C      -6.0540668903    -1.3055343159    -0.5507467252
   37      C      -4.5062385933    -1.5244115113    -0.3167568412
   38      O      -4.3187827882    -1.2029595186     1.1179821893
   39      H      -4.6301965052     1.6342467936    -0.6303747378
   40      H      -4.1108929307    -0.1720013294    -2.0659309459
   41      H      -1.1358450097     4.0924704879     0.1972850665
   42      H      -4.8889784767     0.6495539710     2.0143394002
   43      H      -7.0451345288    -0.4082424923     1.2309913133
   44      H      -6.7532948929     0.7747741017    -0.0816664489
   45      H      -6.6164575425    -2.2094390236    -0.2680902335
   46      H      -6.2836902375    -1.0602007624    -1.5999271761
   47      H      -4.1305731433    -2.5412909896    -0.5373324973
   48      H      -1.3410780441     3.1307227040     1.7127308702
   49      H      -2.3226069131     4.6373122965     1.4443476178
   50      H       0.7844411822     2.6772296078    -0.9043393982
   51      H       0.0950576720     1.6866562335     0.4485664547
   52      H       0.0872451069     1.0354280034    -1.2318390605
   53      H       0.1559349971    -0.7960708486     1.0427349421
   54      H      -0.1274532389    -2.4915805955     1.5696521916
   55      H       0.0534850331    -1.5817163176    -1.4177509855
   56      H      -0.3381019588    -3.2580574043    -0.8317460760
 ----------------------------------------------------------------

    9   -1510.2849828076      3.25E-09 Convergence criterion met
 Total energy in the final basis set = -1510.28498281
 Final energy is   -1510.28498280756
 **  OPTIMIZATION CONVERGED  **

                    Orbital Energies (a.u.)
 --------------------------------------------------------------

 Alpha MOs
 -- Occupied --
-18.943 -18.943 -18.923 -18.916 -18.893 -18.884 -18.883 -18.883
-18.873 -18.863 -10.110 -10.107 -10.093 -10.089 -10.070 -10.066
-10.065 -10.064 -10.062 -10.056 -10.053 -10.044 -10.043 -10.033
-10.032 -10.031 -10.024 -10.023 -10.016 -10.015  -1.021  -1.016
 -1.004  -0.997  -0.974  -0.965  -0.945  -0.943  -0.929  -0.925
 -0.768  -0.757  -0.729  -0.721  -0.715  -0.702  -0.694  -0.668
 -0.645  -0.614  -0.596  -0.578  -0.551  -0.542  -0.540  -0.532
 -0.518  -0.506  -0.487  -0.471  -0.467  -0.459  -0.453  -0.440
 -0.437  -0.430  -0.424  -0.417  -0.416  -0.406  -0.400  -0.397
 -0.393  -0.377  -0.376  -0.363  -0.361  -0.357  -0.353  -0.350
 -0.344  -0.339  -0.336  -0.329  -0.326  -0.324  -0.320  -0.313
 -0.309  -0.306  -0.301  -0.300  -0.293  -0.291  -0.281  -0.276
 -0.268  -0.258  -0.253  -0.243  -0.237  -0.231  -0.229  -0.186
 -0.182  -0.170  -0.163  -0.160  -0.159  -0.149  -0.148  -0.141
 -0.138

          Ground-State Mulliken Net Atomic Charges

     Atom                 Charge (a.u.)
  ----------------------------------------
      1 O                    -0.214946
      2 C                     0.211006
      3 C                    -0.079253
      4 C                    -0.077776
      5 C                     0.217481
      6 O                    -0.165081
      7 C                    -0.051458
      8 C                    -0.051113
      9 O                    -0.184819
     10 C                     0.215875
     11 C                    -0.077955
     12 C                    -0.080253
     13 C                     0.202873
     14 O                    -0.216214
     15 O                    -0.167191
     16 O                    -0.170314
     17 O                    -0.198520
     18 C                    -0.151942
     19 C                     0.025762
     20 C                    -0.145030
     21 C                    -0.143159
     22 C                     0.026491
     23 O                    -0.184139
     24 H                     0.084518
     25 H                     0.083126
     26 H                     0.085838
     27 H                     0.077254
     28 H                     0.072675
     29 H                     0.077134
     30 H                     0.073266
     31 H                     0.082846
     32 O                    -0.215125
     33 C                    -0.134296
     34 C                     0.026393
     35 C                    -0.143358
     36 C                    -0.144627
     37 C                     0.025629
     38 O                    -0.185120
     39 H                     0.088729
     40 H                     0.086883
     41 H                     0.088455
     42 H                     0.084154
     43 H                     0.079070
     44 H                     0.074705
     45 H                     0.078914
     46 H                     0.073849
     47 H                     0.091438
     48 H                     0.100674
     49 H                     0.089987
     50 H                     0.073400
     51 H                     0.093149
     52 H                     0.110073
     53 H                     0.102580
     54 H                     0.085993
     55 H                     0.102009
     56 H                     0.089459
  ----------------------------------------
  Sum of atomic charges =     0.000000

                    Cartesian Multipole Moments
 -----------------------------------------------------------------
    Charge (ESU x 10^10)
                 0.0000
    Dipole Moment (Debye)
         X      -1.9262      Y      -0.2102      Z      -1.1483
       Tot       2.2524
    Quadrupole Moments (Debye-Ang)
        XX    -134.6997     XY      -7.1591     YY    -152.4238
        XZ      -1.1907     YZ       2.9441     ZZ    -168.8297

 Total job time:  92.73s(wall), 4420.59s(cpu)
        *  Thank you very much for using Q-Chem.  Have a nice day.  *
