 Q-Chem 5.0, Q-Chem, Inc., Pleasanton, CA (2017)
 Q-Chem 5.0.1 for Intel X86 EM64T Linux

User input:
--------------------------------------------------------------
$molecule
0  1
O -1.8319626082 1.0528076029 1.1282462664
C -2.7840504531 1.5776579631 0.5056635252
C -4.0394058637 0.8680222492 -0.0987214857
C -3.7155260909 -0.3628927136 -1.0514729204
C -2.176177524 -0.6499513817 -1.198190024
O -1.8499988136 -1.842223769 -0.4917217584
C -0.4086532889 -2.1758924933 -0.599380709
C 0.3064755863 -1.8606072445 0.7632014346
O 1.7447758006 -2.1761967218 0.5792054
C 2.5906096 -1.1646124879 1.1550821097
C 3.9346082521 -1.1542069279 0.3396210956
C 3.9157124328 -0.2080741955 -0.9385084991
C 2.5184736895 0.3815537359 -1.3235356998
O 1.9597907915 0.3009534859 -2.4406753442
O -2.9547427115 2.9853002734 0.3148864062
O 1.9803885224 1.0584198796 -0.1916973618
O 2.2758978699 -0.4587283023 2.1345627249
C 0.6602336165 1.6514525177 -0.5023667966
C 5.0747563253 -0.4607939487 1.1954109339
C 6.4720500986 -0.717717455 0.5047377364
C 6.4143618346 0.300062939 -0.6949339181
C 4.9685535746 0.9062564014 -0.5017631863
O 4.8245034736 0.981442758 0.9672942396
H 4.1824752184 -2.1922669913 0.0545582644
H 4.2799067757 -0.7591358789 -1.8234906707
H 5.0294377054 -0.689918071 2.2775192424
H 7.2953383611 -0.4811147412 1.1972229514
H 6.581438521 -1.7617355422 0.1701743024
H 7.1773120125 1.0883231894 -0.5927604155
H 6.5366205831 -0.1863691598 -1.6758453844
H 4.8044636878 1.9004602791 -0.9606497011
O -1.3657304359 0.021186809 -1.8792173739
C -1.8646054267 3.7535839874 0.9606876286
C -4.9091150419 0.1489837405 1.026920265
C -6.3475283301 -0.1115554169 0.4315864932
C -6.0540668903 -1.3055343159 -0.5507467252
C -4.5062385933 -1.5244115113 -0.3167568412
O -4.3187827882 -1.2029595186 1.1179821893
H -4.6301965052 1.6342467936 -0.6303747378
H -4.1108929307 -0.1720013294 -2.0659309459
H -1.1358450097 4.0924704879 0.1972850665
H -4.8889784767 0.649553971 2.0143394002
H -7.0451345288 -0.4082424923 1.2309913133
H -6.7532948929 0.7747741017 -0.0816664489
H -6.6164575425 -2.2094390236 -0.2680902335
H -6.2836902375 -1.0602007624 -1.5999271761
H -4.1305731433 -2.5412909896 -0.5373324973
H -1.3410780441 3.130722704 1.7127308702
H -2.3226069131 4.6373122965 1.4443476178
H 0.7844411822 2.6772296078 -0.9043393982
H 0.095057672 1.6866562335 0.4485664547
H 0.0872451069 1.0354280034 -1.2318390605
H 0.1559349971 -0.7960708486 1.0427349421
H -0.1274532389 -2.4915805955 1.5696521916
H 0.0534850331 -1.5817163176 -1.4177509855
H -0.3381019588 -3.2580574043 -0.831746076
$end

$rem
JOBTYPE                   OPT
METHOD                    B3LYP
DFT_D                     d3_op
BASIS                     STO-3G
GEOM_OPT_MAX_CYCLES       100
GEOM_OPT_TOL_GRADIENT     300
GEOM_OPT_TOL_DISPLACEMENT 1200
GEOM_OPT_TOL_ENERGY       100
SYMMETRY                  False
THRESH                    12
SCF_CONVERGENCE           8
MAX_SUB_FILE_NUM          128
MEM_STATIC                400
MEM_TOTAL                 4000
$end
--------------------------------------------------------------

   16   -1510.2849551777      5.71E-09 Convergence criterion met
 Total energy in the final basis set = -1510.28495518
   14   -1510.2848424755      3.69E-09 Convergence criterion met
 Total energy in the final basis set = -1510.28484248
   14   -1510.2870541719      2.53E-09 Convergence criterion met
 Total energy in the final basis set = -1510.28705417
   14   -1510.2853659723      3.76E-09 Convergence criterion met
 Total energy in the final basis set = -1510.28536597
   14   -1510.2899914600      1.86E-09 Convergence criterion met
 Total energy in the final basis set = -1510.28999146
   13   -1510.2904729355      4.15E-09 Convergence criterion met
 Total energy in the final basis set = -1510.29047294
   13   -1510.2921942617      4.19E-09 Convergence criterion met
 Total energy in the final basis set = -1510.29219426
   13   -1510.2932740335      5.30E-09 Convergence criterion met
   11   -1510.2983880056      8.51E-09 Convergence criterion met
 Total energy in the final basis set = -1510.29838801
   11   -1510.2983859884      4.96E-09 Convergence criterion met
 Total energy in the final basis set = -1510.29838599
   10   -1510.2984029822      9.09E-09 Convergence criterion met
 Total energy in the final basis set = -1510.29840298
   11   -1510.2983922846      4.88E-09 Convergence criterion met
 Total energy in the final basis set = -1510.29839228
    9   -1510.2983970752      7.14E-09 Convergence criterion met
 Total energy in the final basis set = -1510.29839708
    9   -1510.2983990778      8.92E-09 Convergence criterion met
 Total energy in the final basis set = -1510.29839908

             Standard Nuclear Orientation (Angstroms)
    I     Atom           X                Y                Z
 ----------------------------------------------------------------
    1      O      -1.2975623043     0.9779643257    -0.1183181395
    2      C      -2.3566245934     1.1729948724     0.5279955503
    3      C      -3.8094680699     0.8578074395     0.0271054834
    4      C      -3.8601601300    -0.2534514223    -1.1086705754
    5      C      -2.4587738974    -0.8607937113    -1.4825987237
    6      O      -2.0849102578    -1.7995238539    -0.4638167757
    7      C      -0.6585580859    -2.1908571243    -0.6017463632
    8      C       0.0900439379    -1.4835021494     0.5788668576
    9      O       1.5551877192    -1.5119634893     0.3548650413
   10      C       2.1590282937    -0.3605118430     0.9565809345
   11      C       3.7020551010    -0.4399854847     0.6846754490
   12      C       4.0684267730    -0.5240264465    -0.8564591594
   13      C       2.8213929571    -0.4040784649    -1.7972006548
   14      O       2.5168783427    -1.1530672361    -2.7514506291
   15      O      -2.3898354168     1.7225164445     1.8338828040
   16      O       2.0792812303     0.7474284238    -1.3892285945
   17      O       1.5451349922     0.5041872707     1.6210575519
   18      C       0.8831531347     0.9475250703    -2.2433712240
   19      C       4.4500603110     0.8879142641     1.1131918828
   20      C       5.9896318203     0.5637241562     1.2402997535
   21      C       6.3913222740     0.4237664561    -0.2753339483
   22      C       5.0185885970     0.7457651410    -0.9902065422
   23      O       4.3808189830     1.7387079417    -0.0979641085
   24      H       4.0963918937    -1.3203729098     1.2250925236
   25      H       4.5946110581    -1.4625546214    -1.1027816625
   26      H       3.9881129480     1.4058799307     1.9762626446
   27      H       6.5204852837     1.4001004921     1.7224120623
   28      H       6.1768261700    -0.3556134881     1.8180147360
   29      H       7.1569502375     1.1624682150    -0.5613034871
   30      H       6.7620508179    -0.5830356100    -0.5263667787
   31      H       5.1055146246     1.1472696751    -2.0185392389
   32      O      -1.8048874896    -0.6467036577    -2.5267503452
   33      C      -1.0236595140     2.1084997452     2.2820802151
   34      C      -4.7300550123     0.2007102284     1.1425082085
   35      C      -6.2342959518     0.3300907099     0.6799266818
   36      C      -6.2957107097    -0.7571283921    -0.4565509275
   37      C      -4.8190927189    -1.3195024718    -0.4231569484
   38      O      -4.4504271594    -1.2459179772     1.0097106896
   39      H      -4.2464292337     1.8075487213    -0.3352196739
   40      H      -4.2978409854     0.1579905489    -2.0352335993
   41      H      -0.7434942340     3.0866365095     1.8410729454
   42      H      -4.5106930771     0.5521700282     2.1691138007
   43      H      -6.9132993652     0.0834339494     1.5115599738
   44      H      -6.4737516032     1.3420694582     0.3161324717
   45      H      -7.0168694351    -1.5538478826    -0.2144656715
   46      H      -6.5553445820    -0.3323078713    -1.4393722543
   47      H      -4.6982449558    -2.3531920482    -0.8002520832
   48      H      -0.2443015155     1.3606544431     2.0077042824
   49      H      -1.0872714295     2.2096064569     3.3807773631
   50      H       1.0018952372     1.8948692957    -2.8049491554
   51      H      -0.0069964618     1.0080709669    -1.5831092592
   52      H       0.7803814527     0.1032179429    -2.9530213999
   53      H      -0.2636313888    -0.4287695192     0.6081746293
   54      H      -0.1565379364    -1.9770064767     1.5435286917
   55      H      -0.2663850141    -1.8469094118    -1.5832247801
   56      H      -0.5929429804    -3.2956911876    -0.5355637312
 ----------------------------------------------------------------

    9   -1510.2983977049      6.20E-09 Convergence criterion met
 Total energy in the final basis set = -1510.29839770
 Final energy is   -1510.29839770492
 **  OPTIMIZATION CONVERGED  **

                    Orbital Energies (a.u.)
 --------------------------------------------------------------

 Alpha MOs
 -- Occupied --
-18.951 -18.929 -18.923 -18.919 -18.892 -18.890 -18.884 -18.875
-18.870 -18.863 -10.117 -10.101 -10.096 -10.088 -10.063 -10.062
-10.061 -10.057 -10.056 -10.055 -10.054 -10.046 -10.038 -10.035
-10.032 -10.031 -10.023 -10.021 -10.018 -10.017  -1.026  -1.011
 -1.004  -0.996  -0.972  -0.966  -0.949  -0.936  -0.930  -0.923
 -0.766  -0.760  -0.727  -0.721  -0.713  -0.702  -0.691  -0.663
 -0.641  -0.611  -0.595  -0.576  -0.548  -0.542  -0.539  -0.534
 -0.516  -0.504  -0.486  -0.472  -0.466  -0.462  -0.449  -0.437
 -0.435  -0.432  -0.425  -0.419  -0.408  -0.406  -0.400  -0.396
 -0.392  -0.380  -0.373  -0.365  -0.358  -0.352  -0.350  -0.344
 -0.341  -0.335  -0.333  -0.328  -0.326  -0.325  -0.316  -0.316
 -0.308  -0.305  -0.301  -0.300  -0.287  -0.286  -0.284  -0.280
 -0.268  -0.265  -0.243  -0.240  -0.235  -0.232  -0.230  -0.191
 -0.176  -0.168  -0.165  -0.159  -0.155  -0.150  -0.146  -0.143
 -0.139

          Ground-State Mulliken Net Atomic Charges

     Atom                 Charge (a.u.)
  ----------------------------------------
      1 O                    -0.217553
      2 C                     0.223476
      3 C                    -0.077675
      4 C                    -0.080234
      5 C                     0.212573
      6 O                    -0.175572
      7 C                    -0.053335
      8 C                    -0.061988
      9 O                    -0.176106
     10 C                     0.223018
     11 C                    -0.077618
     12 C                    -0.077995
     13 C                     0.211028
     14 O                    -0.217523
     15 O                    -0.164217
     16 O                    -0.171720
     17 O                    -0.218353
     18 C                    -0.147886
     19 C                     0.024762
     20 C                    -0.143730
     21 C                    -0.144210
     22 C                     0.026049
     23 O                    -0.185400
     24 H                     0.083780
     25 H                     0.084318
     26 H                     0.088378
     27 H                     0.077332
     28 H                     0.072419
     29 H                     0.077316
     30 H                     0.073483
     31 H                     0.082705
     32 O                    -0.214543
     33 C                    -0.140109
     34 C                     0.024244
     35 C                    -0.143745
     36 C                    -0.144369
     37 C                     0.026814
     38 O                    -0.186637
     39 H                     0.087409
     40 H                     0.084525
     41 H                     0.086553
     42 H                     0.091099
     43 H                     0.078752
     44 H                     0.073457
     45 H                     0.078439
     46 H                     0.073996
     47 H                     0.086530
     48 H                     0.118607
     49 H                     0.089624
     50 H                     0.078430
     51 H                     0.107751
     52 H                     0.098698
     53 H                     0.106151
     54 H                     0.079011
     55 H                     0.104276
     56 H                     0.085516
  ----------------------------------------
  Sum of atomic charges =    -0.000000

                    Cartesian Multipole Moments
 -----------------------------------------------------------------
    Charge (ESU x 10^10)
                 0.0000
    Dipole Moment (Debye)
         X      -1.1088      Y       0.4760      Z       1.6099
       Tot       2.0119
    Quadrupole Moments (Debye-Ang)
        XX    -134.8785     XY      -7.2811     YY    -160.3820
        XZ       6.5597     YZ      -1.6747     ZZ    -164.5025

 Total job time:  114.50s(wall), 5462.05s(cpu)
        *  Thank you very much for using Q-Chem.  Have a nice day.  *
