 Q-Chem 5.0, Q-Chem, Inc., Pleasanton, CA (2017)
 Q-Chem 5.0.1 for Intel X86 EM64T Linux

User input:
--------------------------------------------------------------
$molecule
0  1
O 1.6924674029 -0.7045378191 0.8716812299
C 2.6421172163 -1.413698108 0.4626568771
C 3.8749732394 -0.9119853442 -0.3644127424
C 3.6144356526 0.5336496698 -0.9528173007
C 2.0921862017 0.9294960296 -0.9365355019
O 1.898924915 2.0960839554 -0.1372627615
C 0.4781648174 2.5216633616 -0.1739972852
C -0.2832145541 1.8556961853 1.0290068086
O -1.7386819833 2.0308475646 0.8015259719
C -2.4771048968 0.8789066573 1.235335596
C -3.8765203704 0.9279969281 0.5252814135
C -3.9007504458 0.2987638909 -0.9353298797
C -2.5210713699 -0.1847150473 -1.4970109386
O -1.9828742615 0.1906121491 -2.5626654539
O 2.8128119625 -2.7920276545 0.7778557684
O -1.9896524191 -1.1823720937 -0.6286099893
O -2.0397135262 0.0143340253 2.0224140788
C -0.7223671497 -1.7164163739 -1.1827005718
C -4.9173266336 -0.0106361865 1.2692859043
C -6.3733819799 0.3511922892 0.7737287008
C -6.3803565739 -0.3046349817 -0.657000856
C -4.9207272683 -0.904445251 -0.7210807639
O -4.6643641619 -1.340784178 0.6684576153
H -4.2104304946 1.9807985059 0.4947628393
H -4.2993914058 1.0327235159 -1.6577796412
H -4.7838587591 -0.0547317165 2.3674033038
H -7.1292990244 -0.105793347 1.4318464482
H -6.5429461744 1.4393800404 0.7435637333
H -7.1306693966 -1.1081450463 -0.729797123
H -6.5653241584 0.4258009427 -1.4606716356
H -4.7881785365 -1.7499754706 -1.4234924453
O 1.2075390768 0.4309897881 -1.6730761927
C 1.734462515 -3.2495658666 1.6877733186
C 5.0570974688 -0.6006083421 0.6532494498
C 6.3602858778 -0.2358195538 -0.1613848068
C 6.0422580609 1.2395242329 -0.607171247
C 4.5762879208 1.413067606 -0.047738668
O 4.6257919394 0.687166697 1.2444723367
H 4.1537362127 -1.6565599004 -1.1307961098
H 3.9339022622 0.5703266251 -2.0106475679
H 0.7396572544 -3.2019315442 1.2004016009
H 5.1899030169 -1.3694835696 1.4389861808
H 7.2476230091 -0.282115824 0.4896038702
H 6.5137813705 -0.914926159 -1.0154146177
H 6.7228359995 1.9595579765 -0.1253740218
H 6.0953568459 1.3781609276 -1.6987850158
H 4.2346790112 2.4543377037 0.104052082
H 1.7006304826 -2.6417965668 2.6146280918
H 1.9735331369 -4.2995894875 1.9371107413
H -0.3342614766 -2.4101294685 -0.4161558286
H 0.017895489 -0.9035618222 -1.3785607677
H -0.904854052 -2.2750230084 -2.1233172715
H -0.0129859562 0.7777040291 1.0862954123
H 0.0178168004 2.3355629111 1.9854704847
H 0.0115993889 2.1952583636 -1.1290774456
H 0.4709368677 3.6268823747 -0.0981622286
$end

$rem
JOBTYPE                   OPT
METHOD                    B3LYP
DFT_D                     d3_op
BASIS                     STO-3G
GEOM_OPT_MAX_CYCLES       100
GEOM_OPT_TOL_GRADIENT     300
GEOM_OPT_TOL_DISPLACEMENT 1200
GEOM_OPT_TOL_ENERGY       100
SYMMETRY                  False
THRESH                    12
SCF_CONVERGENCE           8
MAX_SUB_FILE_NUM          128
MEM_STATIC                400
MEM_TOTAL                 4000
$end
--------------------------------------------------------------

   16   -1510.2892970157      6.50E-09 Convergence criterion met
 Total energy in the final basis set = -1510.28929702
   14   -1510.2897300390      3.66E-09 Convergence criterion met
 Total energy in the final basis set = -1510.28973004
   14   -1510.2876377046      3.03E-09 Convergence criterion met
 Total energy in the final basis set = -1510.28763770
   13   -1510.2914118456      6.17E-09 Convergence criterion met
 Total energy in the final basis set = -1510.29141185
   14   -1510.2620242546      5.40E-09 Convergence criterion met
 Total energy in the final basis set = -1510.26202425
   14   -1510.2909415035      4.45E-09 Convergence criterion met
 Total energy in the final basis set = -1510.29094150
   14   -1510.2884466324      5.41E-09 Convergence criterion met
 Total energy in the final basis set = -1510.28844663
   13   -1510.2904809070      4.68E-09 Convergence criterion met
   12   -1510.2980918744      8.40E-09 Convergence criterion met
 Total energy in the final basis set = -1510.29809187
   12   -1510.2980824702      8.43E-09 Convergence criterion met
 Total energy in the final basis set = -1510.29808247
   12   -1510.2981004915      4.02E-09 Convergence criterion met
 Total energy in the final basis set = -1510.29810049
    9   -1510.2981043285      9.87E-09 Convergence criterion met
 Total energy in the final basis set = -1510.29810433
   10   -1510.2981045935      4.96E-09 Convergence criterion met
 Total energy in the final basis set = -1510.29810459
    9   -1510.2981037709      5.73E-09 Convergence criterion met
 Total energy in the final basis set = -1510.29810377

             Standard Nuclear Orientation (Angstroms)
    I     Atom           X                Y                Z
 ----------------------------------------------------------------
    1      O      -1.1863951007     0.8560417584    -0.2160102397
    2      C      -2.2675649031     1.2994073819     0.2428196927
    3      C      -3.6982940281     0.9097712989    -0.2644226716
    4      C      -3.7119304165    -0.4324122140    -1.1152039864
    5      C      -2.3111559353    -1.1441915164    -1.2105645872
    6      O      -2.0868196398    -1.8696690911     0.0033617998
    7      C      -0.6840813658    -2.3510165111     0.0849854045
    8      C       0.0511696464    -1.3968951666     1.0884606598
    9      O       1.5156082503    -1.4673234258     0.8738907666
   10      C       2.1108389852    -0.1956272332     1.1546567099
   11      C       3.6484150928    -0.3324224011     0.8853057315
   12      C       3.9924037579    -0.7832972850    -0.5963763464
   13      C       2.7424223317    -0.8694487115    -1.5429399225
   14      O       2.4397738662    -1.8041850028    -2.3161763424
   15      O      -2.3564300399     2.2355060315     1.3045046405
   16      O       2.0177912098     0.3552986557    -1.4235712142
   17      O       1.4957495156     0.8062090873     1.5829101532
   18      C       0.9268567663     0.4246841285    -2.4251713614
   19      C       4.3963069757     1.0602614272     0.9719119158
   20      C       5.9362418051     0.7745363915     1.1627702117
   21      C       6.3260730129     0.2673553168    -0.2760560031
   22      C       4.9474765864     0.4102844738    -1.0382180405
   23      O       4.3182334818     1.5922951956    -0.4084345177
   24      H       4.0581781089    -1.0564588086     1.6136093567
   25      H       4.5085904697    -1.7586453497    -0.6187842750
   26      H       3.9396999548     1.7719511658     1.6869037778
   27      H       6.4712279999     1.7024118376     1.4207251723
   28      H       6.1289499884     0.0248847023     1.9467248284
   29      H       7.0911713760     0.9103896295    -0.7391325302
   30      H       6.6914421551    -0.7722034394    -0.2754925063
   31      H       5.0285587615     0.5511320118    -2.1335983234
   32      O      -1.5589951917    -1.1846566808    -2.2126550585
   33      C      -1.0013072767     2.6599541525     1.7508090421
   34      C      -4.7051840472     0.5423108563     0.9090243455
   35      C      -6.1729746146     0.6072371703     0.3303959920
   36      C      -6.2081321318    -0.6993682789    -0.5462524855
   37      C      -4.7638686422    -1.2859097889    -0.2843615459
   38      O      -4.4806429464    -0.9047840139     1.1191637268
   39      H      -4.0874028220     1.7572547859    -0.8590313661
   40      H      -4.0565536346    -0.2391563440    -2.1463112040
   41      H      -0.6553941320     3.5146719235     1.1347352838
   42      H      -4.5305009501     1.1087736243     1.8443190101
   43      H      -6.9095421804     0.5646184491     1.1486081238
   44      H      -6.3491797247     1.5221703426    -0.2576117899
   45      H      -6.9781784617    -1.4034085393    -0.1928638312
   46      H      -6.3835961022    -0.4919784816    -1.6139742896
   47      H      -4.6695615544    -2.3811038414    -0.4144287904
   48      H      -0.2466915099     1.8432805659     1.6811284515
   49      H      -1.1151851689     2.9912463980     2.7992294474
   50      H       0.5113180719     1.4446657433    -2.3354537108
   51      H       0.1128837295    -0.3151682517    -2.2401129952
   52      H       1.3213426603     0.2743288133    -3.4503476346
   53      H      -0.3015370136    -0.3616101726     0.8775514476
   54      H      -0.1941690963    -1.6651883239     2.1381817674
   55      H      -0.2058600034    -2.3058581218    -0.9175196854
   56      H      -0.7064887977    -3.3995263008     0.4439256281
 ----------------------------------------------------------------

    9   -1510.2981036062      5.01E-09 Convergence criterion met
 Total energy in the final basis set = -1510.29810361
 Final energy is   -1510.29810360617
 **  OPTIMIZATION CONVERGED  **

                    Orbital Energies (a.u.)
 --------------------------------------------------------------

 Alpha MOs
 -- Occupied --
-18.948 -18.928 -18.927 -18.918 -18.890 -18.888 -18.883 -18.875
-18.873 -18.859 -10.112 -10.101 -10.100 -10.085 -10.063 -10.062
-10.062 -10.055 -10.054 -10.054 -10.053 -10.045 -10.039 -10.033
-10.033 -10.030 -10.023 -10.022 -10.017 -10.016  -1.023  -1.010
 -1.006  -0.994  -0.972  -0.965  -0.946  -0.936  -0.931  -0.920
 -0.766  -0.758  -0.727  -0.720  -0.713  -0.701  -0.690  -0.661
 -0.641  -0.611  -0.595  -0.576  -0.548  -0.541  -0.539  -0.533
 -0.516  -0.504  -0.485  -0.471  -0.465  -0.460  -0.449  -0.438
 -0.436  -0.431  -0.425  -0.416  -0.407  -0.402  -0.397  -0.396
 -0.392  -0.381  -0.371  -0.364  -0.356  -0.354  -0.352  -0.343
 -0.342  -0.334  -0.333  -0.326  -0.325  -0.322  -0.317  -0.315
 -0.307  -0.304  -0.301  -0.299  -0.287  -0.285  -0.283  -0.282
 -0.266  -0.263  -0.245  -0.239  -0.236  -0.233  -0.229  -0.189
 -0.177  -0.167  -0.165  -0.160  -0.153  -0.151  -0.146  -0.138
 -0.137

          Ground-State Mulliken Net Atomic Charges

     Atom                 Charge (a.u.)
  ----------------------------------------
      1 O                    -0.213793
      2 C                     0.218854
      3 C                    -0.078127
      4 C                    -0.079913
      5 C                     0.219563
      6 O                    -0.172444
      7 C                    -0.053010
      8 C                    -0.062964
      9 O                    -0.175835
     10 C                     0.223240
     11 C                    -0.078065
     12 C                    -0.078132
     13 C                     0.208518
     14 O                    -0.216772
     15 O                    -0.166076
     16 O                    -0.170471
     17 O                    -0.217370
     18 C                    -0.138615
     19 C                     0.024704
     20 C                    -0.143750
     21 C                    -0.144303
     22 C                     0.025792
     23 O                    -0.185695
     24 H                     0.083583
     25 H                     0.083617
     26 H                     0.088022
     27 H                     0.077008
     28 H                     0.072235
     29 H                     0.077112
     30 H                     0.073300
     31 H                     0.082039
     32 O                    -0.217939
     33 C                    -0.140800
     34 C                     0.024486
     35 C                    -0.143460
     36 C                    -0.144522
     37 C                     0.026845
     38 O                    -0.186481
     39 H                     0.087214
     40 H                     0.084942
     41 H                     0.085620
     42 H                     0.090190
     43 H                     0.078724
     44 H                     0.073635
     45 H                     0.078532
     46 H                     0.074004
     47 H                     0.086550
     48 H                     0.119480
     49 H                     0.088490
     50 H                     0.085278
     51 H                     0.108296
     52 H                     0.079561
     53 H                     0.109666
     54 H                     0.078442
     55 H                     0.104645
     56 H                     0.086352
  ----------------------------------------
  Sum of atomic charges =     0.000000

                    Cartesian Multipole Moments
 -----------------------------------------------------------------
    Charge (ESU x 10^10)
                 0.0000
    Dipole Moment (Debye)
         X      -1.1789      Y       0.8314      Z       1.2405
       Tot       1.9026
    Quadrupole Moments (Debye-Ang)
        XX    -136.2751     XY      -5.1721     YY    -160.9941
        XZ       9.0172     YZ      -3.0185     ZZ    -161.9483

 Total job time:  133.19s(wall), 6357.70s(cpu)
        *  Thank you very much for using Q-Chem.  Have a nice day.  *
