 Q-Chem 5.0, Q-Chem, Inc., Pleasanton, CA (2017)
 Q-Chem 5.0.1 for Intel X86 EM64T Linux

User input:
--------------------------------------------------------------
$molecule
0  1
O -3.94934 -3.66094 2.70899
C -3.26408 -4.56952 2.26188
C -3.36658 -6.02376 2.66595
C -4.15352 -6.34311 3.94759
C -4.89986 -5.1922 4.58514
O -6.23624 -5.47129 4.62542
C -7.00409 -4.45587 5.28009
C -7.51066 -3.44073 4.26077
O -8.01523 -2.27833 4.93687
C -7.77304 -1.09455 4.32111
C -7.89422 0.08846 5.25193
C -6.62771 0.40966 6.05882
C -5.35055 -0.24538 5.5725
O -4.62361 -0.96499 6.24204
O -2.42672 -4.30215 1.2257
O -4.98307 0.01406 4.28792
O -7.64529 -0.98367 3.10765
C -3.77965 -0.36363 3.73187
C -8.09402 1.45126 4.53997
C -8.77478 2.43221 5.49525
C -7.65437 2.68717 6.48442
C -6.51282 1.92156 5.80487
O -6.80855 2.01011 4.43239
H -8.80187 -0.07827 5.87599
H -6.74472 0.14634 7.13325
H -8.67648 1.37719 3.59587
H -8.95564 3.36644 4.91607
H -9.73399 2.09351 5.94239
H -7.44957 3.78037 6.50896
H -7.83373 2.30692 7.51353
H -5.52365 2.32317 6.11815
O -4.34639 -4.25428 5.15026
C -2.23955 -3.04734 0.68431
C -4.10311 -6.88307 1.6262
C -3.63756 -8.33157 1.73606
C -4.27087 -8.72906 3.05169
C -5.071 -7.45908 3.37386
O -5.4225 -6.95117 2.10972
H -2.31299 -6.36703 2.78026
H -3.49909 -6.75599 4.74716
H -1.84768 -2.35188 1.45734
H -3.98124 -6.51595 0.58356
H -4.13531 -8.89732 0.91593
H -2.53863 -8.48425 1.6727
H -4.95462 -9.58679 2.86377
H -3.5579 -8.98396 3.86535
H -5.91099 -7.73334 4.04801
H -3.19838 -2.65722 0.28071
H -1.50403 -3.11395 -0.14332
H -3.75455 -0.05254 2.66746
H -3.65756 -1.46153 3.79286
H -2.94198 0.12838 4.27045
H -6.63835 -3.16705 3.6218
H -8.29012 -3.89969 3.61569
H -6.43121 -3.93372 6.08031
H -7.8693 -4.91694 5.80127
$end

$opt
CONSTRAINT
tors           1           2           3           4     -14.662
tors           3           4           5           6    +119.642
tors           4           5           6           7    +176.942
tors           5           6           7           8     +92.238
tors           6           7           8           9    -167.120
tors           7           8           9          10    +143.082
tors           8           9          10          11    -160.706
tors           9          10          11          12     +84.990
tors          11          12          13          14    -123.271
ENDCONSTRAINT
$end

$rem
JOBTYPE                   OPT
METHOD                    B3LYP
DFT_D                     d3_op
BASIS                     STO-3G
GEOM_OPT_MAX_CYCLES       100
GEOM_OPT_TOL_GRADIENT     300
GEOM_OPT_TOL_DISPLACEMENT 1200
GEOM_OPT_TOL_ENERGY       100
SYMMETRY                  False
THRESH                    12
SCF_CONVERGENCE           8
MAX_SUB_FILE_NUM          128
MEM_STATIC                400
MEM_TOTAL                 4000
$end
--------------------------------------------------------------

   15   -1510.1508638309      7.26E-09 Convergence criterion met
 Total energy in the final basis set = -1510.15086383
   14   -1510.2203869007      6.44E-09 Convergence criterion met
 Total energy in the final basis set = -1510.22038690
   14   -1510.2560173794      8.97E-09 Convergence criterion met
 Total energy in the final basis set = -1510.25601738
   15   -1510.2679193719      2.61E-09 Convergence criterion met
 Total energy in the final basis set = -1510.26791937
   13   -1510.2759739634      7.60E-09 Convergence criterion met
 Total energy in the final basis set = -1510.27597396
    2   -1510.2759739634      9.94E-09 Convergence criterion met
 Total energy in the final basis set = -1510.27597396
   13   -1510.2807717320      6.01E-09 Convergence criterion met
 Total energy in the final basis set = -1510.28077173
   13   -1510.2821474576      3.64E-09 Convergence criterion met
   12   -1510.2887361133      3.73E-09 Convergence criterion met
 Total energy in the final basis set = -1510.28873611
   11   -1510.2888044587      4.31E-09 Convergence criterion met
 Total energy in the final basis set = -1510.28880446
   11   -1510.2888451158      9.15E-09 Convergence criterion met
 Total energy in the final basis set = -1510.28884512
   11   -1510.2888607631      2.78E-09 Convergence criterion met
 Total energy in the final basis set = -1510.28886076
   10   -1510.2888700063      9.95E-09 Convergence criterion met
 Total energy in the final basis set = -1510.28887001
    9   -1510.2888721801      5.80E-09 Convergence criterion met
 Total energy in the final basis set = -1510.28887218

             Standard Nuclear Orientation (Angstroms)
    I     Atom           X                Y                Z
 ----------------------------------------------------------------
    1      O       1.6924674029    -0.7045378191     0.8716812299
    2      C       2.6421172163    -1.4136981080     0.4626568771
    3      C       3.8749732394    -0.9119853442    -0.3644127424
    4      C       3.6144356526     0.5336496698    -0.9528173007
    5      C       2.0921862017     0.9294960296    -0.9365355019
    6      O       1.8989249150     2.0960839554    -0.1372627615
    7      C       0.4781648174     2.5216633616    -0.1739972852
    8      C      -0.2832145541     1.8556961853     1.0290068086
    9      O      -1.7386819833     2.0308475646     0.8015259719
   10      C      -2.4771048968     0.8789066573     1.2353355960
   11      C      -3.8765203704     0.9279969281     0.5252814135
   12      C      -3.9007504458     0.2987638909    -0.9353298797
   13      C      -2.5210713699    -0.1847150473    -1.4970109386
   14      O      -1.9828742615     0.1906121491    -2.5626654539
   15      O       2.8128119625    -2.7920276545     0.7778557684
   16      O      -1.9896524191    -1.1823720937    -0.6286099893
   17      O      -2.0397135262     0.0143340253     2.0224140788
   18      C      -0.7223671497    -1.7164163739    -1.1827005718
   19      C      -4.9173266336    -0.0106361865     1.2692859043
   20      C      -6.3733819799     0.3511922892     0.7737287008
   21      C      -6.3803565739    -0.3046349817    -0.6570008560
   22      C      -4.9207272683    -0.9044452510    -0.7210807639
   23      O      -4.6643641619    -1.3407841780     0.6684576153
   24      H      -4.2104304946     1.9807985059     0.4947628393
   25      H      -4.2993914058     1.0327235159    -1.6577796412
   26      H      -4.7838587591    -0.0547317165     2.3674033038
   27      H      -7.1292990244    -0.1057933470     1.4318464482
   28      H      -6.5429461744     1.4393800404     0.7435637333
   29      H      -7.1306693966    -1.1081450463    -0.7297971230
   30      H      -6.5653241584     0.4258009427    -1.4606716356
   31      H      -4.7881785365    -1.7499754706    -1.4234924453
   32      O       1.2075390768     0.4309897881    -1.6730761927
   33      C       1.7344625150    -3.2495658666     1.6877733186
   34      C       5.0570974688    -0.6006083421     0.6532494498
   35      C       6.3602858778    -0.2358195538    -0.1613848068
   36      C       6.0422580609     1.2395242329    -0.6071712470
   37      C       4.5762879208     1.4130676060    -0.0477386680
   38      O       4.6257919394     0.6871666970     1.2444723367
   39      H       4.1537362127    -1.6565599004    -1.1307961098
   40      H       3.9339022622     0.5703266251    -2.0106475679
   41      H       0.7396572544    -3.2019315442     1.2004016009
   42      H       5.1899030169    -1.3694835696     1.4389861808
   43      H       7.2476230091    -0.2821158240     0.4896038702
   44      H       6.5137813705    -0.9149261590    -1.0154146177
   45      H       6.7228359995     1.9595579765    -0.1253740218
   46      H       6.0953568459     1.3781609276    -1.6987850158
   47      H       4.2346790112     2.4543377037     0.1040520820
   48      H       1.7006304826    -2.6417965668     2.6146280918
   49      H       1.9735331369    -4.2995894875     1.9371107413
   50      H      -0.3342614766    -2.4101294685    -0.4161558286
   51      H       0.0178954890    -0.9035618222    -1.3785607677
   52      H      -0.9048540520    -2.2750230084    -2.1233172715
   53      H      -0.0129859562     0.7777040291     1.0862954123
   54      H       0.0178168004     2.3355629111     1.9854704847
   55      H       0.0115993889     2.1952583636    -1.1290774456
   56      H       0.4709368677     3.6268823747    -0.0981622286
 ----------------------------------------------------------------

    9   -1510.2888730378      4.24E-09 Convergence criterion met
 Total energy in the final basis set = -1510.28887304
 Final energy is   -1510.28887303782
 **  OPTIMIZATION CONVERGED  **

                    Orbital Energies (a.u.)
 --------------------------------------------------------------

 Alpha MOs
 -- Occupied --
-18.949 -18.935 -18.920 -18.918 -18.891 -18.889 -18.881 -18.871
-18.870 -18.859 -10.111 -10.105 -10.091 -10.085 -10.070 -10.066
-10.066 -10.061 -10.058 -10.054 -10.052 -10.045 -10.040 -10.034
-10.030 -10.029 -10.025 -10.023 -10.015 -10.014  -1.024  -1.011
 -1.001  -0.995  -0.974  -0.963  -0.948  -0.936  -0.927  -0.921
 -0.768  -0.756  -0.728  -0.720  -0.714  -0.701  -0.691  -0.669
 -0.644  -0.612  -0.595  -0.576  -0.550  -0.541  -0.538  -0.531
 -0.517  -0.504  -0.485  -0.471  -0.466  -0.457  -0.455  -0.440
 -0.434  -0.429  -0.424  -0.419  -0.413  -0.407  -0.396  -0.395
 -0.391  -0.380  -0.371  -0.364  -0.359  -0.356  -0.350  -0.347
 -0.339  -0.338  -0.334  -0.329  -0.324  -0.321  -0.318  -0.315
 -0.308  -0.303  -0.300  -0.299  -0.291  -0.286  -0.281  -0.274
 -0.265  -0.264  -0.249  -0.240  -0.237  -0.232  -0.227  -0.189
 -0.181  -0.165  -0.162  -0.158  -0.156  -0.147  -0.146  -0.138
 -0.136

          Ground-State Mulliken Net Atomic Charges

     Atom                 Charge (a.u.)
  ----------------------------------------
      1 O                    -0.207709
      2 C                     0.217331
      3 C                    -0.077494
      4 C                    -0.080361
      5 C                     0.222532
      6 O                    -0.169240
      7 C                    -0.050723
      8 C                    -0.055250
      9 O                    -0.181368
     10 C                     0.212583
     11 C                    -0.078008
     12 C                    -0.079674
     13 C                     0.202668
     14 O                    -0.215134
     15 O                    -0.166414
     16 O                    -0.168308
     17 O                    -0.203336
     18 C                    -0.143827
     19 C                     0.025499
     20 C                    -0.144591
     21 C                    -0.143784
     22 C                     0.026467
     23 O                    -0.184535
     24 H                     0.083856
     25 H                     0.082929
     26 H                     0.085590
     27 H                     0.076823
     28 H                     0.072419
     29 H                     0.076731
     30 H                     0.073080
     31 H                     0.082334
     32 O                    -0.225204
     33 C                    -0.128000
     34 C                     0.024686
     35 C                    -0.144304
     36 C                    -0.143136
     37 C                     0.023965
     38 O                    -0.189694
     39 H                     0.088997
     40 H                     0.085753
     41 H                     0.092704
     42 H                     0.084943
     43 H                     0.079145
     44 H                     0.074661
     45 H                     0.078751
     46 H                     0.073992
     47 H                     0.093576
     48 H                     0.095076
     49 H                     0.093790
     50 H                     0.076536
     51 H                     0.113646
     52 H                     0.077737
     53 H                     0.108592
     54 H                     0.081990
     55 H                     0.102570
     56 H                     0.088143
  ----------------------------------------
  Sum of atomic charges =     0.000000

                    Cartesian Multipole Moments
 -----------------------------------------------------------------
    Charge (ESU x 10^10)
                -0.0000
    Dipole Moment (Debye)
         X       1.7857      Y       0.1611      Z      -0.5204
       Tot       1.8670
    Quadrupole Moments (Debye-Ang)
        XX    -136.5823     XY      -7.4459     YY    -153.4774
        XZ      -2.9726     YZ      -0.0398     ZZ    -165.5053

 Total job time:  66.83s(wall), 3183.44s(cpu)
        *  Thank you very much for using Q-Chem.  Have a nice day.  *
