 Q-Chem 5.0, Q-Chem, Inc., Pleasanton, CA (2017)
 Q-Chem 5.0.1 for Intel X86 EM64T Linux

User input:
--------------------------------------------------------------
$molecule
0  1
O 2.2479676227 -1.512265293 0.1095765195
C 3.3702172476 -1.5821784631 -0.4404030082
C 4.3231858034 -0.3946017753 -0.7821165856
C 3.5932893723 1.011259313 -0.756353028
C 2.0638969364 0.9441299131 -0.3784619865
O 1.8986828276 1.1601640202 1.0273386027
C 0.4593700479 1.1391232798 1.3862859391
C -0.1126687154 -0.3234720706 1.4617188325
O -1.5572519756 -0.2402204085 1.7855434587
C -2.3258420983 -0.8034479729 0.7070878711
C -3.8450034634 -0.6330815988 1.0565082839
C -4.494980125 0.6936458833 0.4600439173
C -3.4766585867 1.706024848 -0.1677770361
O -3.3592185844 2.9184919402 0.1237759234
O 3.9959832619 -2.8045257999 -0.8296987052
O -2.7063461388 1.0305714267 -1.1588498846
O -1.8257621955 -1.4149093956 -0.2612953336
C -1.6737073179 1.9218290466 -1.7429159379
C -4.6936943001 -1.736735133 0.2973048514
C -6.1662010121 -1.7407915542 0.8703264625
C -6.7676039473 -0.4598316645 0.1812967048
C -5.5074120374 0.076764346 -0.6047482089
O -4.840885089 -1.1617577987 -1.0599865324
H -3.9632752616 -0.6739086218 2.1536746204
H -5.0428281951 1.2412201833 1.2475586186
H -4.2017095939 -2.7268240135 0.2411883864
H -6.6981818886 -2.6547052928 0.5623702769
H -6.1819894434 -1.6763042329 1.9700971358
H -7.5729205108 -0.7222905197 -0.5235184523
H -7.1570375109 0.273707847 0.9052554373
H -5.7320043968 0.7361467295 -1.4653938512
O 1.1226577647 0.8536453159 -1.2014301165
C 3.1203242918 -3.9524306262 -0.4918110209
C 5.4437741741 -0.1778058297 0.3286592541
C 6.5721511796 0.7327214945 -0.2963995571
C 5.8600533821 2.1359686029 -0.297361558
C 4.4595181061 1.770625778 0.336157907
O 4.7857451015 0.7060554891 1.3146183316
H 4.7841544067 -0.5951816667 -1.7657670542
H 3.657481146 1.497655254 -1.7459906499
H 2.135977844 -3.875306288 -0.9968718486
H 5.7981410714 -1.1101526506 0.8099157
H 7.46530879 0.7331281774 0.3484060571
H 6.8630301406 0.3999419191 -1.3055027649
H 6.3932628281 2.8595200329 0.3393723024
H 5.7590678293 2.56192104 -1.3084321837
H 3.9335307459 2.6058136272 0.8366509049
H 2.9511259162 -4.0267615379 0.601883996
H 3.6514782697 -4.8545267247 -0.8468601096
H -1.8521924099 1.9960856288 -2.83302266
H -0.6687199863 1.4758530624 -1.5557356448
H -1.7505745948 2.9266214533 -1.2813568948
H 0.0108633461 -0.8511751495 0.4919337703
H 0.3999318611 -0.8944493966 2.2626260838
H -0.1383926414 1.7279949938 0.6594978237
H 0.3976914557 1.6243342109 2.3810539936
$end

$rem
JOBTYPE                   OPT
METHOD                    B3LYP
DFT_D                     d3_op
BASIS                     STO-3G
GEOM_OPT_MAX_CYCLES       100
GEOM_OPT_TOL_GRADIENT     300
GEOM_OPT_TOL_DISPLACEMENT 1200
GEOM_OPT_TOL_ENERGY       100
SYMMETRY                  False
THRESH                    12
SCF_CONVERGENCE           8
MAX_SUB_FILE_NUM          128
MEM_STATIC                400
MEM_TOTAL                 4000
$end
--------------------------------------------------------------

   15   -1510.2896188643      9.19E-09 Convergence criterion met
 Total energy in the final basis set = -1510.28961886
   15   -1510.2656406908      3.51E-09 Convergence criterion met
 Total energy in the final basis set = -1510.26564069
   14   -1510.2904457091      4.23E-09 Convergence criterion met
 Total energy in the final basis set = -1510.29044571
   14   -1510.2889812259      2.42E-09 Convergence criterion met
 Total energy in the final basis set = -1510.28898123
   13   -1510.2905506779      6.14E-09 Convergence criterion met
 Total energy in the final basis set = -1510.29055068
   14   -1510.2899680564      3.50E-09 Convergence criterion met
 Total energy in the final basis set = -1510.28996806
   14   -1510.2919679430      5.59E-09 Convergence criterion met
 Total energy in the final basis set = -1510.29196794
   13   -1510.2925926564      5.16E-09 Convergence criterion met
   11   -1510.2981215275      5.71E-09 Convergence criterion met
 Total energy in the final basis set = -1510.29812153
   10   -1510.2981230879      9.49E-09 Convergence criterion met
 Total energy in the final basis set = -1510.29812309
    9   -1510.2981258107      5.98E-09 Convergence criterion met
 Total energy in the final basis set = -1510.29812581
    9   -1510.2981247375      5.53E-09 Convergence criterion met
 Total energy in the final basis set = -1510.29812474
    9   -1510.2981231361      4.92E-09 Convergence criterion met
 Total energy in the final basis set = -1510.29812314
    9   -1510.2981207044      3.61E-09 Convergence criterion met
 Total energy in the final basis set = -1510.29812070

             Standard Nuclear Orientation (Angstroms)
    I     Atom           X                Y                Z
 ----------------------------------------------------------------
    1      O       1.1704956992    -0.2719851514    -0.5721983242
    2      C       2.2746314450    -0.8259419423    -0.7906329332
    3      C       3.6518833353    -0.0954307423    -0.9319677238
    4      C       3.5754904976     1.4403849000    -0.5355289887
    5      C       2.1375859552     1.9192715211    -0.1036380932
    6      O       1.9733347215     1.6730827017     1.2986124925
    7      C       0.5557810014     1.8444650439     1.7032086941
    8      C      -0.0148055633     0.4086355202     1.9796158842
    9      O      -1.4872863756     0.4122071244     1.8091203737
   10      C      -1.9179814265    -0.7952544011     1.1722332185
   11      C      -3.4810289361    -0.7284657940     1.0697878309
   12      C      -4.0117539917     0.5028066314     0.2224243271
   13      C      -2.8808668618     1.3461151219    -0.4653162848
   14      O      -2.7517642853     2.5898113078    -0.4530517680
   15      O       2.4460955252    -2.2269586487    -0.9349368917
   16      O      -2.0349796344     0.4474342474    -1.1828797790
   17      O      -1.1679912575    -1.7352082811     0.8281364453
   18      C      -1.0606745802     1.1923047032    -2.0164750555
   19      C      -4.0873857725    -1.9503655423     0.2651658929
   20      C      -5.6208770066    -2.0529037502     0.6254203733
   21      C      -6.1945698386    -0.8138211505    -0.1580326174
   22      C      -4.8902040529    -0.2623494974    -0.8628674696
   23      O      -4.0982066933    -1.4807498770    -1.1396977761
   24      H      -3.8825251591    -0.6866055547     2.0990523856
   25      H      -4.6221857566     1.1869299227     0.8372855442
   26      H      -3.5011954390    -2.8855113618     0.3557815971
   27      H      -6.0434851970    -2.9985711561     0.2500765104
   28      H      -5.7988658016    -1.9916253301     1.7108670335
   29      H      -6.9399986072    -1.1179154500    -0.9100774457
   30      H      -6.6508966046    -0.0645213630     0.5086540650
   31      H      -5.0658996589     0.3071169435    -1.7962962905
   32      O       1.3134682561     2.5390389038    -0.8173047690
   33      C       1.1360571932    -2.9279052586    -0.8443314039
   34      C       4.7218872656    -0.6298594848     0.1140062978
   35      C       6.1499420472    -0.1284113175    -0.3366596478
   36      C       6.0763343867     1.3919751195     0.0617504431
   37      C       4.6179468864     1.4816138423     0.6631645846
   38      O       4.4359823050     0.1688963429     1.3261824709
   39      H       4.0092551140    -0.2287020022    -1.9697875606
   40      H       3.8951370228     2.0750027494    -1.3808341246
   41      H       0.6832568171    -3.0045956242    -1.8536698528
   42      H       4.6391832647    -1.7137049680     0.3257450401
   43      H       6.9370529173    -0.6562287907     0.2250085623
   44      H       6.3226332416    -0.2800270581    -1.4141454866
   45      H       6.8236451276     1.6441619095     0.8307718496
   46      H       6.2136572347     2.0660978709    -0.7985941442
   47      H       4.4520660603     2.3047766496     1.3838155912
   48      H       0.4207691526    -2.4041784890    -0.1698737723
   49      H       1.3545786739    -3.9435239423    -0.4664927300
   50      H      -0.5642879312     0.4269504164    -2.6401461185
   51      H      -0.2880453723     1.7262819645    -1.4144831632
   52      H      -1.5777163716     1.9241467215    -2.6692917057
   53      H       0.4320596336    -0.2857205571     1.2342338776
   54      H       0.2400898347     0.0698026800     3.0062643778
   55      H      -0.0125109136     2.3386367608     0.8853854383
   56      H       0.5310352791     2.4802227050     2.6110546450
 ----------------------------------------------------------------

    9   -1510.2981179651      4.54E-09 Convergence criterion met
 Total energy in the final basis set = -1510.29811797
 Final energy is   -1510.29811796514
 **  OPTIMIZATION CONVERGED  **

                    Orbital Energies (a.u.)
 --------------------------------------------------------------

 Alpha MOs
 -- Occupied --
-18.945 -18.928 -18.925 -18.919 -18.890 -18.887 -18.884 -18.876
-18.869 -18.860 -10.111 -10.101 -10.100 -10.086 -10.063 -10.061
-10.061 -10.056 -10.054 -10.054 -10.052 -10.044 -10.038 -10.034
-10.034 -10.030 -10.022 -10.021 -10.017 -10.016  -1.022  -1.010
 -1.004  -0.995  -0.972  -0.965  -0.945  -0.936  -0.930  -0.921
 -0.765  -0.759  -0.726  -0.721  -0.712  -0.702  -0.690  -0.660
 -0.642  -0.610  -0.595  -0.576  -0.547  -0.541  -0.538  -0.533
 -0.515  -0.504  -0.484  -0.472  -0.464  -0.460  -0.449  -0.439
 -0.435  -0.431  -0.425  -0.416  -0.406  -0.402  -0.398  -0.397
 -0.392  -0.379  -0.371  -0.364  -0.356  -0.354  -0.351  -0.342
 -0.341  -0.334  -0.332  -0.327  -0.325  -0.323  -0.317  -0.316
 -0.307  -0.305  -0.301  -0.300  -0.287  -0.285  -0.282  -0.281
 -0.265  -0.262  -0.243  -0.238  -0.236  -0.233  -0.230  -0.188
 -0.176  -0.166  -0.163  -0.160  -0.153  -0.150  -0.145  -0.139
 -0.138

          Ground-State Mulliken Net Atomic Charges

     Atom                 Charge (a.u.)
  ----------------------------------------
      1 O                    -0.212240
      2 C                     0.218185
      3 C                    -0.078239
      4 C                    -0.080761
      5 C                     0.221097
      6 O                    -0.173666
      7 C                    -0.052400
      8 C                    -0.059400
      9 O                    -0.175418
     10 C                     0.224167
     11 C                    -0.077900
     12 C                    -0.078139
     13 C                     0.207916
     14 O                    -0.216211
     15 O                    -0.167301
     16 O                    -0.169928
     17 O                    -0.216900
     18 C                    -0.138158
     19 C                     0.024668
     20 C                    -0.143718
     21 C                    -0.144258
     22 C                     0.025981
     23 O                    -0.185942
     24 H                     0.083850
     25 H                     0.083795
     26 H                     0.087707
     27 H                     0.077071
     28 H                     0.072393
     29 H                     0.077153
     30 H                     0.073436
     31 H                     0.082095
     32 O                    -0.221758
     33 C                    -0.142091
     34 C                     0.024738
     35 C                    -0.143709
     36 C                    -0.144378
     37 C                     0.026622
     38 O                    -0.187666
     39 H                     0.087471
     40 H                     0.084419
     41 H                     0.084896
     42 H                     0.088890
     43 H                     0.078665
     44 H                     0.073846
     45 H                     0.078392
     46 H                     0.073937
     47 H                     0.087898
     48 H                     0.121130
     49 H                     0.087532
     50 H                     0.083441
     51 H                     0.108891
     52 H                     0.080133
     53 H                     0.110150
     54 H                     0.079519
     55 H                     0.104969
     56 H                     0.085127
  ----------------------------------------
  Sum of atomic charges =     0.000000

                    Cartesian Multipole Moments
 -----------------------------------------------------------------
    Charge (ESU x 10^10)
                 0.0000
    Dipole Moment (Debye)
         X       1.1142      Y      -1.2601      Z       0.2753
       Tot       1.7044
    Quadrupole Moments (Debye-Ang)
        XX    -137.7742     XY       5.8742     YY    -164.3725
        XZ      -9.8804     YZ       0.1556     ZZ    -157.1277

 Total job time:  154.39s(wall), 7369.57s(cpu)
        *  Thank you very much for using Q-Chem.  Have a nice day.  *
