 Q-Chem 5.0, Q-Chem, Inc., Pleasanton, CA (2017)
 Q-Chem 5.0.1 for Intel X86 EM64T Linux

User input:
--------------------------------------------------------------
$molecule
0  1
O -3.94934 -3.66094 2.70899
C -3.26408 -4.56952 2.26188
C -3.36658 -6.02376 2.66595
C -4.11142 -6.33887 3.97353
C -4.82383 -5.18249 4.63938
O -6.13072 -5.15281 4.24367
C -6.88313 -4.10455 4.86357
C -6.57654 -2.76977 4.19237
O -7.30488 -1.71634 4.84251
C -6.54532 -0.75636 5.42616
C -7.36635 0.28603 6.14725
C -7.59127 0.01295 7.64161
C -6.69137 -1.03531 8.26454
O -7.07142 -2.01545 8.8886
O -2.43919 -4.30712 1.21434
O -5.35004 -0.85498 8.11757
O -5.35721 -0.57938 5.18078
C -4.3884 -1.72059 8.59461
C -6.70219 1.68326 6.23399
C -7.77799 2.75256 6.427
C -8.21447 2.4608 7.84898
C -7.19685 1.37893 8.22936
O -6.05198 1.70599 7.47986
H -8.31144 0.41821 5.57194
H -8.6424 -0.27355 7.86634
H -6.07615 1.93161 5.34934
H -7.25674 3.73689 6.41116
H -8.59426 2.76347 5.67312
H -8.06836 3.38107 8.45683
H -9.25646 2.08959 7.95959
H -7.06113 1.33508 9.33285
O -4.27298 -4.3706 5.37445
C -2.25918 -3.05647 0.66156
C -4.13926 -6.87101 1.64519
C -3.71422 -8.33336 1.75986
C -4.36262 -8.71109 3.07446
C -5.09299 -7.4055 3.41104
O -5.44969 -6.88975 2.15054
H -2.31257 -6.37313 2.75067
H -3.48112 -6.81791 4.75531
H -1.85816 -2.35539 1.42454
H -4.02065 -6.51345 0.59887
H -4.21816 -8.89498 0.94093
H -2.61756 -8.50455 1.7043
H -5.10222 -9.51957 2.87938
H -3.66307 -9.02515 3.87886
H -5.93163 -7.62013 4.10977
H -3.22283 -2.6702 0.26587
H -1.53331 -3.12908 -0.17409
H -3.38453 -1.32839 8.33238
H -4.51317 -2.72246 8.13049
H -4.46302 -1.80485 9.69981
H -5.48571 -2.61051 4.21087
H -6.87594 -2.81435 3.12362
H -6.69889 -4.06853 5.9624
H -7.96487 -4.31193 4.72168
$end

$opt
CONSTRAINT
tors           1           2           3           4     -16.742
tors           3           4           5           6     +94.171
tors           4           5           6           7    +178.315
tors           5           6           7           8     +77.867
tors           6           7           8           9    -178.373
tors           7           8           9          10    +117.823
tors           8           9          10          11    -177.290
tors           9          10          11          12     +93.203
tors          11          12          13          14    -126.102
ENDCONSTRAINT
$end

$rem
JOBTYPE                   OPT
METHOD                    B3LYP
DFT_D                     d3_op
BASIS                     STO-3G
GEOM_OPT_MAX_CYCLES       100
GEOM_OPT_TOL_GRADIENT     300
GEOM_OPT_TOL_DISPLACEMENT 1200
GEOM_OPT_TOL_ENERGY       100
SYMMETRY                  False
THRESH                    12
SCF_CONVERGENCE           8
MAX_SUB_FILE_NUM          128
MEM_STATIC                400
MEM_TOTAL                 4000
$end
--------------------------------------------------------------

   15   -1510.1554765066      5.33E-09 Convergence criterion met
 Total energy in the final basis set = -1510.15547651
   13   -1510.2246308782      8.34E-09 Convergence criterion met
 Total energy in the final basis set = -1510.22463088
   14   -1510.2616309662      1.84E-09 Convergence criterion met
 Total energy in the final basis set = -1510.26163097
   14   -1510.2778027922      1.92E-09 Convergence criterion met
 Total energy in the final basis set = -1510.27780279
   13   -1510.2831326969      8.46E-09 Convergence criterion met
 Total energy in the final basis set = -1510.28313270
   13   -1510.2851686341      5.24E-09 Convergence criterion met
 Total energy in the final basis set = -1510.28516863
   13   -1510.2859297326      2.97E-09 Convergence criterion met
 Total energy in the final basis set = -1510.28592973
   12   -1510.2863830701      6.56E-09 Convergence criterion met
   11   -1510.2896565209      3.96E-09 Convergence criterion met
 Total energy in the final basis set = -1510.28965652
   10   -1510.2896631860      5.34E-09 Convergence criterion met
 Total energy in the final basis set = -1510.28966319
    9   -1510.2896656009      5.92E-09 Convergence criterion met
 Total energy in the final basis set = -1510.28966560
    9   -1510.2896680887      6.44E-09 Convergence criterion met
 Total energy in the final basis set = -1510.28966809
    9   -1510.2896697006      4.22E-09 Convergence criterion met
 Total energy in the final basis set = -1510.28966970
    9   -1510.2896712101      1.99E-09 Convergence criterion met
 Total energy in the final basis set = -1510.28967121

             Standard Nuclear Orientation (Angstroms)
    I     Atom           X                Y                Z
 ----------------------------------------------------------------
    1      O       2.2479676227    -1.5122652930     0.1095765195
    2      C       3.3702172476    -1.5821784631    -0.4404030082
    3      C       4.3231858034    -0.3946017753    -0.7821165856
    4      C       3.5932893723     1.0112593130    -0.7563530280
    5      C       2.0638969364     0.9441299131    -0.3784619865
    6      O       1.8986828276     1.1601640202     1.0273386027
    7      C       0.4593700479     1.1391232798     1.3862859391
    8      C      -0.1126687154    -0.3234720706     1.4617188325
    9      O      -1.5572519756    -0.2402204085     1.7855434587
   10      C      -2.3258420983    -0.8034479729     0.7070878711
   11      C      -3.8450034634    -0.6330815988     1.0565082839
   12      C      -4.4949801250     0.6936458833     0.4600439173
   13      C      -3.4766585867     1.7060248480    -0.1677770361
   14      O      -3.3592185844     2.9184919402     0.1237759234
   15      O       3.9959832619    -2.8045257999    -0.8296987052
   16      O      -2.7063461388     1.0305714267    -1.1588498846
   17      O      -1.8257621955    -1.4149093956    -0.2612953336
   18      C      -1.6737073179     1.9218290466    -1.7429159379
   19      C      -4.6936943001    -1.7367351330     0.2973048514
   20      C      -6.1662010121    -1.7407915542     0.8703264625
   21      C      -6.7676039473    -0.4598316645     0.1812967048
   22      C      -5.5074120374     0.0767643460    -0.6047482089
   23      O      -4.8408850890    -1.1617577987    -1.0599865324
   24      H      -3.9632752616    -0.6739086218     2.1536746204
   25      H      -5.0428281951     1.2412201833     1.2475586186
   26      H      -4.2017095939    -2.7268240135     0.2411883864
   27      H      -6.6981818886    -2.6547052928     0.5623702769
   28      H      -6.1819894434    -1.6763042329     1.9700971358
   29      H      -7.5729205108    -0.7222905197    -0.5235184523
   30      H      -7.1570375109     0.2737078470     0.9052554373
   31      H      -5.7320043968     0.7361467295    -1.4653938512
   32      O       1.1226577647     0.8536453159    -1.2014301165
   33      C       3.1203242918    -3.9524306262    -0.4918110209
   34      C       5.4437741741    -0.1778058297     0.3286592541
   35      C       6.5721511796     0.7327214945    -0.2963995571
   36      C       5.8600533821     2.1359686029    -0.2973615580
   37      C       4.4595181061     1.7706257780     0.3361579070
   38      O       4.7857451015     0.7060554891     1.3146183316
   39      H       4.7841544067    -0.5951816667    -1.7657670542
   40      H       3.6574811460     1.4976552540    -1.7459906499
   41      H       2.1359778440    -3.8753062880    -0.9968718486
   42      H       5.7981410714    -1.1101526506     0.8099157000
   43      H       7.4653087900     0.7331281774     0.3484060571
   44      H       6.8630301406     0.3999419191    -1.3055027649
   45      H       6.3932628281     2.8595200329     0.3393723024
   46      H       5.7590678293     2.5619210400    -1.3084321837
   47      H       3.9335307459     2.6058136272     0.8366509049
   48      H       2.9511259162    -4.0267615379     0.6018839960
   49      H       3.6514782697    -4.8545267247    -0.8468601096
   50      H      -1.8521924099     1.9960856288    -2.8330226600
   51      H      -0.6687199863     1.4758530624    -1.5557356448
   52      H      -1.7505745948     2.9266214533    -1.2813568948
   53      H       0.0108633461    -0.8511751495     0.4919337703
   54      H       0.3999318611    -0.8944493966     2.2626260838
   55      H      -0.1383926414     1.7279949938     0.6594978237
   56      H       0.3976914557     1.6243342109     2.3810539936
 ----------------------------------------------------------------

    9   -1510.2896712105      3.15E-09 Convergence criterion met
 Total energy in the final basis set = -1510.28967121
 Final energy is   -1510.28967121054
 **  OPTIMIZATION CONVERGED  **

                    Orbital Energies (a.u.)
 --------------------------------------------------------------

 Alpha MOs
 -- Occupied --
-18.945 -18.932 -18.923 -18.920 -18.891 -18.886 -18.883 -18.871
-18.869 -18.863 -10.108 -10.102 -10.090 -10.089 -10.070 -10.065
-10.065 -10.061 -10.056 -10.054 -10.051 -10.043 -10.039 -10.033
-10.033 -10.031 -10.024 -10.022 -10.017 -10.016  -1.021  -1.008
 -1.004  -0.997  -0.973  -0.965  -0.945  -0.934  -0.927  -0.923
 -0.766  -0.757  -0.727  -0.720  -0.713  -0.702  -0.689  -0.668
 -0.644  -0.612  -0.595  -0.577  -0.549  -0.540  -0.539  -0.532
 -0.516  -0.504  -0.483  -0.469  -0.466  -0.459  -0.449  -0.438
 -0.437  -0.429  -0.426  -0.416  -0.412  -0.403  -0.401  -0.393
 -0.385  -0.378  -0.369  -0.364  -0.362  -0.356  -0.353  -0.343
 -0.341  -0.335  -0.331  -0.330  -0.328  -0.325  -0.318  -0.315
 -0.308  -0.302  -0.301  -0.300  -0.295  -0.283  -0.282  -0.277
 -0.267  -0.263  -0.248  -0.237  -0.237  -0.231  -0.228  -0.187
 -0.179  -0.166  -0.163  -0.156  -0.151  -0.149  -0.146  -0.144
 -0.138

          Ground-State Mulliken Net Atomic Charges

     Atom                 Charge (a.u.)
  ----------------------------------------
      1 O                    -0.208705
      2 C                     0.214110
      3 C                    -0.079198
      4 C                    -0.080163
      5 C                     0.219303
      6 O                    -0.165340
      7 C                    -0.048959
      8 C                    -0.059329
      9 O                    -0.179177
     10 C                     0.212630
     11 C                    -0.078081
     12 C                    -0.079049
     13 C                     0.203866
     14 O                    -0.220376
     15 O                    -0.167653
     16 O                    -0.166742
     17 O                    -0.203546
     18 C                    -0.150685
     19 C                     0.026488
     20 C                    -0.144973
     21 C                    -0.143181
     22 C                     0.026645
     23 O                    -0.183019
     24 H                     0.085393
     25 H                     0.083425
     26 H                     0.085745
     27 H                     0.077310
     28 H                     0.072819
     29 H                     0.077315
     30 H                     0.073381
     31 H                     0.083414
     32 O                    -0.222029
     33 C                    -0.128552
     34 C                     0.025748
     35 C                    -0.143242
     36 C                    -0.144591
     37 C                     0.026326
     38 O                    -0.186310
     39 H                     0.087940
     40 H                     0.085170
     41 H                     0.094707
     42 H                     0.084584
     43 H                     0.078753
     44 H                     0.074573
     45 H                     0.078632
     46 H                     0.074001
     47 H                     0.088666
     48 H                     0.090325
     49 H                     0.092605
     50 H                     0.081190
     51 H                     0.109777
     52 H                     0.090376
     53 H                     0.114614
     54 H                     0.084492
     55 H                     0.089447
     56 H                     0.089129
  ----------------------------------------
  Sum of atomic charges =    -0.000000

                    Cartesian Multipole Moments
 -----------------------------------------------------------------
    Charge (ESU x 10^10)
                -0.0000
    Dipole Moment (Debye)
         X       2.0518      Y      -0.8235      Z       0.4987
       Tot       2.2665
    Quadrupole Moments (Debye-Ang)
        XX    -137.3103     XY       2.1894     YY    -154.9324
        XZ     -11.8783     YZ      -5.8629     ZZ    -161.9093

 Total job time:  68.60s(wall), 3266.09s(cpu)
        *  Thank you very much for using Q-Chem.  Have a nice day.  *
