 Q-Chem 5.0, Q-Chem, Inc., Pleasanton, CA (2017)
 Q-Chem 5.0.1 for Intel X86 EM64T Linux

User input:
--------------------------------------------------------------
$molecule
0  1
O 2.27667415 -1.5367148758 0.0965272295
C 3.4171320773 -1.5560720504 -0.4184866582
C 4.3269432544 -0.3289854318 -0.7367680242
C 3.5396835897 1.0454801122 -0.74101997
C 2.0039667154 0.922022065 -0.4067592111
O 1.7889599344 1.1400973663 0.9925783076
C 0.3427850859 1.0368245752 1.3026697972
C -0.1556520783 -0.4537182879 1.37522909
O -1.6116932373 -0.4151925766 1.6496486458
C -2.3339600307 -1.0156691841 0.5617131805
C -3.8571971587 -0.8732888222 0.8933529936
C -4.3615711147 0.6184251284 0.6397779062
C -3.2126675047 1.5478720558 0.1040526242
O -2.6385302822 2.4748058796 0.7191183844
O 4.1081415838 -2.749993237 -0.7868031478
O -2.8801733599 1.1244807324 -1.2184267938
O -1.8023408698 -1.5651307532 -0.4261919729
C -1.735684625 1.8964576409 -1.7625053255
C -4.7806419336 -1.6809292084 -0.1076114431
C -6.2269272418 -1.7640341511 0.5212915802
C -6.7395879173 -0.2923333725 0.2940227906
C -5.4974944318 0.3563050412 -0.4387597461
O -4.9549920505 -0.7559158979 -1.2506466169
H -4.0189427659 -1.1691944012 1.9452332755
H -4.7606227313 1.0704628707 1.5646556461
H -4.3493019021 -2.6406912385 -0.4520573806
H -6.8434203657 -2.4952680486 -0.0253820657
H -6.2031250706 -2.0474763929 1.5856773789
H -7.6254460607 -0.2702719795 -0.3604259765
H -6.9829736003 0.2242335093 1.2361852061
H -5.7307223181 1.2268292685 -1.0817786274
O 1.0881143588 0.7846667444 -1.2521932682
C 3.2757307689 -3.9353173552 -0.4703022344
C 5.4033714691 -0.0609988588 0.4067240556
C 6.5132166665 0.8910768259 -0.1896901437
C 5.7455579234 2.2643693495 -0.2207353308
C 4.341830409 1.8458936825 0.371325377
O 4.6809027513 0.8009202449 1.3662983793
H 4.8262274642 -0.5142416034 -1.704574347
H 3.6148622352 1.5291229847 -1.7312931709
H 2.3017788569 -3.9010095107 -0.9995815068
H 5.7803151432 -0.9756552098 0.9045398191
H 7.3856990297 0.9300268267 0.4818167303
H 6.8483569903 0.5652743473 -1.1873616982
H 6.2284994323 3.011457714 0.4287661653
H 5.659537953 2.6819259315 -1.2366719179
H 3.76701218 2.6616963291 0.8492345755
H 3.0827319194 -4.0177818014 0.6188722612
H 3.8544025228 -4.813215748 -0.8114430077
H -1.8898064358 1.9589174655 -2.855575716
H -0.7694297529 1.3769076112 -1.5548224339
H -1.7057607074 2.9137008204 -1.3243908426
H 0.0261341077 -0.983383441 0.4162913931
H 0.3498014353 -0.9929224336 2.2021552519
H -0.2723574037 1.5955310639 0.567682741
H 0.2236532417 1.5165131459 2.294957648
$end

$rem
JOBTYPE                   OPT
METHOD                    B3LYP
DFT_D                     d3_op
BASIS                     STO-3G
GEOM_OPT_MAX_CYCLES       100
GEOM_OPT_TOL_GRADIENT     300
GEOM_OPT_TOL_DISPLACEMENT 1200
GEOM_OPT_TOL_ENERGY       100
SYMMETRY                  False
THRESH                    12
SCF_CONVERGENCE           8
MAX_SUB_FILE_NUM          128
MEM_STATIC                400
MEM_TOTAL                 4000
$end
--------------------------------------------------------------

   16   -1510.2912175638      6.12E-09 Convergence criterion met
 Total energy in the final basis set = -1510.29121756
   15   -1510.2430737708      7.04E-09 Convergence criterion met
 Total energy in the final basis set = -1510.24307377
   15   -1510.2903425105      3.46E-09 Convergence criterion met
 Total energy in the final basis set = -1510.29034251
   14   -1510.2903611682      9.04E-09 Convergence criterion met
 Total energy in the final basis set = -1510.29036117
   14   -1510.2917297066      5.21E-09 Convergence criterion met
 Total energy in the final basis set = -1510.29172971
   13   -1510.2913403772      6.45E-09 Convergence criterion met
 Total energy in the final basis set = -1510.29134038
   13   -1510.2922862474      3.57E-09 Convergence criterion met
 Total energy in the final basis set = -1510.29228625
   13   -1510.2919293828      8.51E-09 Convergence criterion met
   13   -1510.2981252934      2.57E-09 Convergence criterion met
 Total energy in the final basis set = -1510.29812529
   12   -1510.2981336465      2.13E-09 Convergence criterion met
 Total energy in the final basis set = -1510.29813365
   10   -1510.2981380386      9.51E-09 Convergence criterion met
 Total energy in the final basis set = -1510.29813804
   11   -1510.2981284971      4.74E-09 Convergence criterion met
 Total energy in the final basis set = -1510.29812850
   11   -1510.2981245154      5.25E-09 Convergence criterion met
 Total energy in the final basis set = -1510.29812452
   10   -1510.2981255758      4.52E-09 Convergence criterion met
 Total energy in the final basis set = -1510.29812558

             Standard Nuclear Orientation (Angstroms)
    I     Atom           X                Y                Z
 ----------------------------------------------------------------
    1      O      -1.1526326031    -0.2713256290     0.5430152032
    2      C      -2.2523138187    -0.8339894410     0.7610777040
    3      C      -3.6358168203    -0.1148229718     0.9054254948
    4      C      -3.5714611059     1.4232026951     0.5160473069
    5      C      -2.1353210121     1.9168326259     0.0945661863
    6      O      -1.9630750192     1.6817059018    -1.3085926054
    7      C      -0.5465039386     1.8745760462    -1.7067132374
    8      C       0.0453593422     0.4495932789    -1.9954477631
    9      O       1.5140898954     0.4645388810    -1.7929644805
   10      C       1.9423181533    -0.7481078430    -1.1639091457
   11      C       3.5024859791    -0.6772443228    -1.0347826885
   12      C       4.0184526925     0.5390681782    -0.1578549770
   13      C       2.8787002308     1.3685776905     0.5313348128
   14      O       2.7570330087     2.6129355977     0.5520828500
   15      O      -2.4154924956    -2.2364025069     0.9006375176
   16      O       2.0131177751     0.4554660097     1.2058125095
   17      O       1.1924457411    -1.6979620894    -0.8475952107
   18      C       1.0246184295     1.1837535148     2.0375625481
   19      C       4.0954196534    -1.9133703653    -0.2420231114
   20      C       5.6338480831    -2.0125065162    -0.5796896788
   21      C       6.1958636537    -0.7845173670     0.2291144961
   22      C       4.8818666598    -0.2452096560     0.9258474943
   23      O       4.0848301601    -1.4672545360     1.1703369334
   24      H       3.9202037699    -0.6168928139    -2.0566420235
   25      H       4.6366127474     1.2350134364    -0.7512321817
   26      H       3.5087549479    -2.8454976442    -0.3577333765
   27      H       6.0497623693    -2.9634656476    -0.2102655249
   28      H       5.8290495349    -1.9370700707    -1.6613183032
   29      H       6.9329998192    -1.0982895147     0.9852857711
   30      H       6.6581885257    -0.0247229084    -0.4213096592
   31      H       5.0442458898     0.3081313950     1.8712373672
   32      O      -1.3207130218     2.5407745053     0.8154434740
   33      C      -1.1027381448    -2.9307593752     0.8030461865
   34      C      -4.7002058776    -0.6529608487    -0.1447387735
   35      C      -6.1327375926    -0.1620310491     0.3035997484
   36      C      -6.0694645280     1.3591682800    -0.0934031828
   37      C      -4.6090347458     1.4606602765    -0.6877187404
   38      O      -4.4159716001     0.1511497930    -1.3537718268
   39      H      -3.9936041701    -0.2561300435     1.9420184010
   40      H      -3.9016377854     2.0511218891     1.3623165612
   41      H      -0.6533277298    -3.0215977649     1.8126783190
   42      H      -4.6104468440    -1.7356451733    -0.3595744453
   43      H      -6.9150592698    -0.6950579913    -0.2598534094
   44      H      -6.3063689985    -0.3157266501     1.3806225646
   45      H      -6.8147453156     1.6054369809    -0.8663480142
   46      H      -6.2172989928     2.0317432194     0.7664062700
   47      H      -4.4460259452     2.2868626832    -1.4055905270
   48      H      -0.3880750285    -2.3927616798     0.1392520715
   49      H      -1.3155558479    -3.9412026637     0.4083484602
   50      H       0.5150632453     0.4059972771     2.6346536615
   51      H       0.2644386338     1.7318966026     1.4322016059
   52      H       1.5306165712     1.9002143540     2.7154478700
   53      H      -0.4101090340    -0.2630642987    -1.2729582683
   54      H      -0.1832953303     0.1264654399    -3.0332750264
   55      H       0.0113450348     2.3688206446    -0.8818543561
   56      H      -0.5274347955     2.5193568366    -2.6083500136
 ----------------------------------------------------------------

    9   -1510.2981256143      6.03E-09 Convergence criterion met
 Total energy in the final basis set = -1510.29812561
 Final energy is   -1510.29812561432
 **  OPTIMIZATION CONVERGED  **

                    Orbital Energies (a.u.)
 --------------------------------------------------------------

 Alpha MOs
 -- Occupied --
-18.945 -18.928 -18.925 -18.919 -18.889 -18.887 -18.884 -18.876
-18.869 -18.860 -10.110 -10.101 -10.100 -10.086 -10.063 -10.061
-10.061 -10.056 -10.055 -10.054 -10.051 -10.044 -10.038 -10.034
-10.034 -10.030 -10.022 -10.021 -10.017 -10.016  -1.022  -1.009
 -1.004  -0.995  -0.972  -0.965  -0.944  -0.936  -0.930  -0.921
 -0.765  -0.759  -0.726  -0.721  -0.712  -0.702  -0.690  -0.659
 -0.642  -0.610  -0.595  -0.576  -0.547  -0.541  -0.538  -0.533
 -0.515  -0.504  -0.484  -0.472  -0.464  -0.460  -0.449  -0.439
 -0.435  -0.431  -0.425  -0.416  -0.406  -0.402  -0.398  -0.397
 -0.392  -0.379  -0.371  -0.364  -0.356  -0.354  -0.351  -0.342
 -0.340  -0.333  -0.332  -0.327  -0.325  -0.323  -0.317  -0.316
 -0.307  -0.305  -0.301  -0.300  -0.287  -0.285  -0.282  -0.281
 -0.264  -0.262  -0.244  -0.238  -0.236  -0.233  -0.230  -0.188
 -0.176  -0.166  -0.163  -0.160  -0.153  -0.150  -0.145  -0.139
 -0.138

          Ground-State Mulliken Net Atomic Charges

     Atom                 Charge (a.u.)
  ----------------------------------------
      1 O                    -0.212028
      2 C                     0.218157
      3 C                    -0.078205
      4 C                    -0.080827
      5 C                     0.221303
      6 O                    -0.173540
      7 C                    -0.052459
      8 C                    -0.059168
      9 O                    -0.175386
     10 C                     0.224377
     11 C                    -0.077999
     12 C                    -0.078167
     13 C                     0.207861
     14 O                    -0.216152
     15 O                    -0.167436
     16 O                    -0.169767
     17 O                    -0.217145
     18 C                    -0.138339
     19 C                     0.024735
     20 C                    -0.143711
     21 C                    -0.144277
     22 C                     0.025935
     23 O                    -0.186022
     24 H                     0.083863
     25 H                     0.083844
     26 H                     0.087798
     27 H                     0.077095
     28 H                     0.072419
     29 H                     0.077167
     30 H                     0.073466
     31 H                     0.082094
     32 O                    -0.221901
     33 C                    -0.142260
     34 C                     0.024744
     35 C                    -0.143750
     36 C                    -0.144365
     37 C                     0.026652
     38 O                    -0.187751
     39 H                     0.087413
     40 H                     0.084404
     41 H                     0.084839
     42 H                     0.088880
     43 H                     0.078638
     44 H                     0.073836
     45 H                     0.078379
     46 H                     0.073935
     47 H                     0.087885
     48 H                     0.121336
     49 H                     0.087403
     50 H                     0.083198
     51 H                     0.109120
     52 H                     0.080143
     53 H                     0.110236
     54 H                     0.079486
     55 H                     0.104971
     56 H                     0.085041
  ----------------------------------------
  Sum of atomic charges =     0.000000

                    Cartesian Multipole Moments
 -----------------------------------------------------------------
    Charge (ESU x 10^10)
                 0.0000
    Dipole Moment (Debye)
         X      -1.0950      Y      -1.2615      Z      -0.3106
       Tot       1.6991
    Quadrupole Moments (Debye-Ang)
        XX    -137.6648     XY      -5.8004     YY    -164.5309
        XZ      -9.7606     YZ      -0.4972     ZZ    -157.2286

 Total job time:  124.71s(wall), 5952.49s(cpu)
        *  Thank you very much for using Q-Chem.  Have a nice day.  *
