 Q-Chem 5.0, Q-Chem, Inc., Pleasanton, CA (2017)
 Q-Chem 5.0.1 for Intel X86 EM64T Linux

User input:
--------------------------------------------------------------
$molecule
0  1
O -3.94934 -3.66094 2.70899
C -3.26408 -4.56952 2.26188
C -3.36658 -6.02376 2.66595
C -4.11142 -6.33887 3.97353
C -4.82383 -5.18249 4.63938
O -6.13072 -5.15281 4.24367
C -6.87683 -4.08876 4.84396
C -6.56295 -2.76865 4.14758
O -7.28495 -1.699 4.778
C -6.51964 -0.73254 5.34315
C -7.33436 0.32795 6.04475
C -7.91023 -0.09247 7.40486
C -7.3102 -1.34128 8.01896
O -7.87537 -2.41994 8.12685
O -2.43964 -4.30723 1.21396
O -5.98757 -1.28479 8.33638
O -5.30582 -0.63278 5.20562
C -5.25474 -2.34639 8.82413
C -6.54668 1.58932 6.48361
C -7.50728 2.77265 6.60715
C -8.29374 2.37264 7.84081
C -7.51832 1.11928 8.26384
O -6.20263 1.36673 7.82941
H -8.10909 0.66519 5.31879
H -9.00644 -0.26739 7.33153
H -5.71007 1.85218 5.80047
H -6.885 3.66221 6.85697
H -8.11935 3.0016 5.70844
H -8.19693 3.18274 8.59708
H -9.36603 2.13808 7.66464
H -7.6461 0.91887 9.3506
O -4.27099 -4.36474 5.36646
C -2.26057 -3.05678 0.66041
C -4.13936 -6.871 1.64525
C -3.71429 -8.33335 1.75985
C -4.36249 -8.7111 3.07455
C -5.09294 -7.40557 3.41117
O -5.44975 -6.88982 2.1507
H -2.31258 -6.37319 2.75057
H -3.48093 -6.81756 4.75536
H -1.8598 -2.35498 1.42285
H -4.02087 -6.51344 0.59891
H -4.21839 -8.89494 0.941
H -2.61765 -8.50459 1.7041
H -5.10198 -9.5197 2.87963
H -3.66278 -9.02497 3.8789
H -5.93151 -7.62021 4.10998
H -3.22459 -2.67137 0.26477
H -1.53491 -3.12942 -0.17542
H -4.20933 -2.01781 8.99574
H -5.2513 -3.17883 8.08828
H -5.68334 -2.69656 9.78738
H -5.47332 -2.61408 4.16234
H -6.86331 -2.83175 3.08004
H -6.69247 -4.03394 5.94162
H -7.95981 -4.29244 4.70638
$end

$opt
CONSTRAINT
tors           1           2           3           4     -16.742
tors           3           4           5           6     +94.171
tors           4           5           6           7    +179.445
tors           5           6           7           8     +77.867
tors           6           7           8           9    -178.373
tors           7           8           9          10    +117.823
tors           8           9          10          11    -177.290
tors           9          10          11          12     +76.013
tors          11          12          13          14    -109.129
ENDCONSTRAINT
$end

$rem
JOBTYPE                   OPT
METHOD                    B3LYP
DFT_D                     d3_op
BASIS                     STO-3G
GEOM_OPT_MAX_CYCLES       100
GEOM_OPT_TOL_GRADIENT     300
GEOM_OPT_TOL_DISPLACEMENT 1200
GEOM_OPT_TOL_ENERGY       100
SYMMETRY                  False
THRESH                    12
SCF_CONVERGENCE           8
MAX_SUB_FILE_NUM          128
MEM_STATIC                400
MEM_TOTAL                 4000
$end
--------------------------------------------------------------

   16   -1510.1581343275      2.15E-09 Convergence criterion met
 Total energy in the final basis set = -1510.15813433
   13   -1510.2271437914      8.62E-09 Convergence criterion met
 Total energy in the final basis set = -1510.22714379
   14   -1510.2642072562      2.82E-09 Convergence criterion met
 Total energy in the final basis set = -1510.26420726
   14   -1510.2810200436      4.66E-09 Convergence criterion met
 Total energy in the final basis set = -1510.28102004
   14   -1510.2866363220      5.39E-09 Convergence criterion met
 Total energy in the final basis set = -1510.28663632
   13   -1510.2872330638      8.10E-09 Convergence criterion met
 Total energy in the final basis set = -1510.28723306
   13   -1510.2891663649      3.17E-09 Convergence criterion met
 Total energy in the final basis set = -1510.28916636
   13   -1510.2894916925      4.93E-09 Convergence criterion met
   12   -1510.2909721323      5.78E-09 Convergence criterion met
 Total energy in the final basis set = -1510.29097213
   12   -1510.2910792159      3.72E-09 Convergence criterion met
 Total energy in the final basis set = -1510.29107922
   11   -1510.2911083272      5.09E-09 Convergence criterion met
 Total energy in the final basis set = -1510.29110833
   10   -1510.2911370518      6.92E-09 Convergence criterion met
 Total energy in the final basis set = -1510.29113705
   11   -1510.2911324575      3.01E-09 Convergence criterion met
 Total energy in the final basis set = -1510.29113246
    9   -1510.2911346794      7.17E-09 Convergence criterion met
 Total energy in the final basis set = -1510.29113468

             Standard Nuclear Orientation (Angstroms)
    I     Atom           X                Y                Z
 ----------------------------------------------------------------
    1      O       2.2766741500    -1.5367148758     0.0965272295
    2      C       3.4171320773    -1.5560720504    -0.4184866582
    3      C       4.3269432544    -0.3289854318    -0.7367680242
    4      C       3.5396835897     1.0454801122    -0.7410199700
    5      C       2.0039667154     0.9220220650    -0.4067592111
    6      O       1.7889599344     1.1400973663     0.9925783076
    7      C       0.3427850859     1.0368245752     1.3026697972
    8      C      -0.1556520783    -0.4537182879     1.3752290900
    9      O      -1.6116932373    -0.4151925766     1.6496486458
   10      C      -2.3339600307    -1.0156691841     0.5617131805
   11      C      -3.8571971587    -0.8732888222     0.8933529936
   12      C      -4.3615711147     0.6184251284     0.6397779062
   13      C      -3.2126675047     1.5478720558     0.1040526242
   14      O      -2.6385302822     2.4748058796     0.7191183844
   15      O       4.1081415838    -2.7499932370    -0.7868031478
   16      O      -2.8801733599     1.1244807324    -1.2184267938
   17      O      -1.8023408698    -1.5651307532    -0.4261919729
   18      C      -1.7356846250     1.8964576409    -1.7625053255
   19      C      -4.7806419336    -1.6809292084    -0.1076114431
   20      C      -6.2269272418    -1.7640341511     0.5212915802
   21      C      -6.7395879173    -0.2923333725     0.2940227906
   22      C      -5.4974944318     0.3563050412    -0.4387597461
   23      O      -4.9549920505    -0.7559158979    -1.2506466169
   24      H      -4.0189427659    -1.1691944012     1.9452332755
   25      H      -4.7606227313     1.0704628707     1.5646556461
   26      H      -4.3493019021    -2.6406912385    -0.4520573806
   27      H      -6.8434203657    -2.4952680486    -0.0253820657
   28      H      -6.2031250706    -2.0474763929     1.5856773789
   29      H      -7.6254460607    -0.2702719795    -0.3604259765
   30      H      -6.9829736003     0.2242335093     1.2361852061
   31      H      -5.7307223181     1.2268292685    -1.0817786274
   32      O       1.0881143588     0.7846667444    -1.2521932682
   33      C       3.2757307689    -3.9353173552    -0.4703022344
   34      C       5.4033714691    -0.0609988588     0.4067240556
   35      C       6.5132166665     0.8910768259    -0.1896901437
   36      C       5.7455579234     2.2643693495    -0.2207353308
   37      C       4.3418304090     1.8458936825     0.3713253770
   38      O       4.6809027513     0.8009202449     1.3662983793
   39      H       4.8262274642    -0.5142416034    -1.7045743470
   40      H       3.6148622352     1.5291229847    -1.7312931709
   41      H       2.3017788569    -3.9010095107    -0.9995815068
   42      H       5.7803151432    -0.9756552098     0.9045398191
   43      H       7.3856990297     0.9300268267     0.4818167303
   44      H       6.8483569903     0.5652743473    -1.1873616982
   45      H       6.2284994323     3.0114577140     0.4287661653
   46      H       5.6595379530     2.6819259315    -1.2366719179
   47      H       3.7670121800     2.6616963291     0.8492345755
   48      H       3.0827319194    -4.0177818014     0.6188722612
   49      H       3.8544025228    -4.8132157480    -0.8114430077
   50      H      -1.8898064358     1.9589174655    -2.8555757160
   51      H      -0.7694297529     1.3769076112    -1.5548224339
   52      H      -1.7057607074     2.9137008204    -1.3243908426
   53      H       0.0261341077    -0.9833834410     0.4162913931
   54      H       0.3498014353    -0.9929224336     2.2021552519
   55      H      -0.2723574037     1.5955310639     0.5676827410
   56      H       0.2236532417     1.5165131459     2.2949576480
 ----------------------------------------------------------------

    9   -1510.2911370171      6.31E-09 Convergence criterion met
 Total energy in the final basis set = -1510.29113702
 Final energy is   -1510.29113701711
 **  OPTIMIZATION CONVERGED  **

                    Orbital Energies (a.u.)
 --------------------------------------------------------------

 Alpha MOs
 -- Occupied --
-18.944 -18.930 -18.923 -18.922 -18.891 -18.886 -18.882 -18.873
-18.868 -18.863 -10.108 -10.099 -10.092 -10.089 -10.069 -10.064
-10.060 -10.060 -10.055 -10.054 -10.052 -10.042 -10.038 -10.037
-10.033 -10.031 -10.023 -10.021 -10.016 -10.015  -1.021  -1.008
 -1.004  -0.997  -0.973  -0.963  -0.944  -0.933  -0.929  -0.924
 -0.766  -0.758  -0.726  -0.720  -0.712  -0.701  -0.687  -0.668
 -0.645  -0.611  -0.594  -0.576  -0.548  -0.540  -0.539  -0.531
 -0.515  -0.503  -0.481  -0.470  -0.465  -0.460  -0.448  -0.437
 -0.436  -0.428  -0.424  -0.416  -0.411  -0.404  -0.399  -0.392
 -0.384  -0.378  -0.368  -0.364  -0.360  -0.356  -0.351  -0.342
 -0.342  -0.337  -0.334  -0.329  -0.325  -0.325  -0.317  -0.314
 -0.307  -0.302  -0.301  -0.300  -0.291  -0.281  -0.279  -0.276
 -0.272  -0.263  -0.246  -0.239  -0.236  -0.235  -0.228  -0.186
 -0.178  -0.168  -0.162  -0.156  -0.153  -0.149  -0.145  -0.142
 -0.137

          Ground-State Mulliken Net Atomic Charges

     Atom                 Charge (a.u.)
  ----------------------------------------
      1 O                    -0.209436
      2 C                     0.214007
      3 C                    -0.079261
      4 C                    -0.080245
      5 C                     0.217827
      6 O                    -0.165441
      7 C                    -0.050607
      8 C                    -0.058401
      9 O                    -0.177471
     10 C                     0.209727
     11 C                    -0.077700
     12 C                    -0.077625
     13 C                     0.203467
     14 O                    -0.220172
     15 O                    -0.167922
     16 O                    -0.165687
     17 O                    -0.205233
     18 C                    -0.146037
     19 C                     0.025464
     20 C                    -0.143967
     21 C                    -0.144217
     22 C                     0.026495
     23 O                    -0.183232
     24 H                     0.085290
     25 H                     0.083734
     26 H                     0.087401
     27 H                     0.077151
     28 H                     0.072316
     29 H                     0.077063
     30 H                     0.072809
     31 H                     0.083333
     32 O                    -0.222541
     33 C                    -0.128568
     34 C                     0.025819
     35 C                    -0.143245
     36 C                    -0.144610
     37 C                     0.026333
     38 O                    -0.186282
     39 H                     0.087799
     40 H                     0.084818
     41 H                     0.094211
     42 H                     0.084348
     43 H                     0.078585
     44 H                     0.074380
     45 H                     0.078579
     46 H                     0.073900
     47 H                     0.089127
     48 H                     0.090100
     49 H                     0.092473
     50 H                     0.085358
     51 H                     0.107183
     52 H                     0.086216
     53 H                     0.113216
     54 H                     0.085107
     55 H                     0.094317
     56 H                     0.089947
  ----------------------------------------
  Sum of atomic charges =    -0.000000

                    Cartesian Multipole Moments
 -----------------------------------------------------------------
    Charge (ESU x 10^10)
                -0.0000
    Dipole Moment (Debye)
         X       1.7455      Y      -0.7566      Z       0.3691
       Tot       1.9379
    Quadrupole Moments (Debye-Ang)
        XX    -136.3971     XY       0.5381     YY    -151.6556
        XZ     -12.0750     YZ      -6.7366     ZZ    -163.9369

 Total job time:  53.90s(wall), 2565.91s(cpu)
        *  Thank you very much for using Q-Chem.  Have a nice day.  *
