 Q-Chem 5.0, Q-Chem, Inc., Pleasanton, CA (2017)
 Q-Chem 5.0.1 for Intel X86 EM64T Linux

User input:
--------------------------------------------------------------
$molecule
0  1
O -3.94934 -3.66094 2.70899
C -3.26408 -4.56952 2.26188
C -3.36658 -6.02376 2.66595
C -3.39558 -6.33432 4.17146
C -3.49808 -5.14707 5.10314
O -4.80646 -4.91883 5.42169
C -4.98424 -3.81368 6.31404
C -4.8675 -2.49814 5.55125
O -4.63887 -1.41823 6.47016
C -3.53127 -0.67328 6.23053
C -3.0773 0.11138 7.43836
C -2.28136 -0.69677 8.47358
C -1.75543 -2.03776 8.00257
O -1.94674 -3.10931 8.55911
O -2.26989 -4.26344 1.38726
O -0.91864 -2.01625 6.92902
O -3.04187 -0.51825 5.11771
C -0.00839 -3.00998 6.63015
C -2.04717 1.22985 7.13776
C -2.10934 2.29108 8.23686
C -1.50322 1.53012 9.3996
C -1.0801 0.23936 8.6886
O -0.78855 0.65071 7.37512
H -3.98127 0.60995 7.85676
H -2.86959 -0.88011 9.39979
H -2.18725 1.70765 6.14378
H -1.40546 3.10122 7.93826
H -3.1096 2.7347 8.4303
H -0.61861 2.09611 9.76678
H -2.1977 1.31567 10.24073
H -0.25305 -0.26294 9.23778
O -2.56412 -4.39666 5.34379
C -1.9974 -2.9887 0.93661
C -4.70482 -6.64382 2.21554
C -4.54984 -8.1557 2.06443
C -4.43156 -8.57004 3.51511
C -4.66858 -7.22111 4.20603
O -5.54166 -6.54194 3.33835
H -2.54276 -6.56537 2.14689
H -2.52259 -6.92999 4.51822
H -1.73244 -2.32933 1.79087
H -5.09679 -6.2033 1.27228
H -5.5139 -8.54199 1.66197
H -3.71958 -8.48983 1.40572
H -5.25601 -9.28131 3.74435
H -3.45443 -9.01304 3.80543
H -5.0367 -7.38937 5.24231
H -2.87934 -2.57517 0.40222
H -1.13932 -3.02651 0.23466
H 0.51088 -2.75591 5.68352
H -0.50306 -3.99338 6.522
H 0.74612 -3.08137 7.44214
H -4.04047 -2.57701 4.82598
H -5.79217 -2.32646 4.96043
H -4.23182 -3.86818 7.1347
H -5.98252 -3.86001 6.79797
$end

$opt
CONSTRAINT
tors           1           2           3           4     -48.255
tors           3           4           5           6     +94.171
tors           4           5           6           7    +179.445
tors           5           6           7           8     +77.867
tors           6           7           8           9    -162.579
tors           7           8           9          10    +124.288
tors           8           9          10          11    -160.272
tors           9          10          11          12     +79.715
tors          11          12          13          14    -126.315
ENDCONSTRAINT
$end

$rem
JOBTYPE                   OPT
METHOD                    B3LYP
DFT_D                     d3_op
BASIS                     STO-3G
GEOM_OPT_MAX_CYCLES       100
GEOM_OPT_TOL_GRADIENT     300
GEOM_OPT_TOL_DISPLACEMENT 1200
GEOM_OPT_TOL_ENERGY       100
SYMMETRY                  False
THRESH                    12
SCF_CONVERGENCE           8
MAX_SUB_FILE_NUM          128
MEM_STATIC                400
MEM_TOTAL                 4000
$end
--------------------------------------------------------------

   15   -1510.1532440984      4.30E-09 Convergence criterion met
 Total energy in the final basis set = -1510.15324410
   14   -1510.2225051125      4.38E-09 Convergence criterion met
 Total energy in the final basis set = -1510.22250511
   14   -1510.2592318825      2.55E-09 Convergence criterion met
 Total energy in the final basis set = -1510.25923188
   14   -1510.2708137959      3.21E-09 Convergence criterion met
 Total energy in the final basis set = -1510.27081380
   14   -1510.2807514707      2.33E-09 Convergence criterion met
 Total energy in the final basis set = -1510.28075147
   13   -1510.2787674758      9.85E-09 Convergence criterion met
 Total energy in the final basis set = -1510.27876748
   13   -1510.2837889121      7.56E-09 Convergence criterion met
 Total energy in the final basis set = -1510.28378891
   13   -1510.2845068861      3.42E-09 Convergence criterion met
   11   -1510.2849858468      8.10E-09 Convergence criterion met
 Total energy in the final basis set = -1510.28498585
   11   -1510.2850057729      5.18E-09 Convergence criterion met
 Total energy in the final basis set = -1510.28500577
   10   -1510.2850171966      7.69E-09 Convergence criterion met
 Total energy in the final basis set = -1510.28501720
    9   -1510.2850186261      9.44E-09 Convergence criterion met
 Total energy in the final basis set = -1510.28501863
    9   -1510.2850196309      6.43E-09 Convergence criterion met
 Total energy in the final basis set = -1510.28501963
    9   -1510.2850206492      5.64E-09 Convergence criterion met
 Total energy in the final basis set = -1510.28502065

             Standard Nuclear Orientation (Angstroms)
    I     Atom           X                Y                Z
 ----------------------------------------------------------------
    1      O      -2.1749685546     1.3937596416     1.0470336285
    2      C      -2.9002478374     1.5831174498     0.0448778748
    3      C      -3.9278538203     0.5849527795    -0.5865331720
    4      C      -3.3295445191    -0.8750161090    -0.8008022838
    5      C      -1.8633428583    -1.0082967127    -0.2569468057
    6      O      -1.8565703683    -1.5115180775     1.0756052076
    7      C      -0.4578005998    -1.6413997934     1.5633460349
    8      C       0.1243909478    -0.2379538495     1.9855602685
    9      O       1.6001729495    -0.3262803515     2.0577394643
   10      C       2.2366037776     0.6563755803     1.2226492071
   11      C       3.6973269521     0.1426622879     0.9893568922
   12      C       3.8146095884    -0.9841169462    -0.1237312352
   13      C       2.5666938658    -1.1120792765    -1.0713650174
   14      O       1.9119938936    -2.1536937201    -1.3054116111
   15      O      -2.8839998635     2.7834235694    -0.7302376903
   16      O       2.3684941928     0.1392266643    -1.7224176295
   17      O       1.6689701133     1.6670802073     0.7582519477
   18      C       1.2877815786     0.0388596928    -2.7347849186
   19      C       4.7332423479     1.2231942247     0.4608014574
   20      C       6.1697742786     0.7347520956     0.8982233209
   21      C       6.3588440953    -0.5037904955    -0.0557109077
   22      C       5.0530246582    -0.4159173355    -0.9453641000
   23      O       4.7613730214     1.0340776925    -1.0070024422
   24      H       4.0387969981    -0.2727820303     1.9550933307
   25      H       4.0127233806    -1.9746719694     0.3212762556
   26      H       4.4782909344     2.2707238012     0.7126855195
   27      H       6.9192515210     1.5162930368     0.6947632766
   28      H       6.2177705439     0.4651944317     1.9653560571
   29      H       7.2600981071    -0.4018181733    -0.6806819564
   30      H       6.4177398399    -1.4566090858     0.4945230166
   31      H       5.1528988390    -0.8337251591    -1.9659757536
   32      O      -0.8200291435    -0.7434312593    -0.8951454713
   33      C      -1.8757687171     3.7212895272    -0.1779756477
   34      C      -5.1504185404     0.2664627318     0.3822701879
   35      C      -6.3092943775    -0.3572000465    -0.4904446729
   36      C      -5.7320492872    -1.7938058151    -0.7732828331
   37      C      -4.3689555386    -1.7417008859     0.0252449380
   38      O      -4.6737527696    -0.8772362927     1.1895453220
   39      H      -4.2771261306     1.0170296798    -1.5405287454
   40      H      -3.3144841271    -1.1379427695    -1.8735049943
   41      H      -0.8711182759     3.2529105619    -0.1269563315
   42      H      -5.4503195433     1.1068336362     1.0377957258
   43      H      -7.2430122997    -0.4053471360     0.0923749497
   44      H      -6.4966133154     0.2176871877    -1.4115917058
   45      H      -6.3865200123    -2.5807933580    -0.3664817170
   46      H      -5.5752718868    -1.9846806748    -1.8470228488
   47      H      -3.9803684086    -2.7213806234     0.3627337694
   48      H      -2.1563815304     4.0653402458     0.8385198447
   49      H      -1.8528546501     4.5844883077    -0.8678728667
   50      H       1.2153783020     1.0431511852    -3.1898205248
   51      H       0.3265069136    -0.2405702992    -2.2499032060
   52      H       1.5422043901    -0.7046276717    -3.5169411254
   53      H      -0.1853329612     0.5458625313     1.2611189515
   54      H      -0.2702615950     0.0474030719     2.9834404579
   55      H       0.1909648774    -2.0758727831     0.7698932644
   56      H      -0.5063004869    -2.3311811291     2.4283001082
 ----------------------------------------------------------------

    9   -1510.2850204791      6.28E-09 Convergence criterion met
 Total energy in the final basis set = -1510.28502048
 Final energy is   -1510.28502047911
 **  OPTIMIZATION CONVERGED  **

                    Orbital Energies (a.u.)
 --------------------------------------------------------------

 Alpha MOs
 -- Occupied --
-18.940 -18.939 -18.920 -18.918 -18.891 -18.882 -18.878 -18.877
-18.874 -18.856 -10.106 -10.102 -10.094 -10.084 -10.067 -10.064
-10.062 -10.062 -10.056 -10.055 -10.053 -10.043 -10.041 -10.032
-10.031 -10.030 -10.023 -10.022 -10.016 -10.015  -1.019  -1.012
 -1.003  -0.994  -0.973  -0.963  -0.939  -0.938  -0.930  -0.919
 -0.766  -0.757  -0.727  -0.719  -0.712  -0.701  -0.689  -0.663
 -0.642  -0.613  -0.595  -0.577  -0.549  -0.540  -0.539  -0.532
 -0.516  -0.503  -0.483  -0.471  -0.463  -0.456  -0.449  -0.436
 -0.433  -0.427  -0.426  -0.412  -0.411  -0.407  -0.397  -0.395
 -0.388  -0.374  -0.370  -0.364  -0.358  -0.354  -0.350  -0.347
 -0.341  -0.337  -0.334  -0.329  -0.324  -0.320  -0.318  -0.311
 -0.308  -0.302  -0.300  -0.299  -0.294  -0.284  -0.280  -0.273
 -0.268  -0.261  -0.250  -0.237  -0.237  -0.231  -0.227  -0.184
 -0.180  -0.165  -0.161  -0.157  -0.152  -0.151  -0.146  -0.137
 -0.135

          Ground-State Mulliken Net Atomic Charges

     Atom                 Charge (a.u.)
  ----------------------------------------
      1 O                    -0.214626
      2 C                     0.207986
      3 C                    -0.079815
      4 C                    -0.078508
      5 C                     0.217769
      6 O                    -0.159802
      7 C                    -0.049326
      8 C                    -0.055918
      9 O                    -0.181073
     10 C                     0.212068
     11 C                    -0.078384
     12 C                    -0.078019
     13 C                     0.202473
     14 O                    -0.220999
     15 O                    -0.167155
     16 O                    -0.163859
     17 O                    -0.206108
     18 C                    -0.144581
     19 C                     0.025149
     20 C                    -0.142628
     21 C                    -0.145181
     22 C                     0.026509
     23 O                    -0.183001
     24 H                     0.083917
     25 H                     0.083634
     26 H                     0.086422
     27 H                     0.076797
     28 H                     0.072277
     29 H                     0.076933
     30 H                     0.072861
     31 H                     0.081713
     32 O                    -0.219145
     33 C                    -0.130304
     34 C                     0.026052
     35 C                    -0.143190
     36 C                    -0.144613
     37 C                     0.026590
     38 O                    -0.183937
     39 H                     0.087492
     40 H                     0.086817
     41 H                     0.100277
     42 H                     0.083886
     43 H                     0.078725
     44 H                     0.074443
     45 H                     0.078732
     46 H                     0.073913
     47 H                     0.088696
     48 H                     0.088511
     49 H                     0.091485
     50 H                     0.082616
     51 H                     0.115173
     52 H                     0.076889
     53 H                     0.109013
     54 H                     0.084971
     55 H                     0.098992
     56 H                     0.090391
  ----------------------------------------
  Sum of atomic charges =     0.000000

                    Cartesian Multipole Moments
 -----------------------------------------------------------------
    Charge (ESU x 10^10)
                 0.0000
    Dipole Moment (Debye)
         X      -1.2563      Y      -0.1925      Z      -0.1555
       Tot       1.2805
    Quadrupole Moments (Debye-Ang)
        XX    -139.9018     XY      -4.0907     YY    -157.6339
        XZ      11.8591     YZ       1.5919     ZZ    -159.5073

 Total job time:  52.95s(wall), 2521.90s(cpu)
        *  Thank you very much for using Q-Chem.  Have a nice day.  *
