 Q-Chem 5.0, Q-Chem, Inc., Pleasanton, CA (2017)
 Q-Chem 5.0.1 for Intel X86 EM64T Linux

User input:
--------------------------------------------------------------
$molecule
0  1
O -2.1749685546 1.3937596416 1.0470336285
C -2.9002478374 1.5831174498 0.0448778748
C -3.9278538203 0.5849527795 -0.586533172
C -3.3295445191 -0.875016109 -0.8008022838
C -1.8633428583 -1.0082967127 -0.2569468057
O -1.8565703683 -1.5115180775 1.0756052076
C -0.4578005998 -1.6413997934 1.5633460349
C 0.1243909478 -0.2379538495 1.9855602685
O 1.6001729495 -0.3262803515 2.0577394643
C 2.2366037776 0.6563755803 1.2226492071
C 3.6973269521 0.1426622879 0.9893568922
C 3.8146095884 -0.9841169462 -0.1237312352
C 2.5666938658 -1.1120792765 -1.0713650174
O 1.9119938936 -2.1536937201 -1.3054116111
O -2.8839998635 2.7834235694 -0.7302376903
O 2.3684941928 0.1392266643 -1.7224176295
O 1.6689701133 1.6670802073 0.7582519477
C 1.2877815786 0.0388596928 -2.7347849186
C 4.7332423479 1.2231942247 0.4608014574
C 6.1697742786 0.7347520956 0.8982233209
C 6.3588440953 -0.5037904955 -0.0557109077
C 5.0530246582 -0.4159173355 -0.9453641
O 4.7613730214 1.0340776925 -1.0070024422
H 4.0387969981 -0.2727820303 1.9550933307
H 4.0127233806 -1.9746719694 0.3212762556
H 4.4782909344 2.2707238012 0.7126855195
H 6.919251521 1.5162930368 0.6947632766
H 6.2177705439 0.4651944317 1.9653560571
H 7.2600981071 -0.4018181733 -0.6806819564
H 6.4177398399 -1.4566090858 0.4945230166
H 5.152898839 -0.8337251591 -1.9659757536
O -0.8200291435 -0.7434312593 -0.8951454713
C -1.8757687171 3.7212895272 -0.1779756477
C -5.1504185404 0.2664627318 0.3822701879
C -6.3092943775 -0.3572000465 -0.4904446729
C -5.7320492872 -1.7938058151 -0.7732828331
C -4.3689555386 -1.7417008859 0.025244938
O -4.6737527696 -0.8772362927 1.189545322
H -4.2771261306 1.0170296798 -1.5405287454
H -3.3144841271 -1.1379427695 -1.8735049943
H -0.8711182759 3.2529105619 -0.1269563315
H -5.4503195433 1.1068336362 1.0377957258
H -7.2430122997 -0.405347136 0.0923749497
H -6.4966133154 0.2176871877 -1.4115917058
H -6.3865200123 -2.580793358 -0.366481717
H -5.5752718868 -1.9846806748 -1.8470228488
H -3.9803684086 -2.7213806234 0.3627337694
H -2.1563815304 4.0653402458 0.8385198447
H -1.8528546501 4.5844883077 -0.8678728667
H 1.215378302 1.0431511852 -3.1898205248
H 0.3265069136 -0.2405702992 -2.249903206
H 1.5422043901 -0.7046276717 -3.5169411254
H -0.1853329612 0.5458625313 1.2611189515
H -0.270261595 0.0474030719 2.9834404579
H 0.1909648774 -2.0758727831 0.7698932644
H -0.5063004869 -2.3311811291 2.4283001082
$end

$rem
JOBTYPE                   OPT
METHOD                    B3LYP
DFT_D                     d3_op
BASIS                     STO-3G
GEOM_OPT_MAX_CYCLES       100
GEOM_OPT_TOL_GRADIENT     300
GEOM_OPT_TOL_DISPLACEMENT 1200
GEOM_OPT_TOL_ENERGY       100
SYMMETRY                  False
THRESH                    12
SCF_CONVERGENCE           8
MAX_SUB_FILE_NUM          128
MEM_STATIC                400
MEM_TOTAL                 4000
$end
--------------------------------------------------------------

   16   -1510.2851416392      6.47E-09 Convergence criterion met
 Total energy in the final basis set = -1510.28514164
   14   -1510.2846784863      3.92E-09 Convergence criterion met
 Total energy in the final basis set = -1510.28467849
   14   -1510.2888783326      3.98E-09 Convergence criterion met
 Total energy in the final basis set = -1510.28887833
   15   -1510.2798499420      4.02E-09 Convergence criterion met
 Total energy in the final basis set = -1510.27984994
   15   -1510.2805881915      4.04E-09 Convergence criterion met
 Total energy in the final basis set = -1510.28058819
   15   -1510.2811779922      4.06E-09 Convergence criterion met
 Total energy in the final basis set = -1510.28117799
   15   -1510.2801929400      3.03E-09 Convergence criterion met
 Total energy in the final basis set = -1510.28019294
   14   -1510.2860359894      4.18E-09 Convergence criterion met
   12   -1510.2991222833      6.52E-09 Convergence criterion met
 Total energy in the final basis set = -1510.29912228
   11   -1510.2991398342      6.58E-09 Convergence criterion met
 Total energy in the final basis set = -1510.29913983
   11   -1510.2991440668      6.83E-09 Convergence criterion met
 Total energy in the final basis set = -1510.29914407
   12   -1510.2991354846      2.84E-09 Convergence criterion met
 Total energy in the final basis set = -1510.29913548
   11   -1510.2991483230      6.45E-09 Convergence criterion met
 Total energy in the final basis set = -1510.29914832
   10   -1510.2991470283      8.34E-09 Convergence criterion met
 Total energy in the final basis set = -1510.29914703

             Standard Nuclear Orientation (Angstroms)
    I     Atom           X                Y                Z
 ----------------------------------------------------------------
    1      O      -1.8065910510     1.1923914914     1.2237822674
    2      C      -2.0919311098     1.2176460926     0.0050016793
    3      C      -3.2738530100     0.4884573022    -0.7228031778
    4      C      -3.2311023906    -1.1048154607    -0.7120658901
    5      C      -1.9756151255    -1.7282422940    -0.0180125963
    6      O      -2.1031671199    -1.6461339369     1.3979868638
    7      C      -0.8329726608    -2.0573898679     2.0520361866
    8      C       0.0569208424    -0.7915674014     2.3385504587
    9      O       1.3857137828    -0.9923446280     1.6993865641
   10      C       1.9968897005     0.2619129840     1.3931337651
   11      C       3.4877929667     0.0067600633     0.9736132304
   12      C       3.6940407966    -0.7830047323    -0.3850782712
   13      C       2.3856156083    -1.1105189277    -1.1813704675
   14      O       2.1061205601    -2.1951905573    -1.7376025135
   15      O      -1.3838109601     1.9973380840    -0.9637668972
   16      O       1.5793114268     0.0659557038    -1.2394685198
   17      O       1.4416020403     1.3753954332     1.5368724364
   18      C       0.3896671148    -0.1690882738    -2.0967912210
   19      C       4.2325745804     1.3702862066     0.6576439661
   20      C       5.7875020217     1.1158944334     0.7462351909
   21      C       6.0311182687     0.2917927937    -0.5724499773
   22      C       4.5780432454     0.2675497364    -1.1926826024
   23      O       4.0002664513     1.5688902659    -0.7917849884
   24      H       3.9741560633    -0.5367800726     1.8046877767
   25      H       4.2351258036    -1.7315401706    -0.2224060058
   26      H       3.8464598372     2.2345627590     1.2321467905
   27      H       6.3352883870     2.0715779233     0.7303060572
   28      H       6.0705674965     0.5617708967     1.6553223517
   29      H       6.7306156940     0.8080859569    -1.2489443130
   30      H       6.4134665025    -0.7227737459    -0.3763317224
   31      H       4.5380239939     0.1472503956    -2.2927830012
   32      O      -0.9943966852    -2.2493123072    -0.6029728865
   33      C      -0.3360498142     2.8257311569    -0.3075889737
   34      C      -4.6511668418     0.7472853377     0.0344814696
   35      C      -5.8320912707     0.4020047992    -0.9567712854
   36      C      -5.7874302248    -1.1712051620    -0.9439516287
   37      C      -4.5868141293    -1.4339022739     0.0494495531
   38      O      -4.7058587976    -0.3383075690     1.0365441133
   39      H      -3.3034793986     0.8637245371    -1.7606688655
   40      H      -3.2440405231    -1.4859248591    -1.7486427455
   41      H       0.3248814647     2.2226775348     0.3601021867
   42      H      -4.7216388681     1.7346211436     0.5304566014
   43      H      -6.7876922838     0.7832125227    -0.5630204814
   44      H      -5.6690754588     0.8249902226    -1.9608973150
   45      H      -6.7191650676    -1.5993475044    -0.5413623997
   46      H      -5.6029348946    -1.6008279786    -1.9416207356
   47      H      -4.5991857043    -2.4170676631     0.5578163293
   48      H      -0.8055267978     3.6366831533     0.2844704548
   49      H       0.2550414961     3.2653065790    -1.1309214781
   50      H      -0.2760404447     0.7031049210    -1.9328038688
   51      H      -0.1342282482    -1.1024478387    -1.7891816125
   52      H       0.6819626737    -0.2371235432    -3.1635079027
   53      H      -0.4597570039     0.1163110588     1.9381810786
   54      H       0.2023834925    -0.6584151272     3.4317528997
   55      H      -0.2792005219    -2.7552379102     1.3868061960
   56      H      -1.1209754620    -2.5683284799     2.9914086663
 ----------------------------------------------------------------

    9   -1510.2991473540      9.62E-09 Convergence criterion met
 Total energy in the final basis set = -1510.29914735
 Final energy is   -1510.29914735399
 **  OPTIMIZATION CONVERGED  **

                    Orbital Energies (a.u.)
 --------------------------------------------------------------

 Alpha MOs
 -- Occupied --
-18.942 -18.942 -18.931 -18.917 -18.894 -18.885 -18.884 -18.884
-18.876 -18.859 -10.107 -10.106 -10.103 -10.084 -10.069 -10.065
-10.065 -10.056 -10.056 -10.055 -10.045 -10.044 -10.043 -10.035
-10.031 -10.024 -10.024 -10.023 -10.018 -10.017  -1.021  -1.014
 -1.010  -0.994  -0.975  -0.966  -0.944  -0.940  -0.935  -0.920
 -0.768  -0.759  -0.729  -0.721  -0.714  -0.703  -0.695  -0.657
 -0.640  -0.614  -0.597  -0.579  -0.549  -0.542  -0.540  -0.534
 -0.520  -0.506  -0.486  -0.471  -0.463  -0.456  -0.448  -0.439
 -0.436  -0.432  -0.426  -0.421  -0.412  -0.405  -0.402  -0.395
 -0.390  -0.376  -0.369  -0.366  -0.358  -0.353  -0.353  -0.350
 -0.344  -0.335  -0.334  -0.329  -0.327  -0.326  -0.319  -0.312
 -0.309  -0.307  -0.303  -0.299  -0.292  -0.287  -0.284  -0.279
 -0.266  -0.263  -0.251  -0.239  -0.237  -0.232  -0.231  -0.192
 -0.178  -0.167  -0.166  -0.157  -0.156  -0.153  -0.148  -0.140
 -0.136

          Ground-State Mulliken Net Atomic Charges

     Atom                 Charge (a.u.)
  ----------------------------------------
      1 O                    -0.207101
      2 C                     0.212103
      3 C                    -0.079351
      4 C                    -0.079033
      5 C                     0.209835
      6 O                    -0.160249
      7 C                    -0.053813
      8 C                    -0.065273
      9 O                    -0.173872
     10 C                     0.222693
     11 C                    -0.078394
     12 C                    -0.078926
     13 C                     0.206836
     14 O                    -0.213035
     15 O                    -0.168366
     16 O                    -0.174708
     17 O                    -0.218219
     18 C                    -0.157925
     19 C                     0.024562
     20 C                    -0.143964
     21 C                    -0.144222
     22 C                     0.025963
     23 O                    -0.186873
     24 H                     0.083681
     25 H                     0.084082
     26 H                     0.088401
     27 H                     0.077356
     28 H                     0.072606
     29 H                     0.077282
     30 H                     0.073707
     31 H                     0.082280
     32 O                    -0.210625
     33 C                    -0.144277
     34 C                     0.027076
     35 C                    -0.143860
     36 C                    -0.143881
     37 C                     0.027371
     38 O                    -0.182108
     39 H                     0.088128
     40 H                     0.087046
     41 H                     0.120010
     42 H                     0.085194
     43 H                     0.079176
     44 H                     0.074713
     45 H                     0.079083
     46 H                     0.074565
     47 H                     0.086429
     48 H                     0.081206
     49 H                     0.089732
     50 H                     0.093134
     51 H                     0.103445
     52 H                     0.073714
     53 H                     0.119386
     54 H                     0.080881
     55 H                     0.106293
     56 H                     0.090106
  ----------------------------------------
  Sum of atomic charges =    -0.000000

                    Cartesian Multipole Moments
 -----------------------------------------------------------------
    Charge (ESU x 10^10)
                -0.0000
    Dipole Moment (Debye)
         X      -0.6306      Y       0.0791      Z       0.0451
       Tot       0.6371
    Quadrupole Moments (Debye-Ang)
        XX    -139.3362     XY       0.7771     YY    -162.9222
        XZ      12.3765     YZ      -5.2020     ZZ    -159.1606

 Total job time:  139.02s(wall), 6636.53s(cpu)
        *  Thank you very much for using Q-Chem.  Have a nice day.  *
