 Q-Chem 5.0, Q-Chem, Inc., Pleasanton, CA (2017)
 Q-Chem 5.0.1 for Intel X86 EM64T Linux

User input:
--------------------------------------------------------------
$molecule
0  1
O -3.94934 -3.66094 2.70899
C -3.26408 -4.56952 2.26188
C -3.36658 -6.02376 2.66595
C -4.19984 -6.34845 3.91659
C -4.98317 -5.20419 4.52086
O -5.9333 -4.77524 3.63843
C -6.72729 -3.69748 4.14564
C -6.07525 -2.36048 3.80887
O -6.83818 -1.28616 4.38041
C -6.18249 -0.52607 5.29226
C -7.05456 0.54652 5.9003
C -7.6923 0.17587 7.24722
C -7.09981 -1.02932 7.94948
O -7.54859 -2.16571 7.90749
O -2.4213 -4.30268 1.23009
O -5.88666 -0.85425 8.54319
O -5.08247 -0.79401 5.76234
C -5.16489 -1.85579 9.15832
C -6.32601 1.8523 6.27091
C -7.32668 3.0074 6.28856
C -8.13949 2.66057 7.52227
C -7.34999 1.45236 8.04206
O -6.02538 1.71449 7.63805
H -7.84377 0.78348 5.14913
H -8.78504 -0.0102 7.15183
H -5.4714 2.08447 5.59873
H -6.74374 3.93358 6.49575
H -7.91663 3.1503 5.35776
H -8.07761 3.51388 8.23346
H -9.20241 2.39635 7.33243
H -7.5108 1.31725 9.13447
O -4.82845 -4.79689 5.66636
C -2.23648 -3.05027 0.68291
C -4.0762 -6.89819 1.61711
C -3.65065 -8.35707 1.78431
C -4.38051 -8.72233 3.06263
C -5.1413 -7.42017 3.33312
O -5.41784 -6.92615 2.04237
H -2.31625 -6.36485 2.81015
H -3.55894 -6.75675 4.73035
H -1.85193 -2.3489 1.45403
H -3.89804 -6.55911 0.57325
H -4.09936 -8.93465 0.94464
H -2.55204 -8.52373 1.7994
H -5.09891 -9.54111 2.83486
H -3.73017 -9.01561 3.91492
H -6.0209 -7.60749 3.9876
H -3.19475 -2.66719 0.27121
H -1.49589 -3.11841 -0.1401
H -4.21978 -1.43159 9.55475
H -4.91896 -2.65475 8.42627
H -5.74732 -2.28406 10.00185
H -5.04379 -2.388 4.20375
H -6.02937 -2.2269 2.70699
H -6.9264 -3.7867 5.23855
H -7.72259 -3.72918 3.65422
$end

$opt
CONSTRAINT
tors           1           2           3           4     -12.316
tors           3           4           5           6     +64.206
tors           4           5           6           7    +179.445
tors           5           6           7           8     +89.004
tors           6           7           8           9    -176.975
tors           7           8           9          10    +118.349
tors           8           9          10          11    -177.464
tors           9          10          11          12     +96.148
tors          11          12          13          14     -97.356
ENDCONSTRAINT
$end

$rem
JOBTYPE                   OPT
METHOD                    B3LYP
DFT_D                     d3_op
BASIS                     STO-3G
GEOM_OPT_MAX_CYCLES       100
GEOM_OPT_TOL_GRADIENT     300
GEOM_OPT_TOL_DISPLACEMENT 1200
GEOM_OPT_TOL_ENERGY       100
SYMMETRY                  False
THRESH                    12
SCF_CONVERGENCE           8
MAX_SUB_FILE_NUM          128
MEM_STATIC                400
MEM_TOTAL                 4000
$end
--------------------------------------------------------------

   15   -1510.1561289542      6.40E-09 Convergence criterion met
 Total energy in the final basis set = -1510.15612895
   14   -1510.2249945271      6.54E-09 Convergence criterion met
 Total energy in the final basis set = -1510.22499453
   14   -1510.2603515420      7.79E-09 Convergence criterion met
 Total energy in the final basis set = -1510.26035154
   14   -1510.2756737454      4.97E-09 Convergence criterion met
 Total energy in the final basis set = -1510.27567375
   14   -1510.2814535152      4.62E-09 Convergence criterion met
 Total energy in the final basis set = -1510.28145352
   13   -1510.2839953913      9.13E-09 Convergence criterion met
 Total energy in the final basis set = -1510.28399539
   13   -1510.2850211567      4.16E-09 Convergence criterion met
 Total energy in the final basis set = -1510.28502116
   13   -1510.2844334139      9.97E-09 Convergence criterion met
   12   -1510.2870260155      3.47E-09 Convergence criterion met
 Total energy in the final basis set = -1510.28702602
   11   -1510.2870980580      8.71E-09 Convergence criterion met
 Total energy in the final basis set = -1510.28709806
   11   -1510.2871470741      8.49E-09 Convergence criterion met
 Total energy in the final basis set = -1510.28714707
   11   -1510.2871935691      5.54E-09 Convergence criterion met
 Total energy in the final basis set = -1510.28719357
   11   -1510.2872151498      3.17E-09 Convergence criterion met
 Total energy in the final basis set = -1510.28721515
    9   -1510.2872287125      9.16E-09 Convergence criterion met
 Total energy in the final basis set = -1510.28722871

             Standard Nuclear Orientation (Angstroms)
    I     Atom           X                Y                Z
 ----------------------------------------------------------------
    1      O       2.1478654849    -1.5489656718    -0.6059174591
    2      C       3.3663682129    -1.4576254874    -0.8688599743
    3      C       4.2788384817    -0.1904069429    -0.8139326053
    4      C       3.5020976763     1.1789646572    -0.6673128889
    5      C       2.0062691971     1.0635941293    -0.1932482853
    6      O       1.9507149426     0.5256136452     1.1324396620
    7      C       0.5396722030     0.4313846802     1.5796487348
    8      C      -0.1044954574    -0.9455490589     1.1810921868
    9      O      -1.5241796036    -0.9025965075     1.6072056668
   10      C      -2.3730776083    -1.0342614792     0.4568629453
   11      C      -3.8568162473    -0.9194307512     0.9356395578
   12      C      -4.3917731368     0.5750879332     0.7526101793
   13      C      -3.2483510195     1.5499821360     0.2897766123
   14      O      -2.5706881326     2.3053554398     1.0236911196
   15      O       4.1803180561    -2.5669006212    -1.2622403179
   16      O      -3.0583906850     1.4119804712    -1.1159699224
   17      O      -1.9575060556    -1.2255738284    -0.7066599657
   18      C      -1.8996321677     2.2225188427    -1.5657377894
   19      C      -4.8397146436    -1.7017079883    -0.0307733558
   20      C      -6.2648910750    -1.7637312114     0.6491918187
   21      C      -6.7777445373    -0.2931948728     0.4171303328
   22      C      -5.5370779160     0.3483758656    -0.3224604505
   23      O      -5.0280080466    -0.7617464618    -1.1587420030
   24      H      -3.9280854812    -1.2479424031     1.9870827035
   25      H      -4.7955735151     0.9615072023     1.7051662255
   26      H      -4.4451582500    -2.6684434320    -0.3989175046
   27      H      -6.9042151637    -2.5009717807     0.1381406245
   28      H      -6.2035580276    -2.0291997897     1.7167085079
   29      H      -7.6645192389    -0.2748511197    -0.2363377144
   30      H      -7.0198591793     0.2281251674     1.3569324113
   31      H      -5.7634347283     1.2320214339    -0.9495683291
   32      O       1.0080329096     1.4454897444    -0.8467615004
   33      C       3.3678210010    -3.8057685367    -1.2917615473
   34      C       5.2907585077    -0.1226864559     0.4151532375
   35      C       6.5020311051     0.7821383093    -0.0402317390
   36      C       5.8110041108     2.1965824384    -0.0759427965
   37      C       4.3704347312     1.8559619804     0.4823683512
   38      O       4.6052360306     0.7260151451     1.4124617301
   39      H       4.8599741771    -0.1882602509    -1.7543478070
   40      H       3.5111611817     1.7556522002    -1.6082959574
   41      H       2.5175957698    -3.7202249541    -1.9987891758
   42      H       5.5621282351    -1.1044176110     0.8493195185
   43      H       7.3076986334     0.7475519975     0.7108891701
   44      H       6.9125761358     0.4781153674    -1.0162952192
   45      H       6.3217301443     2.9157442336     0.5834360008
   46      H       5.7655139372     2.6199879991    -1.0922048429
   47      H       3.8629266837     2.6876909921     1.0084551525
   48      H       2.9664382694    -4.0536028394    -0.2877879860
   49      H       4.0495804118    -4.6092229721    -1.6259993037
   50      H      -1.9086408069     2.1652189731    -2.6693084439
   51      H      -0.9327020462     1.8207634820    -1.1838406083
   52      H      -2.0007032377     3.2798595968    -1.2480395449
   53      H      -0.0553757722    -1.1063439441     0.0833519361
   54      H       0.4007681393    -1.7820773593     1.7055171525
   55      H      -0.0692774335     1.2534060527     1.1444120592
   56      H       0.5619980364     0.5348777386     2.6831246459
 ----------------------------------------------------------------

    9   -1510.2872297625      4.68E-09 Convergence criterion met
 Total energy in the final basis set = -1510.28722976
 Final energy is   -1510.28722976254
 **  OPTIMIZATION CONVERGED  **

                    Orbital Energies (a.u.)
 --------------------------------------------------------------

 Alpha MOs
 -- Occupied --
-18.940 -18.930 -18.923 -18.922 -18.892 -18.884 -18.882 -18.871
-18.871 -18.860 -10.106 -10.099 -10.091 -10.087 -10.068 -10.064
-10.062 -10.059 -10.054 -10.054 -10.052 -10.042 -10.039 -10.037
-10.032 -10.030 -10.023 -10.022 -10.016 -10.015  -1.019  -1.008
 -1.004  -0.997  -0.973  -0.963  -0.942  -0.933  -0.928  -0.922
 -0.766  -0.757  -0.726  -0.719  -0.711  -0.701  -0.688  -0.667
 -0.643  -0.611  -0.594  -0.574  -0.548  -0.541  -0.539  -0.531
 -0.516  -0.503  -0.483  -0.469  -0.464  -0.458  -0.445  -0.438
 -0.436  -0.427  -0.424  -0.415  -0.411  -0.402  -0.396  -0.393
 -0.387  -0.377  -0.367  -0.363  -0.358  -0.355  -0.349  -0.342
 -0.341  -0.337  -0.335  -0.331  -0.325  -0.322  -0.318  -0.316
 -0.308  -0.302  -0.301  -0.299  -0.290  -0.284  -0.278  -0.274
 -0.270  -0.262  -0.245  -0.238  -0.236  -0.236  -0.227  -0.185
 -0.179  -0.166  -0.162  -0.156  -0.151  -0.148  -0.145  -0.140
 -0.136

          Ground-State Mulliken Net Atomic Charges

     Atom                 Charge (a.u.)
  ----------------------------------------
      1 O                    -0.210387
      2 C                     0.212045
      3 C                    -0.079843
      4 C                    -0.079351
      5 C                     0.217669
      6 O                    -0.162997
      7 C                    -0.051002
      8 C                    -0.058712
      9 O                    -0.175566
     10 C                     0.206012
     11 C                    -0.078156
     12 C                    -0.078435
     13 C                     0.201348
     14 O                    -0.220550
     15 O                    -0.170363
     16 O                    -0.164161
     17 O                    -0.204566
     18 C                    -0.139504
     19 C                     0.026256
     20 C                    -0.144411
     21 C                    -0.143823
     22 C                     0.026460
     23 O                    -0.182714
     24 H                     0.086055
     25 H                     0.082804
     26 H                     0.084670
     27 H                     0.077094
     28 H                     0.072611
     29 H                     0.077006
     30 H                     0.072700
     31 H                     0.085545
     32 O                    -0.219678
     33 C                    -0.128689
     34 C                     0.026754
     35 C                    -0.141964
     36 C                    -0.145219
     37 C                     0.026645
     38 O                    -0.183383
     39 H                     0.086665
     40 H                     0.085974
     41 H                     0.092167
     42 H                     0.085965
     43 H                     0.078561
     44 H                     0.074482
     45 H                     0.078806
     46 H                     0.074159
     47 H                     0.084274
     48 H                     0.089285
     49 H                     0.091625
     50 H                     0.086971
     51 H                     0.108398
     52 H                     0.081897
     53 H                     0.113748
     54 H                     0.082894
     55 H                     0.097445
     56 H                     0.088483
  ----------------------------------------
  Sum of atomic charges =    -0.000000

                    Cartesian Multipole Moments
 -----------------------------------------------------------------
    Charge (ESU x 10^10)
                -0.0000
    Dipole Moment (Debye)
         X       1.9581      Y      -0.9903      Z       0.2779
       Tot       2.2118
    Quadrupole Moments (Debye-Ang)
        XX    -136.8499     XY       1.4943     YY    -150.5066
        XZ     -13.1210     YZ      -4.0762     ZZ    -163.6399

 Total job time:  53.71s(wall), 2554.42s(cpu)
        *  Thank you very much for using Q-Chem.  Have a nice day.  *
