 Q-Chem 5.0, Q-Chem, Inc., Pleasanton, CA (2017)
 Q-Chem 5.0.1 for Intel X86 EM64T Linux

User input:
--------------------------------------------------------------
$molecule
0  1
O 2.1478654849 -1.5489656718 -0.6059174591
C 3.3663682129 -1.4576254874 -0.8688599743
C 4.2788384817 -0.1904069429 -0.8139326053
C 3.5020976763 1.1789646572 -0.6673128889
C 2.0062691971 1.0635941293 -0.1932482853
O 1.9507149426 0.5256136452 1.132439662
C 0.539672203 0.4313846802 1.5796487348
C -0.1044954574 -0.9455490589 1.1810921868
O -1.5241796036 -0.9025965075 1.6072056668
C -2.3730776083 -1.0342614792 0.4568629453
C -3.8568162473 -0.9194307512 0.9356395578
C -4.3917731368 0.5750879332 0.7526101793
C -3.2483510195 1.549982136 0.2897766123
O -2.5706881326 2.3053554398 1.0236911196
O 4.1803180561 -2.5669006212 -1.2622403179
O -3.058390685 1.4119804712 -1.1159699224
O -1.9575060556 -1.2255738284 -0.7066599657
C -1.8996321677 2.2225188427 -1.5657377894
C -4.8397146436 -1.7017079883 -0.0307733558
C -6.264891075 -1.7637312114 0.6491918187
C -6.7777445373 -0.2931948728 0.4171303328
C -5.537077916 0.3483758656 -0.3224604505
O -5.0280080466 -0.7617464618 -1.158742003
H -3.9280854812 -1.2479424031 1.9870827035
H -4.7955735151 0.9615072023 1.7051662255
H -4.44515825 -2.668443432 -0.3989175046
H -6.9042151637 -2.5009717807 0.1381406245
H -6.2035580276 -2.0291997897 1.7167085079
H -7.6645192389 -0.2748511197 -0.2363377144
H -7.0198591793 0.2281251674 1.3569324113
H -5.7634347283 1.2320214339 -0.9495683291
O 1.0080329096 1.4454897444 -0.8467615004
C 3.367821001 -3.8057685367 -1.2917615473
C 5.2907585077 -0.1226864559 0.4151532375
C 6.5020311051 0.7821383093 -0.040231739
C 5.8110041108 2.1965824384 -0.0759427965
C 4.3704347312 1.8559619804 0.4823683512
O 4.6052360306 0.7260151451 1.4124617301
H 4.8599741771 -0.1882602509 -1.754347807
H 3.5111611817 1.7556522002 -1.6082959574
H 2.5175957698 -3.7202249541 -1.9987891758
H 5.5621282351 -1.104417611 0.8493195185
H 7.3076986334 0.7475519975 0.7108891701
H 6.9125761358 0.4781153674 -1.0162952192
H 6.3217301443 2.9157442336 0.5834360008
H 5.7655139372 2.6199879991 -1.0922048429
H 3.8629266837 2.6876909921 1.0084551525
H 2.9664382694 -4.0536028394 -0.287787986
H 4.0495804118 -4.6092229721 -1.6259993037
H -1.9086408069 2.1652189731 -2.6693084439
H -0.9327020462 1.820763482 -1.1838406083
H -2.0007032377 3.2798595968 -1.2480395449
H -0.0553757722 -1.1063439441 0.0833519361
H 0.4007681393 -1.7820773593 1.7055171525
H -0.0692774335 1.2534060527 1.1444120592
H 0.5619980364 0.5348777386 2.6831246459
$end

$rem
JOBTYPE                   OPT
METHOD                    B3LYP
DFT_D                     d3_op
BASIS                     STO-3G
GEOM_OPT_MAX_CYCLES       100
GEOM_OPT_TOL_GRADIENT     300
GEOM_OPT_TOL_DISPLACEMENT 1200
GEOM_OPT_TOL_ENERGY       100
SYMMETRY                  False
THRESH                    12
SCF_CONVERGENCE           8
MAX_SUB_FILE_NUM          128
MEM_STATIC                400
MEM_TOTAL                 4000
$end
--------------------------------------------------------------

   16   -1510.2871245324      5.39E-09 Convergence criterion met
 Total energy in the final basis set = -1510.28712453
   14   -1510.2636244116      5.83E-09 Convergence criterion met
 Total energy in the final basis set = -1510.26362441
   14   -1510.2886014757      6.32E-09 Convergence criterion met
 Total energy in the final basis set = -1510.28860148
   14   -1510.2879538260      4.96E-09 Convergence criterion met
 Total energy in the final basis set = -1510.28795383
   13   -1510.2906713758      6.63E-09 Convergence criterion met
 Total energy in the final basis set = -1510.29067138
   14   -1510.2907722109      2.23E-09 Convergence criterion met
 Total energy in the final basis set = -1510.29077221
   13   -1510.2920760204      3.85E-09 Convergence criterion met
 Total energy in the final basis set = -1510.29207602
   13   -1510.2927459561      8.94E-09 Convergence criterion met
   12   -1510.3034286289      3.84E-09 Convergence criterion met
 Total energy in the final basis set = -1510.30342863
   11   -1510.3034137182      7.86E-09 Convergence criterion met
 Total energy in the final basis set = -1510.30341372
   11   -1510.3034490114      5.07E-09 Convergence criterion met
 Total energy in the final basis set = -1510.30344901
   11   -1510.3034574535      4.01E-09 Convergence criterion met
 Total energy in the final basis set = -1510.30345745
   10   -1510.3034653758      5.57E-09 Convergence criterion met
 Total energy in the final basis set = -1510.30346538
   11   -1510.3034674906      1.82E-09 Convergence criterion met
 Total energy in the final basis set = -1510.30346749

             Standard Nuclear Orientation (Angstroms)
    I     Atom           X                Y                Z
 ----------------------------------------------------------------
    1      O       0.6974885134     0.1009951536    -0.0850730252
    2      C       1.5618457419    -0.4466862224    -0.8118269606
    3      C       3.0377267808     0.0385286914    -0.9797028138
    4      C       3.2684150625     1.4525963970    -0.2986994586
    5      C       1.9394772781     2.0742630016     0.2829103236
    6      O       1.8594921368     1.8094428945     1.6864404137
    7      C       0.4867096846     2.0617673528     2.1889707129
    8      C      -0.0410999847     0.7316020693     2.8516862741
    9      O      -1.4504754977     0.5088934305     2.4392604398
   10      C      -1.5900244794    -0.6991733934     1.6949979413
   11      C      -3.0629049434    -0.7585041450     1.1634318811
   12      C      -3.3696859920     0.2167550021    -0.0587735988
   13      C      -2.1565991178     1.1049470050    -0.5350921225
   14      O      -1.7217123271     2.1214682416     0.0506275503
   15      O       1.3158865917    -1.6030872557    -1.5893437832
   16      O      -1.6525067979     0.6199007184    -1.7833540066
   17      O      -0.6894502473    -1.5560730872     1.5384215225
   18      C      -0.6536315145     1.5624597537    -2.3524731811
   19      C      -3.4075355814    -2.1655100477     0.5192529026
   20      C      -4.9778864552    -2.3058873467     0.4456492210
   21      C      -5.3115295107    -1.3250112833    -0.7393962424
   22      C      -3.8669422486    -0.8264570522    -1.1442328347
   23      O      -3.0116595581    -2.0100328842    -0.8992947258
   24      H      -3.7331604368    -0.5214065431     2.0094241108
   25      H      -4.1752560790     0.9199413606     0.2217847843
   26      H      -2.8679148019    -3.0164033770     0.9785230005
   27      H      -5.2605238495    -3.3427143110     0.2032938998
   28      H      -5.4674036801    -2.0170860871     1.3892897280
   29      H      -5.7851825747    -1.8544622334    -1.5812902943
   30      H      -5.9658392694    -0.4939100588    -0.4314381981
   31      H      -3.7583998416    -0.4806284190    -2.1896796005
   32      O       1.1364542660     2.8024928545    -0.3505243772
   33      C      -0.1024205737    -2.0192594238    -1.3902974745
   34      C       4.0355606601    -0.8690292415    -0.1378240858
   35      C       5.5122398730    -0.5361728107    -0.5866063831
   36      C       5.7319226207     0.8599775994     0.1057718486
   37      C       4.3346965517     1.0740091619     0.8137831641
   38      O       3.9420877741    -0.2956288445     1.2225716089
   39      H       3.3000841506     0.0398308230    -2.0526366407
   40      H       3.6784748659     2.1707156946    -1.0309625146
   41      H      -0.7985303585    -1.2212440153    -1.7327247311
   42      H       3.7728031037    -1.9448734084    -0.1302512957
   43      H       6.2115661447    -1.2945378549    -0.1999529221
   44      H       5.6120396242    -0.4895948920    -1.6828457151
   45      H       6.5398441468     0.8173410525     0.8534144118
   46      H       5.9584485519     1.6615973179    -0.6150957460
   47      H       4.3430723638     1.7504397017     1.6893735015
   48      H      -0.3107384508    -2.2046406546    -0.3126134164
   49      H      -0.2371929134    -2.9395320656    -1.9850844674
   50      H      -0.0328155755     0.9670585226    -3.0468345831
   51      H      -0.0152016615     2.0349539072    -1.5656318703
   52      H      -1.1754154687     2.3567318789    -2.9240496653
   53      H       0.5736597479    -0.1288990068     2.5079636433
   54      H      -0.0157949413     0.7899486417     3.9593629273
   55      H      -0.1888070707     2.3424784152     1.3450735975
   56      H       0.5219118174     2.8885684040     2.9282913897
 ----------------------------------------------------------------

    9   -1510.3034681945      4.28E-09 Convergence criterion met
 Total energy in the final basis set = -1510.30346819
 Final energy is   -1510.30346819451
 **  OPTIMIZATION CONVERGED  **

                    Orbital Energies (a.u.)
 --------------------------------------------------------------

 Alpha MOs
 -- Occupied --
-18.933 -18.932 -18.930 -18.916 -18.887 -18.885 -18.878 -18.875
-18.873 -18.857 -10.100 -10.099 -10.098 -10.093 -10.059 -10.058
-10.058 -10.056 -10.055 -10.048 -10.040 -10.038 -10.037 -10.036
-10.031 -10.030 -10.020 -10.019 -10.018 -10.017  -1.014  -1.008
 -1.004  -0.994  -0.970  -0.967  -0.936  -0.931  -0.931  -0.922
 -0.763  -0.759  -0.724  -0.720  -0.708  -0.704  -0.686  -0.651
 -0.644  -0.608  -0.592  -0.572  -0.544  -0.542  -0.536  -0.534
 -0.511  -0.505  -0.477  -0.470  -0.465  -0.453  -0.446  -0.437
 -0.432  -0.431  -0.429  -0.413  -0.410  -0.404  -0.395  -0.393
 -0.384  -0.373  -0.364  -0.363  -0.358  -0.355  -0.349  -0.343
 -0.336  -0.333  -0.330  -0.327  -0.326  -0.320  -0.317  -0.309
 -0.308  -0.305  -0.299  -0.295  -0.287  -0.283  -0.278  -0.274
 -0.267  -0.251  -0.250  -0.242  -0.234  -0.232  -0.227  -0.183
 -0.177  -0.164  -0.157  -0.155  -0.149  -0.148  -0.144  -0.142
 -0.138

          Ground-State Mulliken Net Atomic Charges

     Atom                 Charge (a.u.)
  ----------------------------------------
      1 O                    -0.217955
      2 C                     0.214775
      3 C                    -0.079578
      4 C                    -0.081779
      5 C                     0.224106
      6 O                    -0.175113
      7 C                    -0.058021
      8 C                    -0.053326
      9 O                    -0.169224
     10 C                     0.217724
     11 C                    -0.078377
     12 C                    -0.077695
     13 C                     0.215885
     14 O                    -0.206453
     15 O                    -0.170047
     16 O                    -0.170478
     17 O                    -0.212222
     18 C                    -0.145832
     19 C                     0.023716
     20 C                    -0.143823
     21 C                    -0.144445
     22 C                     0.023862
     23 O                    -0.190603
     24 H                     0.086460
     25 H                     0.085605
     26 H                     0.086884
     27 H                     0.077884
     28 H                     0.073375
     29 H                     0.077656
     30 H                     0.073129
     31 H                     0.089308
     32 O                    -0.228739
     33 C                    -0.146805
     34 C                     0.025464
     35 C                    -0.143778
     36 C                    -0.144273
     37 C                     0.025835
     38 O                    -0.188311
     39 H                     0.085409
     40 H                     0.081775
     41 H                     0.103540
     42 H                     0.086281
     43 H                     0.077923
     44 H                     0.073520
     45 H                     0.077389
     46 H                     0.072908
     47 H                     0.088828
     48 H                     0.104129
     49 H                     0.082770
     50 H                     0.080403
     51 H                     0.121924
     52 H                     0.077955
     53 H                     0.109244
     54 H                     0.081724
     55 H                     0.120749
     56 H                     0.078739
  ----------------------------------------
  Sum of atomic charges =    -0.000000

                    Cartesian Multipole Moments
 -----------------------------------------------------------------
    Charge (ESU x 10^10)
                -0.0000
    Dipole Moment (Debye)
         X      -0.5933      Y      -0.3158      Z      -0.6591
       Tot       0.9413
    Quadrupole Moments (Debye-Ang)
        XX    -137.8286     XY       5.2926     YY    -165.1182
        XZ      -5.5582     YZ      -1.1709     ZZ    -155.8966

 Total job time:  140.05s(wall), 6683.45s(cpu)
        *  Thank you very much for using Q-Chem.  Have a nice day.  *
