 Q-Chem 5.0, Q-Chem, Inc., Pleasanton, CA (2017)
 Q-Chem 5.0.1 for Intel X86 EM64T Linux

User input:
--------------------------------------------------------------
$molecule
0  1
O -3.94934 -3.66094 2.70899
C -3.26408 -4.56952 2.26188
C -3.36658 -6.02376 2.66595
C -4.19297 -6.34761 3.92136
C -4.97084 -5.20232 4.53071
O -6.1498 -5.03439 3.86192
C -6.95081 -3.97227 4.39064
C -6.39968 -2.62362 3.93949
O -7.18416 -1.56091 4.50351
C -6.61194 -0.90103 5.54094
C -7.62465 -0.29392 6.48248
C -8.10869 -1.22716 7.60188
C -7.27251 -2.46956 7.83418
O -7.61049 -3.6125 7.56212
O -2.42066 -4.3029 1.23049
O -6.0188 -2.2723 8.32661
O -5.41382 -0.65504 5.60572
C -5.17718 -3.27448 8.75954
C -7.09666 0.87968 7.34866
C -8.26751 1.76925 7.76871
C -8.97793 0.85761 8.75132
C -7.97577 -0.30126 8.82048
O -6.72963 0.30686 8.57996
H -8.44331 0.12553 5.8536
H -9.14488 -1.57523 7.39543
H -6.31889 1.49098 6.84138
H -7.82836 2.62421 8.33198
H -8.90218 2.1673 6.94805
H -9.05757 1.38655 9.7267
H -9.9783 0.49763 8.42639
H -8.073 -0.85778 9.77876
O -4.7026 -4.71354 5.61938
C -2.23225 -3.05012 0.68541
C -4.07134 -6.90542 1.6203
C -3.61938 -8.35655 1.77942
C -4.3201 -8.73313 3.07026
C -5.11014 -7.44859 3.34528
O -5.40829 -6.95989 2.05745
H -2.31455 -6.3607 2.80909
H -3.5392 -6.74272 4.73157
H -1.84557 -2.35127 1.45775
H -3.90917 -6.56063 0.57572
H -4.07602 -8.9382 0.94676
H -2.5188 -8.51022 1.77357
H -5.01649 -9.57483 2.85847
H -3.64938 -8.99953 3.91554
H -5.97864 -7.65991 4.00721
H -3.18928 -2.66352 0.27421
H -1.4917 -3.11903 -0.13757
H -4.2224 -2.82503 9.10108
H -4.96403 -3.98606 7.94162
H -5.64145 -3.81812 9.60969
H -5.34512 -2.56535 4.27474
H -6.40695 -2.54074 2.83205
H -7.03309 -4.06455 5.47051
H -7.97726 -4.06654 3.97783
$end

$opt
CONSTRAINT
tors           1           2           3           4     -12.668
tors           3           4           5           6     +82.270
tors           4           5           6           7    +179.445
tors           5           6           7           8     +77.015
tors           6           7           8           9    -178.373
tors           7           8           9          10    +104.320
tors           8           9          10          11    -153.024
tors           9          10          11          12     +87.578
tors          11          12          13          14    -109.129
ENDCONSTRAINT
$end

$rem
JOBTYPE                   OPT
METHOD                    B3LYP
DFT_D                     d3_op
BASIS                     STO-3G
GEOM_OPT_MAX_CYCLES       100
GEOM_OPT_TOL_GRADIENT     300
GEOM_OPT_TOL_DISPLACEMENT 1200
GEOM_OPT_TOL_ENERGY       100
SYMMETRY                  False
THRESH                    12
SCF_CONVERGENCE           8
MAX_SUB_FILE_NUM          128
MEM_STATIC                400
MEM_TOTAL                 4000
$end
--------------------------------------------------------------

   15   -1510.1571040251      9.43E-09 Convergence criterion met
 Total energy in the final basis set = -1510.15710403
   14   -1510.2274965306      1.77E-09 Convergence criterion met
 Total energy in the final basis set = -1510.22749653
   14   -1510.2595872813      2.79E-09 Convergence criterion met
 Total energy in the final basis set = -1510.25958728
   14   -1510.2779607530      5.36E-09 Convergence criterion met
 Total energy in the final basis set = -1510.27796075
   13   -1510.2845258477      4.81E-09 Convergence criterion met
 Total energy in the final basis set = -1510.28452585
   13   -1510.2878752525      4.20E-09 Convergence criterion met
 Total energy in the final basis set = -1510.28787525
   13   -1510.2885161712      1.95E-09 Convergence criterion met
 Total energy in the final basis set = -1510.28851617
   12   -1510.2888896615      6.07E-09 Convergence criterion met
   10   -1510.2891380757      7.49E-09 Convergence criterion met
 Total energy in the final basis set = -1510.28913808
   11   -1510.2891675283      4.54E-09 Convergence criterion met
 Total energy in the final basis set = -1510.28916753
   10   -1510.2891820204      9.84E-09 Convergence criterion met
 Total energy in the final basis set = -1510.28918202
    9   -1510.2891866145      8.27E-09 Convergence criterion met
 Total energy in the final basis set = -1510.28918661
    9   -1510.2891897734      5.99E-09 Convergence criterion met
 Total energy in the final basis set = -1510.28918977
    9   -1510.2891924783      4.38E-09 Convergence criterion met
 Total energy in the final basis set = -1510.28919248

             Standard Nuclear Orientation (Angstroms)
    I     Atom           X                Y                Z
 ----------------------------------------------------------------
    1      O       2.3256843696    -1.6740632924    -0.2955383031
    2      C       3.5177142793    -1.4807602066    -0.6211208333
    3      C       4.2770239227    -0.1188561656    -0.6919468932
    4      C       3.3299183739     1.1465908157    -0.6093384662
    5      C       1.8151914645     0.8359017265    -0.2959431910
    6      O       1.6490376464     0.6675665656     1.1089957564
    7      C       0.2363117521     0.3848650587     1.4683888450
    8      C      -0.1724411041    -1.1048045304     1.1587565989
    9      O      -1.6013816952    -1.3007763793     1.5054225705
   10      C      -2.4291129692    -1.3434964728     0.3286821707
   11      C      -3.8594060513    -0.8580009397     0.7490117123
   12      C      -4.0316566619     0.7227580540     0.6595315251
   13      C      -2.8304936273     1.4285334767    -0.0622238086
   14      O      -1.9579547593     2.1542339163     0.4758758845
   15      O       4.4262467541    -2.5245862169    -0.9785475796
   16      O      -2.8773798286     1.1314388590    -1.4483708082
   17      O      -2.0239574370    -1.6578953497    -0.8105141125
   18      C      -1.7261005189     1.7532749749    -2.1511893201
   19      C      -5.0335891674    -1.3515515400    -0.1980335199
   20      C      -6.3769927605    -1.2533173267     0.6260546299
   21      C      -6.5779275973     0.3079901591     0.6767096453
   22      C      -5.3619708107     0.8069507966    -0.2043523516
   23      O      -5.1798633717    -0.2726967815    -1.2005879007
   24      H      -4.0250421176    -1.1897000167     1.7898684456
   25      H      -4.1425505796     1.1715779523     1.6620396975
   26      H      -4.8447767253    -2.3207361215    -0.6988221676
   27      H      -7.1980191097    -1.7467259080     0.0815817281
   28      H      -6.2910176399    -1.7068834495     1.6263367047
   29      H      -7.5338731485     0.6089722937     0.2198959324
   30      H      -6.5358313469     0.7073078663     1.7027157335
   31      H      -5.5161324189     1.7789073836    -0.7116811267
   32      O       0.8909977471     0.8142431711    -1.1408673195
   33      C       3.7434123385    -3.8380707251    -0.9032436184
   34      C       5.2436948749     0.1326002014     0.5515782016
   35      C       6.3001305386     1.2221615806     0.1189272187
   36      C       5.4008072816     2.5133320268     0.0958934925
   37      C       4.0133125840     1.9355456308     0.5873807454
   38      O       4.3932741669     0.8505573052     1.5239798876
   39      H       4.8602185805    -0.1134106393    -1.6304976356
   40      H       3.3557789011     1.7156324665    -1.5552715328
   41      H       2.8746471458    -3.8852903664    -1.5911496722
   42      H       5.6648443174    -0.7885441427     0.9993442753
   43      H       7.0985198898     1.2990469023     0.8743271549
   44      H       6.7572296214     0.9986135994    -0.8581168336
   45      H       5.7709062535     3.2778840843     0.7971978891
   46      H       5.3277518293     2.9611351150    -0.9081086563
   47      H       3.3503955548     2.6649037766     1.0907685020
   48      H       3.3903425664    -4.0556761935     0.1254762438
   49      H       4.4960883373    -4.5899736574    -1.2036272996
   50      H      -1.8398719097     1.4649835855    -3.2115563748
   51      H      -0.7544677222     1.3763413697    -1.7528001249
   52      H      -1.7576008490     2.8581158305    -2.0628316876
   53      H      -0.0090641788    -1.3368802655     0.0852819499
   54      H       0.4292534307    -1.8035294418     1.7746929610
   55      H      -0.4660815489     1.0901058516     0.9594591870
   56      H       0.1835327965     0.5627814761     2.5610296049
 ----------------------------------------------------------------

    9   -1510.2891932741      3.11E-09 Convergence criterion met
 Total energy in the final basis set = -1510.28919327
 Final energy is   -1510.28919327407
 **  OPTIMIZATION CONVERGED  **

                    Orbital Energies (a.u.)
 --------------------------------------------------------------

 Alpha MOs
 -- Occupied --
-18.942 -18.929 -18.928 -18.916 -18.890 -18.885 -18.883 -18.875
-18.868 -18.865 -10.107 -10.100 -10.093 -10.093 -10.069 -10.063
-10.060 -10.056 -10.054 -10.053 -10.050 -10.041 -10.036 -10.035
-10.034 -10.032 -10.022 -10.020 -10.017 -10.016  -1.019  -1.007
 -1.003  -0.999  -0.971  -0.964  -0.943  -0.932  -0.928  -0.926
 -0.765  -0.759  -0.725  -0.719  -0.711  -0.702  -0.685  -0.667
 -0.645  -0.611  -0.595  -0.575  -0.547  -0.541  -0.538  -0.532
 -0.515  -0.505  -0.480  -0.472  -0.464  -0.458  -0.445  -0.435
 -0.434  -0.428  -0.425  -0.416  -0.412  -0.406  -0.399  -0.392
 -0.382  -0.375  -0.371  -0.364  -0.358  -0.356  -0.352  -0.345
 -0.341  -0.338  -0.334  -0.329  -0.326  -0.319  -0.317  -0.314
 -0.307  -0.303  -0.301  -0.301  -0.294  -0.282  -0.279  -0.276
 -0.271  -0.261  -0.248  -0.236  -0.234  -0.230  -0.229  -0.186
 -0.179  -0.169  -0.161  -0.152  -0.151  -0.147  -0.145  -0.143
 -0.137

          Ground-State Mulliken Net Atomic Charges

     Atom                 Charge (a.u.)
  ----------------------------------------
      1 O                    -0.210097
      2 C                     0.212892
      3 C                    -0.079684
      4 C                    -0.079945
      5 C                     0.222625
      6 O                    -0.165171
      7 C                    -0.060428
      8 C                    -0.056581
      9 O                    -0.181785
     10 C                     0.206915
     11 C                    -0.078459
     12 C                    -0.078266
     13 C                     0.207235
     14 O                    -0.224702
     15 O                    -0.169151
     16 O                    -0.158460
     17 O                    -0.200661
     18 C                    -0.144688
     19 C                     0.025382
     20 C                    -0.143101
     21 C                    -0.144894
     22 C                     0.026950
     23 O                    -0.182304
     24 H                     0.084920
     25 H                     0.084989
     26 H                     0.086467
     27 H                     0.077258
     28 H                     0.072702
     29 H                     0.077306
     30 H                     0.072827
     31 H                     0.083393
     32 O                    -0.223119
     33 C                    -0.128519
     34 C                     0.026183
     35 C                    -0.142805
     36 C                    -0.145044
     37 C                     0.026913
     38 O                    -0.184798
     39 H                     0.087156
     40 H                     0.084224
     41 H                     0.092472
     42 H                     0.084768
     43 H                     0.078453
     44 H                     0.074168
     45 H                     0.078369
     46 H                     0.073776
     47 H                     0.087304
     48 H                     0.090199
     49 H                     0.092071
     50 H                     0.086624
     51 H                     0.117711
     52 H                     0.078167
     53 H                     0.107738
     54 H                     0.085499
     55 H                     0.103691
     56 H                     0.085318
  ----------------------------------------
  Sum of atomic charges =     0.000000

                    Cartesian Multipole Moments
 -----------------------------------------------------------------
    Charge (ESU x 10^10)
                 0.0000
    Dipole Moment (Debye)
         X       1.7039      Y      -0.2136      Z       0.5310
       Tot       1.7974
    Quadrupole Moments (Debye-Ang)
        XX    -137.6027     XY      -1.6266     YY    -150.6370
        XZ     -13.7935     YZ      -3.5851     ZZ    -163.6489

 Total job time:  51.65s(wall), 2453.97s(cpu)
        *  Thank you very much for using Q-Chem.  Have a nice day.  *
