 Q-Chem 5.0, Q-Chem, Inc., Pleasanton, CA (2017)
 Q-Chem 5.0.1 for Intel X86 EM64T Linux

User input:
--------------------------------------------------------------
$molecule
0  1
O -3.94934 -3.66094 2.70899
C -3.26408 -4.56952 2.26188
C -3.36658 -6.02376 2.66595
C -4.242 -6.35399 3.88597
C -5.05867 -5.21639 4.4578
O -6.34808 -5.30288 4.01578
C -7.18936 -4.2633 4.52644
C -7.5526 -3.28646 3.4129
O -8.36517 -2.22522 3.9386
C -7.80851 -0.98928 3.89711
C -8.62719 0.04952 4.62603
C -8.66702 -0.11205 6.15266
C -7.62461 -1.03799 6.74655
O -7.85813 -2.08571 7.33163
O -2.40002 -4.29731 1.24901
O -6.32338 -0.68458 6.56014
O -6.77761 -0.70868 3.29703
C -5.24532 -1.35261 7.10071
C -8.09965 1.50218 4.53181
C -9.25324 2.47945 4.75994
C -9.51266 2.27327 6.24009
C -8.3577 1.32802 6.59125
O -7.33357 1.6926 5.69643
H -9.64022 0.02863 4.16349
H -9.6593 -0.48521 6.49029
H -7.59439 1.73089 3.5685
H -8.83882 3.50284 4.61244
H -10.13835 2.3493 4.10083
H -9.40103 3.25263 6.75591
H -10.4951 1.8176 6.49104
H -8.10773 1.39001 7.67349
O -4.58281 -4.3257 5.1521
C -2.20257 -3.04214 0.71275
C -4.00074 -6.89977 1.57461
C -3.53872 -8.34539 1.74049
C -4.29941 -8.74049 2.98762
C -5.11384 -7.46429 3.23389
O -5.35563 -6.96631 1.94005
H -2.31762 -6.3423 2.86157
H -3.67939 -6.79614 4.73788
H -1.83263 -2.34565 1.49535
H -3.78766 -6.54225 0.54339
H -3.94248 -8.92477 0.8794
H -2.43708 -8.48218 1.79239
H -4.97782 -9.58431 2.72999
H -3.67141 -9.01364 3.86292
H -6.0114 -7.71454 3.84143
H -3.15174 -2.65548 0.28376
H -1.44549 -3.10676 -0.09541
H -4.30892 -0.85319 6.77822
H -5.22837 -2.40394 6.75347
H -5.30084 -1.32926 8.20989
H -6.5975 -2.94899 2.95577
H -8.11679 -3.8177 2.61747
H -6.74767 -3.67229 5.35645
H -8.11204 -4.71993 4.94265
$end

$opt
CONSTRAINT
tors           1           2           3           4     -10.120
tors           3           4           5           6     +99.770
tors           4           5           6           7    +179.445
tors           5           6           7           8    +109.282
tors           6           7           8           9    -178.373
tors           7           8           9          10    +115.228
tors           8           9          10          11    -172.347
tors           9          10          11          12     +68.862
tors          11          12          13          14    -115.709
ENDCONSTRAINT
$end

$rem
JOBTYPE                   OPT
METHOD                    B3LYP
DFT_D                     d3_op
BASIS                     STO-3G
GEOM_OPT_MAX_CYCLES       100
GEOM_OPT_TOL_GRADIENT     300
GEOM_OPT_TOL_DISPLACEMENT 1200
GEOM_OPT_TOL_ENERGY       100
SYMMETRY                  False
THRESH                    12
SCF_CONVERGENCE           8
MAX_SUB_FILE_NUM          128
MEM_STATIC                400
MEM_TOTAL                 4000
$end
--------------------------------------------------------------

   15   -1510.1589033934      7.34E-09 Convergence criterion met
 Total energy in the final basis set = -1510.15890339
   14   -1510.2281599485      3.40E-09 Convergence criterion met
 Total energy in the final basis set = -1510.22815995
   14   -1510.2650112929      8.57E-09 Convergence criterion met
 Total energy in the final basis set = -1510.26501129
   14   -1510.2789383856      9.82E-09 Convergence criterion met
 Total energy in the final basis set = -1510.27893839
   14   -1510.2871564127      5.66E-09 Convergence criterion met
 Total energy in the final basis set = -1510.28715641
   13   -1510.2893709201      2.29E-09 Convergence criterion met
 Total energy in the final basis set = -1510.28937092
   13   -1510.2905238497      2.53E-09 Convergence criterion met
 Total energy in the final basis set = -1510.29052385
   12   -1510.2908199689      7.22E-09 Convergence criterion met
   11   -1510.2916467764      9.37E-09 Convergence criterion met
 Total energy in the final basis set = -1510.29164678
   11   -1510.2916762175      6.66E-09 Convergence criterion met
 Total energy in the final basis set = -1510.29167622
   11   -1510.2916929983      3.83E-09 Convergence criterion met
 Total energy in the final basis set = -1510.29169300
   10   -1510.2917002043      9.61E-09 Convergence criterion met
 Total energy in the final basis set = -1510.29170020
   11   -1510.2917057803      3.34E-09 Convergence criterion met
 Total energy in the final basis set = -1510.29170578
    9   -1510.2917041389      7.17E-09 Convergence criterion met
 Total energy in the final basis set = -1510.29170414

             Standard Nuclear Orientation (Angstroms)
    I     Atom           X                Y                Z
 ----------------------------------------------------------------
    1      O       1.9291823502    -1.2404874306     0.0248399523
    2      C       3.0972239483    -1.5063279961    -0.3421399140
    3      C       4.2328548392    -0.4811661455    -0.6716778734
    4      C       3.6968400014     1.0094710060    -0.7440297323
    5      C       2.1308677416     1.1118071688    -0.6217253385
    6      O       1.7776906570     1.4742313963     0.7169901574
    7      C       0.3062011041     1.5876214380     0.8446764376
    8      C      -0.2077425148     0.3837138953     1.7106359794
    9      O      -1.6834305515     0.4671957427     1.8105862456
   10      C      -2.3017177352    -0.6552024553     1.1615700096
   11      C      -3.8420074725    -0.3739277825     1.1490287578
   12      C      -4.2322446227     0.8269191754     0.1824276280
   13      C      -3.0298186944     1.3592289537    -0.6801169632
   14      O      -2.5072370202     2.4953509157    -0.6309469913
   15      O       3.6054943741    -2.8300171881    -0.4890262754
   16      O      -2.6220760099     0.3181569211    -1.5672021221
   17      O      -1.6888642019    -1.6458462981     0.7112195100
   18      C      -1.5651718967     0.7853081720    -2.4985345171
   19      C      -4.7028126666    -1.5575184677     0.5437360652
   20      C      -6.1946705797    -1.3590272558     1.0211416766
   21      C      -6.6252126281    -0.1225795588     0.1466377937
   22      C      -5.3243097083     0.1101589936    -0.7236228416
   23      O      -4.7723146993    -1.2516046033    -0.9034916633
   24      H      -4.1508198964    -0.1417971658     2.1846414985
   25      H      -4.6481566657     1.6795714200     0.7468929360
   26      H      -4.2719169524    -2.5644096052     0.7059759696
   27      H      -6.7960422019    -2.2503866706     0.7808143947
   28      H      -6.2685876120    -1.1643408160     2.1031208875
   29      H      -7.4851467438    -0.3616127156    -0.4990561018
   30      H      -6.8755817383     0.7609968854     0.7553551921
   31      H      -5.4938688095     0.5917551119    -1.7060340309
   32      O       1.3271943264     1.0321671619    -1.5811110479
   33      C       2.5562677889    -3.8176446481    -0.1366120991
   34      C       5.2574466617    -0.3724778629     0.5398097312
   35      C       6.5321756726     0.4210563025     0.0499451793
   36      C       5.9791086261     1.8943664007     0.0173169607
   37      C       4.4820841753     1.6680132704     0.4677752291
   38      O       4.5843191492     0.5712378219     1.4595683810
   39      H       4.7378775860    -0.7929551251    -1.6033662160
   40      H       3.9780453876     1.4692164194    -1.7081025393
   41      H       1.6538539175    -3.6964403584    -0.7697046885
   42      H       5.4649875080    -1.3352635178     1.0462822795
   43      H       7.3546203593     0.3123334954     0.7746039072
   44      H       6.8814212113     0.0754488327    -0.9363365439
   45      H       6.5042655714     2.5381165450     0.7407205305
   46      H       6.0487875366     2.3545702447    -0.9812020499
   47      H       3.9802818281     2.5469697797     0.9151303602
   48      H       2.2550599951    -3.7266749635     0.9269557689
   49      H       3.0050439618    -4.8125659602    -0.3115654360
   50      H      -1.5572722702     0.0542050117    -3.3276682067
   51      H      -0.5551741624     0.8113360499    -2.0251425553
   52      H      -1.7994917131     1.7935629054    -2.8939270823
   53      H       0.0895414578    -0.5759918321     1.2327239522
   54      H       0.2166441140     0.4392777913     2.7342991494
   55      H      -0.1732748511     1.5861610775    -0.1540222482
   56      H       0.0869453596     2.5495676733     1.3524315066
 ----------------------------------------------------------------

    9   -1510.2917040727      2.84E-09 Convergence criterion met
 Total energy in the final basis set = -1510.29170407
 Final energy is   -1510.29170407271
 **  OPTIMIZATION CONVERGED  **

                    Orbital Energies (a.u.)
 --------------------------------------------------------------

 Alpha MOs
 -- Occupied --
-18.946 -18.928 -18.922 -18.921 -18.890 -18.889 -18.881 -18.873
-18.867 -18.861 -10.109 -10.100 -10.093 -10.087 -10.069 -10.064
-10.060 -10.056 -10.054 -10.053 -10.053 -10.043 -10.038 -10.035
-10.032 -10.030 -10.023 -10.021 -10.016 -10.015  -1.022  -1.007
 -1.003  -0.996  -0.972  -0.963  -0.945  -0.933  -0.929  -0.922
 -0.766  -0.758  -0.726  -0.720  -0.712  -0.701  -0.687  -0.667
 -0.644  -0.610  -0.594  -0.575  -0.548  -0.540  -0.538  -0.531
 -0.515  -0.503  -0.484  -0.471  -0.465  -0.460  -0.450  -0.437
 -0.435  -0.427  -0.422  -0.416  -0.411  -0.405  -0.398  -0.390
 -0.388  -0.379  -0.368  -0.364  -0.360  -0.357  -0.350  -0.343
 -0.339  -0.337  -0.333  -0.329  -0.324  -0.322  -0.317  -0.314
 -0.307  -0.303  -0.302  -0.299  -0.290  -0.281  -0.281  -0.278
 -0.268  -0.263  -0.245  -0.238  -0.236  -0.234  -0.228  -0.188
 -0.178  -0.165  -0.162  -0.157  -0.153  -0.150  -0.145  -0.140
 -0.136

          Ground-State Mulliken Net Atomic Charges

     Atom                 Charge (a.u.)
  ----------------------------------------
      1 O                    -0.206155
      2 C                     0.216147
      3 C                    -0.078204
      4 C                    -0.080641
      5 C                     0.221857
      6 O                    -0.169419
      7 C                    -0.053591
      8 C                    -0.058542
      9 O                    -0.177653
     10 C                     0.211039
     11 C                    -0.077952
     12 C                    -0.077460
     13 C                     0.203179
     14 O                    -0.219265
     15 O                    -0.167274
     16 O                    -0.167074
     17 O                    -0.206883
     18 C                    -0.143770
     19 C                     0.024940
     20 C                    -0.143427
     21 C                    -0.144663
     22 C                     0.026368
     23 O                    -0.183858
     24 H                     0.084341
     25 H                     0.083959
     26 H                     0.087797
     27 H                     0.076984
     28 H                     0.072177
     29 H                     0.076775
     30 H                     0.072730
     31 H                     0.082391
     32 O                    -0.225650
     33 C                    -0.128483
     34 C                     0.025159
     35 C                    -0.143725
     36 C                    -0.144093
     37 C                     0.025908
     38 O                    -0.188189
     39 H                     0.088175
     40 H                     0.085037
     41 H                     0.096376
     42 H                     0.084986
     43 H                     0.078754
     44 H                     0.074268
     45 H                     0.078396
     46 H                     0.073844
     47 H                     0.090525
     48 H                     0.091914
     49 H                     0.092639
     50 H                     0.085429
     51 H                     0.107686
     52 H                     0.082727
     53 H                     0.111343
     54 H                     0.083561
     55 H                     0.101942
     56 H                     0.086618
  ----------------------------------------
  Sum of atomic charges =    -0.000000

                    Cartesian Multipole Moments
 -----------------------------------------------------------------
    Charge (ESU x 10^10)
                -0.0000
    Dipole Moment (Debye)
         X       1.6457      Y      -0.5099      Z       0.4351
       Tot       1.7770
    Quadrupole Moments (Debye-Ang)
        XX    -135.0806     XY      -1.5541     YY    -157.7419
        XZ      -9.9489     YZ      -3.1492     ZZ    -159.5274

 Total job time:  54.03s(wall), 2570.61s(cpu)
        *  Thank you very much for using Q-Chem.  Have a nice day.  *
