 Q-Chem 5.0, Q-Chem, Inc., Pleasanton, CA (2017)
 Q-Chem 5.0.1 for Intel X86 EM64T Linux

User input:
--------------------------------------------------------------
$molecule
0  1
O 1.9291823502 -1.2404874306 0.0248399523
C 3.0972239483 -1.5063279961 -0.342139914
C 4.2328548392 -0.4811661455 -0.6716778734
C 3.6968400014 1.009471006 -0.7440297323
C 2.1308677416 1.1118071688 -0.6217253385
O 1.777690657 1.4742313963 0.7169901574
C 0.3062011041 1.587621438 0.8446764376
C -0.2077425148 0.3837138953 1.7106359794
O -1.6834305515 0.4671957427 1.8105862456
C -2.3017177352 -0.6552024553 1.1615700096
C -3.8420074725 -0.3739277825 1.1490287578
C -4.2322446227 0.8269191754 0.182427628
C -3.0298186944 1.3592289537 -0.6801169632
O -2.5072370202 2.4953509157 -0.6309469913
O 3.6054943741 -2.8300171881 -0.4890262754
O -2.6220760099 0.3181569211 -1.5672021221
O -1.6888642019 -1.6458462981 0.71121951
C -1.5651718967 0.785308172 -2.4985345171
C -4.7028126666 -1.5575184677 0.5437360652
C -6.1946705797 -1.3590272558 1.0211416766
C -6.6252126281 -0.1225795588 0.1466377937
C -5.3243097083 0.1101589936 -0.7236228416
O -4.7723146993 -1.2516046033 -0.9034916633
H -4.1508198964 -0.1417971658 2.1846414985
H -4.6481566657 1.67957142 0.746892936
H -4.2719169524 -2.5644096052 0.7059759696
H -6.7960422019 -2.2503866706 0.7808143947
H -6.268587612 -1.164340816 2.1031208875
H -7.4851467438 -0.3616127156 -0.4990561018
H -6.8755817383 0.7609968854 0.7553551921
H -5.4938688095 0.5917551119 -1.7060340309
O 1.3271943264 1.0321671619 -1.5811110479
C 2.5562677889 -3.8176446481 -0.1366120991
C 5.2574466617 -0.3724778629 0.5398097312
C 6.5321756726 0.4210563025 0.0499451793
C 5.9791086261 1.8943664007 0.0173169607
C 4.4820841753 1.6680132704 0.4677752291
O 4.5843191492 0.5712378219 1.459568381
H 4.737877586 -0.7929551251 -1.603366216
H 3.9780453876 1.4692164194 -1.7081025393
H 1.6538539175 -3.6964403584 -0.7697046885
H 5.464987508 -1.3352635178 1.0462822795
H 7.3546203593 0.3123334954 0.7746039072
H 6.8814212113 0.0754488327 -0.9363365439
H 6.5042655714 2.538116545 0.7407205305
H 6.0487875366 2.3545702447 -0.9812020499
H 3.9802818281 2.5469697797 0.9151303602
H 2.2550599951 -3.7266749635 0.9269557689
H 3.0050439618 -4.8125659602 -0.311565436
H -1.5572722702 0.0542050117 -3.3276682067
H -0.5551741624 0.8113360499 -2.0251425553
H -1.7994917131 1.7935629054 -2.8939270823
H 0.0895414578 -0.5759918321 1.2327239522
H 0.216644114 0.4392777913 2.7342991494
H -0.1732748511 1.5861610775 -0.1540222482
H 0.0869453596 2.5495676733 1.3524315066
$end

$rem
JOBTYPE                   OPT
METHOD                    B3LYP
DFT_D                     d3_op
BASIS                     STO-3G
GEOM_OPT_MAX_CYCLES       100
GEOM_OPT_TOL_GRADIENT     300
GEOM_OPT_TOL_DISPLACEMENT 1200
GEOM_OPT_TOL_ENERGY       100
SYMMETRY                  False
THRESH                    12
SCF_CONVERGENCE           8
MAX_SUB_FILE_NUM          128
MEM_STATIC                400
MEM_TOTAL                 4000
$end
--------------------------------------------------------------

   16   -1510.2919096730      6.18E-09 Convergence criterion met
 Total energy in the final basis set = -1510.29190967
   14   -1510.2921539515      2.40E-09 Convergence criterion met
 Total energy in the final basis set = -1510.29215395
   14   -1510.2779265860      3.62E-09 Convergence criterion met
 Total energy in the final basis set = -1510.27792659
   14   -1510.2918209282      3.63E-09 Convergence criterion met
 Total energy in the final basis set = -1510.29182093
   14   -1510.2896237739      3.07E-09 Convergence criterion met
 Total energy in the final basis set = -1510.28962377
   14   -1510.2922814079      5.87E-09 Convergence criterion met
 Total energy in the final basis set = -1510.29228141
   13   -1510.2929417452      5.81E-09 Convergence criterion met
 Total energy in the final basis set = -1510.29294175
   14   -1510.2937321373      2.93E-09 Convergence criterion met
   12   -1510.3032174034      4.04E-09 Convergence criterion met
 Total energy in the final basis set = -1510.30321740
   11   -1510.3032374216      4.07E-09 Convergence criterion met
 Total energy in the final basis set = -1510.30323742
   11   -1510.3032581073      5.54E-09 Convergence criterion met
 Total energy in the final basis set = -1510.30325811
   11   -1510.3032701681      8.98E-09 Convergence criterion met
 Total energy in the final basis set = -1510.30327017
   11   -1510.3032818346      4.68E-09 Convergence criterion met
 Total energy in the final basis set = -1510.30328183
    9   -1510.3032841189      5.59E-09 Convergence criterion met
 Total energy in the final basis set = -1510.30328412

             Standard Nuclear Orientation (Angstroms)
    I     Atom           X                Y                Z
 ----------------------------------------------------------------
    1      O       0.5072099950     0.0222695580    -0.0792621462
    2      C       1.3913325014    -0.7298984682    -0.5540602516
    3      C       2.8563401966    -0.3137544108    -0.9246109131
    4      C       3.1768393467     1.1885897464    -0.5358382122
    5      C       1.9257856973     1.9909290907    -0.0214812937
    6      O       1.8215634715     1.8914956715     1.3998509311
    7      C       0.5403898211     2.4837995377     1.8609201549
    8      C      -0.2078445558     1.4326895117     2.7617536546
    9      O      -1.5496332316     1.1637964804     2.1834953337
   10      C      -1.6909794388    -0.2044670818     1.8195482697
   11      C      -3.0846618952    -0.3772868921     1.1180240539
   12      C      -3.3131787408     0.4292535075    -0.2370280110
   13      C      -2.0674522964     1.2196471142    -0.8002098185
   14      O      -1.6246779446     2.3045920954    -0.3618306483
   15      O       1.2269096584    -2.1126167739    -0.8117281941
   16      O      -1.5665339009     0.5382064560    -1.9483435450
   17      O      -0.8623392961    -1.1024549114     2.1018982968
   18      C      -0.5096817553     1.3261572612    -2.6294994271
   19      C      -3.3430596949    -1.8662410996     0.6341916801
   20      C      -4.9000988307    -2.0801486816     0.5113399534
   21      C      -5.2173907110    -1.2289753953    -0.7740962079
   22      C      -3.7720086545    -0.7461963678    -1.1945335886
   23      O      -2.8989275862    -1.8699357639    -0.7803001836
   24      H      -3.8479870512    -0.0687256212     1.8566072044
   25      H      -4.1183381952     1.1723904281    -0.0914333662
   26      H      -2.7938749375    -2.6310818806     1.2165630566
   27      H      -5.1286889258    -3.1464518849     0.3544998431
   28      H      -5.4440227786    -1.7293824152     1.4026889387
   29      H      -5.6633242456    -1.8475106886    -1.5689458570
   30      H      -5.8909787673    -0.3823092414    -0.5664534569
   31      H      -3.6370243855    -0.5312452379    -2.2712258573
   32      O       1.1923513646     2.7236136095    -0.7305721614
   33      C      -0.0990862674    -2.5769740267    -0.3269803467
   34      C       3.9035448607    -1.0903647039    -0.0172480429
   35      C       5.3488406151    -0.8755487763    -0.6161397344
   36      C       5.6467994299     0.6033179007    -0.1704508876
   37      C       4.3006115074     0.9763486162     0.5664059060
   38      O       3.9129138846    -0.2908613326     1.2291871181
   39      H       3.0251536015    -0.5091112124    -1.9991930898
   40      H       3.5694153789     1.7351221778    -1.4117047496
   41      H      -0.9487048446    -2.1667018561    -0.9202829094
   42      H       3.6222984366    -2.1410676539     0.1905540263
   43      H       6.0617942318    -1.5860670838    -0.1686445577
   44      H       5.3647612865    -1.0013147044    -1.7105422681
   45      H       6.4930404676     0.6490330051     0.5335016651
   46      H       5.8588601530     1.2715079515    -1.0204723434
   47      H       4.3759763355     1.7935351098     1.3089542591
   48      H      -0.2644181532    -2.2667359326     0.7299942541
   49      H      -0.0781746797    -3.6778695660    -0.4143273745
   50      H       0.0977804057     0.5956709002    -3.1950214305
   51      H       0.1313389191     1.8918641815    -1.9087348386
   52      H      -0.9740436819     2.0374520695    -3.3428283581
   53      H       0.3623180902     0.4784528274     2.7990401219
   54      H      -0.3570408876     1.8194355653     3.7909504489
   55      H      -0.0960493594     2.7326179738     0.9770714212
   56      H       0.7620188172     3.4080583125     2.4342521179
 ----------------------------------------------------------------

   10   -1510.3032848551      6.80E-09 Convergence criterion met
 Total energy in the final basis set = -1510.30328486
 Final energy is   -1510.30328485512
 **  OPTIMIZATION CONVERGED  **

                    Orbital Energies (a.u.)
 --------------------------------------------------------------

 Alpha MOs
 -- Occupied --
-18.934 -18.930 -18.922 -18.921 -18.893 -18.884 -18.879 -18.872
-18.865 -18.862 -10.104 -10.097 -10.095 -10.091 -10.061 -10.060
-10.059 -10.057 -10.056 -10.051 -10.039 -10.035 -10.035 -10.033
-10.032 -10.026 -10.022 -10.020 -10.018 -10.017  -1.014  -1.007
 -0.998  -0.997  -0.973  -0.967  -0.938  -0.931  -0.925  -0.923
 -0.763  -0.759  -0.724  -0.720  -0.709  -0.705  -0.689  -0.647
 -0.643  -0.608  -0.593  -0.573  -0.544  -0.541  -0.537  -0.533
 -0.511  -0.507  -0.478  -0.469  -0.466  -0.453  -0.443  -0.437
 -0.432  -0.431  -0.428  -0.411  -0.406  -0.399  -0.396  -0.395
 -0.388  -0.371  -0.365  -0.364  -0.358  -0.354  -0.345  -0.341
 -0.338  -0.333  -0.330  -0.328  -0.325  -0.320  -0.317  -0.310
 -0.308  -0.304  -0.300  -0.294  -0.286  -0.282  -0.278  -0.273
 -0.268  -0.252  -0.245  -0.242  -0.235  -0.232  -0.226  -0.184
 -0.171  -0.163  -0.157  -0.156  -0.148  -0.148  -0.144  -0.140
 -0.138

          Ground-State Mulliken Net Atomic Charges

     Atom                 Charge (a.u.)
  ----------------------------------------
      1 O                    -0.217677
      2 C                     0.217160
      3 C                    -0.078480
      4 C                    -0.082329
      5 C                     0.223501
      6 O                    -0.172052
      7 C                    -0.059328
      8 C                    -0.053210
      9 O                    -0.165920
     10 C                     0.222692
     11 C                    -0.077980
     12 C                    -0.076876
     13 C                     0.215783
     14 O                    -0.210562
     15 O                    -0.171236
     16 O                    -0.171825
     17 O                    -0.215844
     18 C                    -0.147199
     19 C                     0.023876
     20 C                    -0.143102
     21 C                    -0.144954
     22 C                     0.025835
     23 O                    -0.189149
     24 H                     0.085799
     25 H                     0.084544
     26 H                     0.088551
     27 H                     0.078222
     28 H                     0.073742
     29 H                     0.078041
     30 H                     0.073744
     31 H                     0.092202
     32 O                    -0.224400
     33 C                    -0.155632
     34 C                     0.024705
     35 C                    -0.144222
     36 C                    -0.143968
     37 C                     0.025886
     38 O                    -0.188735
     39 H                     0.085022
     40 H                     0.082493
     41 H                     0.106132
     42 H                     0.088666
     43 H                     0.077799
     44 H                     0.073317
     45 H                     0.077380
     46 H                     0.072918
     47 H                     0.087121
     48 H                     0.103481
     49 H                     0.078170
     50 H                     0.077001
     51 H                     0.120904
     52 H                     0.074703
     53 H                     0.108778
     54 H                     0.083110
     55 H                     0.124034
     56 H                     0.079372
  ----------------------------------------
  Sum of atomic charges =     0.000000

                    Cartesian Multipole Moments
 -----------------------------------------------------------------
    Charge (ESU x 10^10)
                 0.0000
    Dipole Moment (Debye)
         X      -0.6868      Y      -0.5018      Z      -0.4295
       Tot       0.9529
    Quadrupole Moments (Debye-Ang)
        XX    -138.1711     XY       4.5443     YY    -164.3854
        XZ      -6.6583     YZ       1.7674     ZZ    -156.0480

 Total job time:  182.07s(wall), 8686.57s(cpu)
        *  Thank you very much for using Q-Chem.  Have a nice day.  *
