 Q-Chem 5.0, Q-Chem, Inc., Pleasanton, CA (2017)
 Q-Chem 5.0.1 for Intel X86 EM64T Linux

User input:
--------------------------------------------------------------
$molecule
0  1
O -3.94934 -3.66094 2.70899
C -3.26408 -4.56952 2.26188
C -3.36658 -6.02376 2.66595
C -4.48049 -6.40101 3.65627
C -5.47813 -5.31551 3.99467
O -6.60284 -5.4656 3.23446
C -7.60304 -4.47857 3.50765
C -7.74952 -3.53542 2.31805
O -8.73626 -2.5326 2.60716
C -8.28632 -1.25328 2.60213
C -9.23805 -0.29221 3.27385
C -9.42258 -0.51218 4.78244
C -8.39013 -1.39641 5.45244
O -8.57027 -2.55211 5.80805
O -2.30704 -4.27377 1.34343
O -7.14921 -0.85863 5.60452
O -7.22937 -0.89153 2.09908
C -6.13219 -1.42062 6.3432
C -8.80917 1.19447 3.27298
C -10.04794 2.08118 3.40192
C -10.44789 1.8049 4.83899
C -9.26976 0.93225 5.28834
O -8.18645 1.39803 4.51813
H -10.19757 -0.36948 2.71337
H -10.41483 -0.96933 4.99301
H -8.22264 1.48883 2.37586
H -9.69464 3.13508 3.32891
H -10.84655 1.91458 2.64745
H -10.46629 2.77111 5.39012
H -11.41426 1.27093 4.9686
H -9.14132 0.9752 6.39243
O -5.25279 -4.43223 4.81038
C -2.0629 -3.00676 0.85653
C -3.70473 -6.93771 1.47189
C -3.20723 -8.35418 1.74982
C -4.18959 -8.79073 2.81408
C -5.1159 -7.56889 2.85265
O -5.09935 -7.0887 1.53145
H -2.36285 -6.29205 3.06594
H -4.10515 -6.79827 4.62524
H -1.77052 -2.32757 1.68574
H -3.29493 -6.57403 0.50429
H -3.39105 -8.95393 0.82951
H -2.13505 -8.43329 2.03107
H -4.73848 -9.68299 2.43851
H -3.74746 -9.0086 3.81021
H -6.10843 -7.87039 3.25462
H -2.96842 -2.61136 0.34839
H -1.23253 -3.05285 0.12248
H -5.23758 -0.76736 6.2869
H -5.87278 -2.41444 5.94478
H -6.44201 -1.51542 7.40566
H -6.73676 -3.13097 2.09763
H -8.07274 -4.1144 1.4272
H -7.37496 -3.85409 4.3795
H -8.56857 -4.98571 3.7167
$end

$opt
CONSTRAINT
tors           1           2           3           4      +3.927
tors           3           4           5           6     +97.755
tors           4           5           6           7    +179.445
tors           5           6           7           8    +111.029
tors           6           7           8           9    -178.935
tors           7           8           9          10    +118.720
tors           8           9          10          11    -164.005
tors           9          10          11          12     +65.761
tors          11          12          13          14    -104.701
ENDCONSTRAINT
$end

$rem
JOBTYPE                   OPT
METHOD                    B3LYP
DFT_D                     d3_op
BASIS                     STO-3G
GEOM_OPT_MAX_CYCLES       100
GEOM_OPT_TOL_GRADIENT     300
GEOM_OPT_TOL_DISPLACEMENT 1200
GEOM_OPT_TOL_ENERGY       100
SYMMETRY                  False
THRESH                    12
SCF_CONVERGENCE           8
MAX_SUB_FILE_NUM          128
MEM_STATIC                400
MEM_TOTAL                 4000
$end
--------------------------------------------------------------

   15   -1510.1580879602      8.55E-09 Convergence criterion met
 Total energy in the final basis set = -1510.15808796
   14   -1510.2280598519      2.18E-09 Convergence criterion met
 Total energy in the final basis set = -1510.22805985
   15   -1510.2629345218      2.11E-09 Convergence criterion met
 Total energy in the final basis set = -1510.26293452
   14   -1510.2764255329      7.03E-09 Convergence criterion met
 Total energy in the final basis set = -1510.27642553
   13   -1510.2837757322      6.80E-09 Convergence criterion met
 Total energy in the final basis set = -1510.28377573
    2   -1510.2837757322      5.12E-09 Convergence criterion met
 Total energy in the final basis set = -1510.28377573
   13   -1510.2874753692      6.07E-09 Convergence criterion met
 Total energy in the final basis set = -1510.28747537
   13   -1510.2887587967      2.03E-09 Convergence criterion met
   12   -1510.2905390062      2.93E-09 Convergence criterion met
 Total energy in the final basis set = -1510.29053901
   10   -1510.2906063656      9.60E-09 Convergence criterion met
 Total energy in the final basis set = -1510.29060637
   11   -1510.2906514316      5.27E-09 Convergence criterion met
 Total energy in the final basis set = -1510.29065143
    9   -1510.2906721203      8.07E-09 Convergence criterion met
 Total energy in the final basis set = -1510.29067212
   10   -1510.2906831093      7.68E-09 Convergence criterion met
 Total energy in the final basis set = -1510.29068311
    9   -1510.2906808230      7.46E-09 Convergence criterion met
 Total energy in the final basis set = -1510.29068082

             Standard Nuclear Orientation (Angstroms)
    I     Atom           X                Y                Z
 ----------------------------------------------------------------
    1      O       1.7996347539    -1.2191885648    -0.0915886718
    2      C       3.0016293520    -1.5118286118    -0.2914355355
    3      C       4.1511660028    -0.5294861528    -0.7036137660
    4      C       3.6570733457     0.9755082856    -0.7597049754
    5      C       2.0957606125     1.1275988954    -0.6303769018
    6      O       1.7614546343     1.4427864445     0.7244419524
    7      C       0.2962357655     1.6049092272     0.8721223687
    8      C      -0.2281031017     0.3990902261     1.7288490432
    9      O      -1.6991271783     0.5069123865     1.8809275808
   10      C      -2.3544545369    -0.6322771612     1.3008619349
   11      C      -3.8693059033    -0.2770212943     1.1221828122
   12      C      -4.1451854460     0.8818127765     0.0678906512
   13      C      -2.8815261213     1.2954917249    -0.7716993013
   14      O      -2.1890540711     2.3294375505    -0.6276563780
   15      O       3.5315574147    -2.8280278134    -0.1610122584
   16      O      -2.6179332580     0.2795152052    -1.7352440680
   17      O      -1.7759552891    -1.6906276235     0.9730102840
   18      C      -1.4873524563     0.6604743351    -2.6184178520
   19      C      -4.7441700146    -1.4585516209     0.5297785499
   20      C      -6.2462337516    -1.1816663100     0.9295903040
   21      C      -6.5813875751     0.0364640790    -0.0109614258
   22      C      -5.2392390863     0.1710526935    -0.8381181726
   23      O      -4.7412345713    -1.2201943324    -0.9314656144
   24      H      -4.2527143462     0.0340860553     2.1117347927
   25      H      -4.5299207803     1.7878652520     0.5677743005
   26      H      -4.3574720696    -2.4707327057     0.7579502900
   27      H      -6.8737807375    -2.0561447807     0.6942508483
   28      H      -6.3609479923    -0.9414109932     1.9987520927
   29      H      -7.4265875315    -0.1885179995    -0.6806085367
   30      H      -6.8124170927     0.9552817224     0.5517166634
   31      H      -5.3514290617     0.6099505641    -1.8481983317
   32      O       1.2916690055     1.1337320383    -1.5923295148
   33      C       2.4607100290    -3.7659463561     0.2568060513
   34      C       5.2407388852    -0.4418491776     0.4491583280
   35      C       6.4968478593     0.3477767365    -0.0926959555
   36      C       5.9651299017     1.8288932995    -0.0598975730
   37      C       4.4835522282     1.6070503272     0.4399792763
   38      O       4.6160164969     0.4950884749     1.4106328658
   39      H       4.5885161594    -0.8662342134    -1.6611158767
   40      H       3.9428879245     1.4300458369    -1.7248294685
   41      H       1.6471872458    -3.8149609435    -0.4953707083
   42      H       5.4613848810    -1.4135059491     0.9324420938
   43      H       7.3578061021     0.2101308274     0.5803217812
   44      H       6.7837742263     0.0212465381    -1.1051882466
   45      H       6.5262405286     2.4420803185     0.6632004195
   46      H       6.0042184418     2.3196483532    -1.0454160945
   47      H       4.0035818783     2.4820520784     0.9182307004
   48      H       2.0218528374    -3.4713855776     1.2316838592
   49      H       2.9437172078    -4.7559277181     0.3490569298
   50      H      -1.4075461755    -0.1583061835    -3.3564265686
   51      H      -0.5184331660     0.7679612864    -2.0753783540
   52      H      -1.7023186888     1.6101484029    -3.1487883626
   53      H       0.0347276648    -0.5611633039     1.2320542378
   54      H       0.2345153117     0.4248175756     2.7376908361
   55      H      -0.2139469540     1.6542056332    -0.1122745532
   56      H       0.1202791536     2.5592920747     1.4104007986
 ----------------------------------------------------------------

    9   -1510.2906805304      5.17E-09 Convergence criterion met
 Total energy in the final basis set = -1510.29068053
 Final energy is   -1510.29068053045
 **  OPTIMIZATION CONVERGED  **

                    Orbital Energies (a.u.)
 --------------------------------------------------------------

 Alpha MOs
 -- Occupied --
-18.947 -18.925 -18.923 -18.922 -18.891 -18.889 -18.881 -18.873
-18.865 -18.863 -10.110 -10.099 -10.094 -10.089 -10.069 -10.063
-10.059 -10.054 -10.053 -10.053 -10.052 -10.043 -10.036 -10.035
-10.033 -10.031 -10.022 -10.021 -10.016 -10.015  -1.023  -1.006
 -1.002  -0.998  -0.972  -0.963  -0.946  -0.932  -0.927  -0.923
 -0.765  -0.758  -0.726  -0.719  -0.711  -0.701  -0.686  -0.667
 -0.644  -0.609  -0.594  -0.573  -0.547  -0.539  -0.538  -0.531
 -0.515  -0.504  -0.483  -0.471  -0.466  -0.460  -0.450  -0.436
 -0.434  -0.427  -0.422  -0.416  -0.411  -0.405  -0.397  -0.390
 -0.388  -0.381  -0.369  -0.362  -0.359  -0.357  -0.351  -0.342
 -0.340  -0.335  -0.333  -0.328  -0.324  -0.319  -0.318  -0.315
 -0.307  -0.303  -0.301  -0.300  -0.288  -0.281  -0.281  -0.275
 -0.270  -0.263  -0.247  -0.238  -0.236  -0.230  -0.228  -0.189
 -0.177  -0.165  -0.162  -0.157  -0.153  -0.150  -0.144  -0.140
 -0.136

          Ground-State Mulliken Net Atomic Charges

     Atom                 Charge (a.u.)
  ----------------------------------------
      1 O                    -0.205494
      2 C                     0.217513
      3 C                    -0.077563
      4 C                    -0.081433
      5 C                     0.222746
      6 O                    -0.171708
      7 C                    -0.056106
      8 C                    -0.057989
      9 O                    -0.177034
     10 C                     0.208934
     11 C                    -0.078127
     12 C                    -0.077212
     13 C                     0.204532
     14 O                    -0.218929
     15 O                    -0.167079
     16 O                    -0.165343
     17 O                    -0.207865
     18 C                    -0.143618
     19 C                     0.024439
     20 C                    -0.143155
     21 C                    -0.145038
     22 C                     0.026661
     23 O                    -0.184079
     24 H                     0.083928
     25 H                     0.084483
     26 H                     0.088287
     27 H                     0.076978
     28 H                     0.072077
     29 H                     0.076839
     30 H                     0.072469
     31 H                     0.083265
     32 O                    -0.226257
     33 C                    -0.128158
     34 C                     0.024496
     35 C                    -0.144212
     36 C                    -0.143712
     37 C                     0.025662
     38 O                    -0.189437
     39 H                     0.088107
     40 H                     0.084533
     41 H                     0.095006
     42 H                     0.086903
     43 H                     0.078660
     44 H                     0.073948
     45 H                     0.078219
     46 H                     0.073809
     47 H                     0.090285
     48 H                     0.093930
     49 H                     0.092947
     50 H                     0.085118
     51 H                     0.111927
     52 H                     0.079232
     53 H                     0.108443
     54 H                     0.082330
     55 H                     0.107832
     56 H                     0.085010
  ----------------------------------------
  Sum of atomic charges =    -0.000000

                    Cartesian Multipole Moments
 -----------------------------------------------------------------
    Charge (ESU x 10^10)
                 0.0000
    Dipole Moment (Debye)
         X       1.4417      Y      -0.3910      Z       0.2640
       Tot       1.5169
    Quadrupole Moments (Debye-Ang)
        XX    -135.4432     XY      -3.3807     YY    -157.6278
        XZ      -9.8343     YZ      -2.8949     ZZ    -159.5157

 Total job time:  55.06s(wall), 2620.55s(cpu)
        *  Thank you very much for using Q-Chem.  Have a nice day.  *
