 Q-Chem 5.0, Q-Chem, Inc., Pleasanton, CA (2017)
 Q-Chem 5.0.1 for Intel X86 EM64T Linux

User input:
--------------------------------------------------------------
$molecule
0  1
O 1.7996347539 -1.2191885648 -0.0915886718
C 3.001629352 -1.5118286118 -0.2914355355
C 4.1511660028 -0.5294861528 -0.703613766
C 3.6570733457 0.9755082856 -0.7597049754
C 2.0957606125 1.1275988954 -0.6303769018
O 1.7614546343 1.4427864445 0.7244419524
C 0.2962357655 1.6049092272 0.8721223687
C -0.2281031017 0.3990902261 1.7288490432
O -1.6991271783 0.5069123865 1.8809275808
C -2.3544545369 -0.6322771612 1.3008619349
C -3.8693059033 -0.2770212943 1.1221828122
C -4.145185446 0.8818127765 0.0678906512
C -2.8815261213 1.2954917249 -0.7716993013
O -2.1890540711 2.3294375505 -0.627656378
O 3.5315574147 -2.8280278134 -0.1610122584
O -2.617933258 0.2795152052 -1.735244068
O -1.7759552891 -1.6906276235 0.973010284
C -1.4873524563 0.6604743351 -2.618417852
C -4.7441700146 -1.4585516209 0.5297785499
C -6.2462337516 -1.18166631 0.929590304
C -6.5813875751 0.036464079 -0.0109614258
C -5.2392390863 0.1710526935 -0.8381181726
O -4.7412345713 -1.2201943324 -0.9314656144
H -4.2527143462 0.0340860553 2.1117347927
H -4.5299207803 1.787865252 0.5677743005
H -4.3574720696 -2.4707327057 0.75795029
H -6.8737807375 -2.0561447807 0.6942508483
H -6.3609479923 -0.9414109932 1.9987520927
H -7.4265875315 -0.1885179995 -0.6806085367
H -6.8124170927 0.9552817224 0.5517166634
H -5.3514290617 0.6099505641 -1.8481983317
O 1.2916690055 1.1337320383 -1.5923295148
C 2.460710029 -3.7659463561 0.2568060513
C 5.2407388852 -0.4418491776 0.449158328
C 6.4968478593 0.3477767365 -0.0926959555
C 5.9651299017 1.8288932995 -0.059897573
C 4.4835522282 1.6070503272 0.4399792763
O 4.6160164969 0.4950884749 1.4106328658
H 4.5885161594 -0.8662342134 -1.6611158767
H 3.9428879245 1.4300458369 -1.7248294685
H 1.6471872458 -3.8149609435 -0.4953707083
H 5.461384881 -1.4135059491 0.9324420938
H 7.3578061021 0.2101308274 0.5803217812
H 6.7837742263 0.0212465381 -1.1051882466
H 6.5262405286 2.4420803185 0.6632004195
H 6.0042184418 2.3196483532 -1.0454160945
H 4.0035818783 2.4820520784 0.9182307004
H 2.0218528374 -3.4713855776 1.2316838592
H 2.9437172078 -4.7559277181 0.3490569298
H -1.4075461755 -0.1583061835 -3.3564265686
H -0.518433166 0.7679612864 -2.075378354
H -1.7023186888 1.6101484029 -3.1487883626
H 0.0347276648 -0.5611633039 1.2320542378
H 0.2345153117 0.4248175756 2.7376908361
H -0.213946954 1.6542056332 -0.1122745532
H 0.1202791536 2.5592920747 1.4104007986
$end

$rem
JOBTYPE                   OPT
METHOD                    B3LYP
DFT_D                     d3_op
BASIS                     STO-3G
GEOM_OPT_MAX_CYCLES       100
GEOM_OPT_TOL_GRADIENT     300
GEOM_OPT_TOL_DISPLACEMENT 1200
GEOM_OPT_TOL_ENERGY       100
SYMMETRY                  False
THRESH                    12
SCF_CONVERGENCE           8
MAX_SUB_FILE_NUM          128
MEM_STATIC                400
MEM_TOTAL                 4000
$end
--------------------------------------------------------------

   16   -1510.2906855982      5.97E-09 Convergence criterion met
 Total energy in the final basis set = -1510.29068560
   14   -1510.2890237080      2.04E-09 Convergence criterion met
 Total energy in the final basis set = -1510.28902371
   14   -1510.2921528777      4.21E-09 Convergence criterion met
 Total energy in the final basis set = -1510.29215288
   14   -1510.2886400922      6.21E-09 Convergence criterion met
 Total energy in the final basis set = -1510.28864009
   14   -1510.2876544795      8.05E-09 Convergence criterion met
 Total energy in the final basis set = -1510.28765448
   15   -1510.2858247419      7.35E-09 Convergence criterion met
 Total energy in the final basis set = -1510.28582474
   14   -1510.2878866208      2.54E-09 Convergence criterion met
 Total energy in the final basis set = -1510.28788662
   14   -1510.2904323010      2.21E-09 Convergence criterion met
   12   -1510.3034732338      4.69E-09 Convergence criterion met
 Total energy in the final basis set = -1510.30347323
   11   -1510.3035006048      6.42E-09 Convergence criterion met
 Total energy in the final basis set = -1510.30350060
   12   -1510.3034887542      4.31E-09 Convergence criterion met
 Total energy in the final basis set = -1510.30348875
   11   -1510.3035147748      3.38E-09 Convergence criterion met
 Total energy in the final basis set = -1510.30351477
   10   -1510.3035126023      7.59E-09 Convergence criterion met
 Total energy in the final basis set = -1510.30351260
    9   -1510.3035148101      5.86E-09 Convergence criterion met
 Total energy in the final basis set = -1510.30351481

             Standard Nuclear Orientation (Angstroms)
    I     Atom           X                Y                Z
 ----------------------------------------------------------------
    1      O       0.6762211062     0.0771550399    -0.1084839344
    2      C       1.5251351865    -0.6080825812    -0.7292588976
    3      C       3.0208437555    -0.2120359122    -0.9410295457
    4      C       3.3008821056     1.2807343498    -0.4796569903
    5      C       1.9975892790     2.0235251059     0.0125522849
    6      O       1.9076240500     1.9367411882     1.4377553585
    7      C       0.5496858492     2.3168311880     1.8990283951
    8      C      -0.0446945108     1.1074967943     2.7177329321
    9      O      -1.4650358532     0.9077152243     2.3310114631
   10      C      -1.6655966538    -0.3747828864     1.7411988224
   11      C      -3.1364996523    -0.4266888681     1.2046329857
   12      C      -3.3617646876     0.3359359800    -0.1766077904
   13      C      -2.1049009210     1.1037305582    -0.7371027068
   14      O      -1.6311698361     2.1618365941    -0.2670429341
   15      O       1.2379322196    -1.8552318899    -1.3333677731
   16      O      -1.6158379955     0.4547900485    -1.9148116801
   17      O      -0.8065900527    -1.2862861441     1.6960065521
   18      C      -0.5687176563     1.2761541730    -2.5782294617
   19      C      -3.5673660995    -1.8987051597     0.8056363754
   20      C      -5.1411863532    -1.9429908627     0.6819856373
   21      C      -5.3585573000    -1.1929693642    -0.6848781615
   22      C      -3.8693020400    -0.8573597338    -1.0909177022
   23      O      -3.1076470928    -2.0265239322    -0.5961951190
   24      H      -3.7960367510    -0.0023211077     1.9827774865
   25      H      -4.1526161655     1.0973938445    -0.0473573573
   26      H      -3.1118186515    -2.6890560971     1.4331610735
   27      H      -5.4933966572    -2.9855497327     0.6315884617
   28      H      -5.6393090658    -1.4417850783     1.5273399138
   29      H      -5.8219181499    -1.8514952959    -1.4366801481
   30      H      -5.9760492659    -0.2864327204    -0.5813252089
   31      H      -3.6903330523    -0.7080752051    -2.1726505670
   32      O       1.2266785710     2.7032527514    -0.7087503930
   33      C      -0.2028318117    -2.1719921815    -1.1138462993
   34      C       3.9798352246    -1.0173114140     0.0400739842
   35      C       5.4672962276    -0.8183787430    -0.4520657293
   36      C       5.7434614026     0.6595893761     0.0108259823
   37      C       4.3605220853     1.0379724399     0.6749224190
   38      O       3.9161705247    -0.2340242573     1.2936054211
   39      H       3.2950981670    -0.3816759715    -1.9975532647
   40      H       3.7257208499     1.8702599206    -1.3116479235
   41      H      -0.8489509031    -1.4092525651    -1.6023876381
   42      H       3.6732967659    -2.0668658441     0.2160746147
   43      H       6.1379297811    -1.5330843004     0.0508057773
   44      H       5.5630638873    -0.9495704458    -1.5416882920
   45      H       6.5525446402     0.7043609537     0.7572263938
   46      H       5.9997968150     1.3275972169    -0.8271752194
   47      H       4.4037121790     1.8415038060     1.4345830519
   48      H      -0.4462819520    -2.1709700714    -0.0272747322
   49      H      -0.3671648123    -3.1689726747    -1.5585599301
   50      H       0.0433546400     0.5714602389    -3.1704727499
   51      H       0.0709009698     1.8271206880    -1.8451239145
   52      H      -1.0486597145     2.0037090086    -3.2637553085
   53      H       0.5227686026     0.1801609786     2.4838077123
   54      H      -0.0130159548     1.2997614642     3.8099587774
   55      H      -0.1105166956     2.5261593416     1.0227767929
   56      H       0.6278717458     3.2256967000     2.5309040779
 ----------------------------------------------------------------

    9   -1510.3035150485      2.94E-09 Convergence criterion met
 Total energy in the final basis set = -1510.30351505
 Final energy is   -1510.30351504853
 **  OPTIMIZATION CONVERGED  **

                    Orbital Energies (a.u.)
 --------------------------------------------------------------

 Alpha MOs
 -- Occupied --
-18.933 -18.932 -18.931 -18.916 -18.887 -18.885 -18.878 -18.875
-18.873 -18.857 -10.101 -10.099 -10.098 -10.093 -10.059 -10.058
-10.058 -10.056 -10.056 -10.048 -10.040 -10.038 -10.037 -10.036
-10.031 -10.030 -10.020 -10.019 -10.018 -10.017  -1.014  -1.008
 -1.004  -0.994  -0.970  -0.967  -0.936  -0.932  -0.931  -0.922
 -0.763  -0.759  -0.724  -0.720  -0.708  -0.705  -0.686  -0.651
 -0.644  -0.608  -0.592  -0.572  -0.544  -0.542  -0.536  -0.534
 -0.511  -0.505  -0.477  -0.470  -0.465  -0.452  -0.446  -0.437
 -0.432  -0.431  -0.429  -0.412  -0.410  -0.404  -0.395  -0.393
 -0.385  -0.373  -0.364  -0.364  -0.358  -0.355  -0.349  -0.343
 -0.336  -0.333  -0.330  -0.327  -0.326  -0.320  -0.317  -0.309
 -0.309  -0.305  -0.298  -0.295  -0.287  -0.283  -0.278  -0.274
 -0.267  -0.251  -0.249  -0.242  -0.234  -0.232  -0.227  -0.183
 -0.176  -0.164  -0.157  -0.155  -0.149  -0.148  -0.143  -0.142
 -0.138

          Ground-State Mulliken Net Atomic Charges

     Atom                 Charge (a.u.)
  ----------------------------------------
      1 O                    -0.217799
      2 C                     0.214609
      3 C                    -0.079681
      4 C                    -0.081739
      5 C                     0.224064
      6 O                    -0.174898
      7 C                    -0.058104
      8 C                    -0.053468
      9 O                    -0.168604
     10 C                     0.217829
     11 C                    -0.078163
     12 C                    -0.078046
     13 C                     0.215959
     14 O                    -0.206332
     15 O                    -0.169954
     16 O                    -0.170996
     17 O                    -0.212261
     18 C                    -0.146031
     19 C                     0.024005
     20 C                    -0.144001
     21 C                    -0.144164
     22 C                     0.023372
     23 O                    -0.190732
     24 H                     0.086659
     25 H                     0.085460
     26 H                     0.086532
     27 H                     0.077906
     28 H                     0.073374
     29 H                     0.077631
     30 H                     0.073110
     31 H                     0.089929
     32 O                    -0.228656
     33 C                    -0.146921
     34 C                     0.025385
     35 C                    -0.143694
     36 C                    -0.144346
     37 C                     0.026033
     38 O                    -0.187827
     39 H                     0.085287
     40 H                     0.081781
     41 H                     0.101151
     42 H                     0.086313
     43 H                     0.077905
     44 H                     0.073452
     45 H                     0.077402
     46 H                     0.072896
     47 H                     0.088455
     48 H                     0.106381
     49 H                     0.082787
     50 H                     0.080097
     51 H                     0.122214
     52 H                     0.077943
     53 H                     0.109227
     54 H                     0.081746
     55 H                     0.120925
     56 H                     0.078600
  ----------------------------------------
  Sum of atomic charges =    -0.000000

                    Cartesian Multipole Moments
 -----------------------------------------------------------------
    Charge (ESU x 10^10)
                 0.0000
    Dipole Moment (Debye)
         X      -0.6021      Y      -0.3441      Z      -0.6814
       Tot       0.9723
    Quadrupole Moments (Debye-Ang)
        XX    -137.3526     XY       3.2392     YY    -165.7723
        XZ      -5.9426     YZ       0.3408     ZZ    -155.6970

 Total job time:  135.50s(wall), 6463.03s(cpu)
        *  Thank you very much for using Q-Chem.  Have a nice day.  *
