 Q-Chem 5.0, Q-Chem, Inc., Pleasanton, CA (2017)
 Q-Chem 5.0.1 for Intel X86 EM64T Linux

User input:
--------------------------------------------------------------
$molecule
0  1
O 1.7330096125 -1.0611982999 0.3113776398
C 2.8700017543 -1.5180032676 0.0484913125
C 4.0997379082 -0.7207151233 -0.5005641146
C 3.7133274379 0.7486709913 -0.9557482878
C 2.1655751929 1.0216994676 -0.8959821301
O 1.8484409212 1.7536417592 0.2904750152
C 0.3938778394 2.0338128997 0.340969743
C -0.2323237721 1.1507617755 1.4768899361
O -1.7008063374 1.3298945174 1.4093597549
C -2.377003304 0.0660562096 1.4454968234
C -3.8851794939 0.3741496492 1.1549905648
C -4.1051239674 0.7884794049 -0.3685296552
C -2.778550761 0.7430689484 -1.2145534677
O -2.1472708478 1.7136667474 -1.6906663766
O 3.2442336371 -2.8796557818 0.240625445
O -2.3769000141 -0.6203004727 -1.3321765593
O -1.8274129077 -1.0344028017 1.6584577009
C -1.1734432132 -0.7548241834 -2.188580461
C -4.8067148935 -0.9095695862 1.2572510215
C -6.3101355488 -0.4300903083 1.3219159337
C -6.5492131184 0.0145577378 -0.169476405
C -5.1474266886 -0.3210309372 -0.8190568527
O -4.7026674881 -1.5271660191 -0.0848687803
H -4.2175070803 1.1815162896 1.8320224941
H -4.5206332165 1.8083939745 -0.4486981039
H -4.4970714919 -1.6317055006 2.0374988978
H -6.9689228995 -1.2673443955 1.6026396081
H -6.4573768821 0.3908744087 2.0415729698
H -7.345766763 -0.5787727819 -0.6457732112
H -6.8030428078 1.0828651641 -0.2601430914
H -5.1680721757 -0.5170016299 -1.9084638334
O 1.3548931689 0.7679728046 -1.8192072657
C 2.0975607295 -3.6492365053 0.7827842759
C 5.1377524189 -0.4082792518 0.664996368
C 6.4798711382 0.1070395144 0.0108395963
C 6.0740256011 1.5700154364 -0.4034179484
C 4.5662564627 1.6128444213 0.0644591277
O 4.5668758121 0.798337236 1.3031789635
H 4.5681043695 -1.3036726445 -1.3137379949
H 4.0325461619 0.9198598662 -1.9992204751
H 1.2400510737 -3.6483529711 0.079434465
H 5.2537363959 -1.2266294806 1.4022282991
H 7.2940904633 0.1060129455 0.7529675817
H 6.7844348959 -0.5113541923 -0.8486719552
H 6.6672011345 2.3222186086 0.1403491788
H 6.1781192497 1.7511908013 -1.4850584711
H 4.155045887 2.6202481247 0.2651759227
H 1.7553551772 -3.2403269983 1.7551637449
H 2.4642462637 -4.6828160792 0.9209336511
H -0.8825783874 -1.8187310261 -2.1196519133
H -0.3211338367 -0.1107728767 -1.8669808392
H -1.4160480103 -0.5131582076 -3.2435471261
H 0.0391146651 0.0828894602 1.3221178475
H 0.1364491254 1.4765388776 2.4726644524
H -0.0877582598 1.8051793429 -0.6351820948
H 0.2684775869 3.1115307701 0.5719410671
$end

$rem
JOBTYPE                   OPT
METHOD                    B3LYP
DFT_D                     d3_op
BASIS                     STO-3G
GEOM_OPT_MAX_CYCLES       100
GEOM_OPT_TOL_GRADIENT     300
GEOM_OPT_TOL_DISPLACEMENT 1200
GEOM_OPT_TOL_ENERGY       100
SYMMETRY                  False
THRESH                    12
SCF_CONVERGENCE           8
MAX_SUB_FILE_NUM          128
MEM_STATIC                400
MEM_TOTAL                 4000
$end
--------------------------------------------------------------

   16   -1510.2936882834      5.88E-09 Convergence criterion met
 Total energy in the final basis set = -1510.29368828
   15   -1510.2708305049      3.63E-09 Convergence criterion met
 Total energy in the final basis set = -1510.27083050
   14   -1510.2920091786      4.33E-09 Convergence criterion met
 Total energy in the final basis set = -1510.29200918
   14   -1510.2925645397      2.95E-09 Convergence criterion met
 Total energy in the final basis set = -1510.29256454
   13   -1510.2931089076      4.84E-09 Convergence criterion met
 Total energy in the final basis set = -1510.29310891
   14   -1510.2934603386      2.47E-09 Convergence criterion met
 Total energy in the final basis set = -1510.29346034
   14   -1510.2934730285      5.25E-09 Convergence criterion met
 Total energy in the final basis set = -1510.29347303
   14   -1510.2931942513      3.42E-09 Convergence criterion met
   12   -1510.2980448899      2.32E-09 Convergence criterion met
 Total energy in the final basis set = -1510.29804489
   11   -1510.2980390749      6.74E-09 Convergence criterion met
 Total energy in the final basis set = -1510.29803907
   12   -1510.2980312809      1.68E-09 Convergence criterion met
 Total energy in the final basis set = -1510.29803128
   10   -1510.2980273820      9.76E-09 Convergence criterion met
 Total energy in the final basis set = -1510.29802738
   11   -1510.2980164872      6.24E-09 Convergence criterion met
 Total energy in the final basis set = -1510.29801649
   11   -1510.2980197670      3.14E-09 Convergence criterion met
 Total energy in the final basis set = -1510.29801977

             Standard Nuclear Orientation (Angstroms)
    I     Atom           X                Y                Z
 ----------------------------------------------------------------
    1      O      -1.1509006479     0.6490891955    -0.4607271129
    2      C      -2.2437303505     1.2427636964    -0.2903840584
    3      C      -3.6559900769     0.6693663198    -0.6563663392
    4      C      -3.6502066201    -0.9068540694    -0.8575779345
    5      C      -2.2497238824    -1.5821178501    -0.6170041000
    6      O      -2.0559659853    -1.7545245423     0.7913059752
    7      C      -0.6560853221    -2.1555771158     1.0859507811
    8      C       0.0591103915    -0.8836830349     1.6608267344
    9      O       1.5251365300    -0.9986590181     1.4728622913
   10      C       2.0913267501     0.2943830004     1.2339182976
   11      C       3.6344783278     0.0979707061     1.0390067573
   12      C       3.9999548707    -0.8488498870    -0.1804324753
   13      C       2.7617392058    -1.3318404062    -1.0155261756
   14      O       2.4837925172    -2.5048559202    -1.3478719295
   15      O      -2.3678215030     2.5405602968     0.2679075671
   16      O       2.0155101834    -0.1776102703    -1.4017298451
   17      O       1.4515501340     1.3694729753     1.2307363244
   18      C       0.9433187107    -0.5394866955    -2.3596172827
   19      C       4.3542985785     1.4436368350     0.6182472219
   20      C       5.9029282115     1.2766622585     0.8740274577
   21      C       6.2990307695     0.3095486164    -0.3034836804
   22      C       4.9100562110     0.1351664133    -1.0384414062
   23      O       4.2514029294     1.4481133818    -0.8598168093
   24      H       4.0456717153    -0.3094954018     1.9811413637
   25      H       4.5569570032    -1.7418361052     0.1520471064
   26      H       3.8862423347     2.3541090357     1.0404588784
   27      H       6.4148402179     2.2483194413     0.7868847782
   28      H       6.1195000036     0.8511391209     1.8668318973
   29      H       7.0364294779     0.7735552567    -0.9775488312
   30      H       6.7019870941    -0.6519309881     0.0528556511
   31      H       4.9762833196    -0.1226197953    -2.1132419479
   32      O      -1.4723426738    -2.0184612018    -1.4989027217
   33      C      -1.0301343603     3.1204850342     0.5678756387
   34      C      -4.7148478731     0.8271576581     0.5170545914
   35      C      -6.1580495417     0.6117299586    -0.0865012225
   36      C      -6.1613518437    -0.9457423452    -0.3110646090
   37      C      -4.7280863502    -1.3376836050     0.2277297240
   38      O      -4.4996420799    -0.3847124439     1.3385203135
   39      H      -4.0027248437     1.1841104916    -1.5719680154
   40      H      -3.9705079569    -1.1696028364    -1.8812113724
   41      H      -0.6655663455     3.6881449269    -0.3121885942
   42      H      -4.5791364039     1.7439365783     1.1232118413
   43      H      -6.9265085538     0.9163787360     0.6417644154
   44      H      -6.3104735030     1.1778092546    -1.0194487829
   45      H      -6.9448023322    -1.4388598754     0.2859022372
   46      H      -6.2957718403    -1.2242489274    -1.3685043432
   47      H      -4.6266205753    -2.3803007585     0.5852267276
   48      H      -0.2749266914     2.3451871205     0.8312597062
   49      H      -1.1788085154     3.8176782375     1.4128115127
   50      H       0.5048460014     0.4210532787    -2.6853289492
   51      H       0.1427079354    -1.1687018420    -1.9036981016
   52      H       1.3616122557    -1.0721329388    -3.2375056915
   53      H      -0.3147904324    -0.0065992743     1.0855616482
   54      H      -0.1757901336    -0.7504136989     2.7383527589
   55      H      -0.1564463918    -2.4945579577     0.1524562331
   56      H      -0.6880756533    -2.9858647888     1.8195631605
 ----------------------------------------------------------------

    9   -1510.2980192786      3.28E-09 Convergence criterion met
 Total energy in the final basis set = -1510.29801928
 Final energy is   -1510.29801927864
 **  OPTIMIZATION CONVERGED  **

                    Orbital Energies (a.u.)
 --------------------------------------------------------------

 Alpha MOs
 -- Occupied --
-18.947 -18.928 -18.927 -18.918 -18.890 -18.888 -18.883 -18.875
-18.872 -18.859 -10.112 -10.101 -10.100 -10.085 -10.063 -10.062
-10.062 -10.055 -10.054 -10.054 -10.053 -10.045 -10.039 -10.033
-10.032 -10.029 -10.023 -10.021 -10.017 -10.016  -1.023  -1.010
 -1.006  -0.994  -0.972  -0.964  -0.946  -0.936  -0.931  -0.920
 -0.766  -0.758  -0.727  -0.720  -0.712  -0.701  -0.690  -0.661
 -0.640  -0.611  -0.595  -0.576  -0.548  -0.541  -0.539  -0.532
 -0.516  -0.504  -0.485  -0.471  -0.465  -0.460  -0.449  -0.438
 -0.436  -0.431  -0.425  -0.416  -0.406  -0.402  -0.397  -0.396
 -0.392  -0.381  -0.371  -0.364  -0.356  -0.354  -0.352  -0.342
 -0.342  -0.334  -0.333  -0.326  -0.325  -0.322  -0.317  -0.316
 -0.307  -0.304  -0.301  -0.299  -0.287  -0.285  -0.283  -0.281
 -0.265  -0.263  -0.245  -0.239  -0.236  -0.233  -0.229  -0.189
 -0.177  -0.167  -0.164  -0.159  -0.153  -0.151  -0.146  -0.138
 -0.137

          Ground-State Mulliken Net Atomic Charges

     Atom                 Charge (a.u.)
  ----------------------------------------
      1 O                    -0.213447
      2 C                     0.218944
      3 C                    -0.077946
      4 C                    -0.080214
      5 C                     0.219999
      6 O                    -0.172456
      7 C                    -0.053345
      8 C                    -0.062288
      9 O                    -0.175296
     10 C                     0.222802
     11 C                    -0.077914
     12 C                    -0.078362
     13 C                     0.207840
     14 O                    -0.216562
     15 O                    -0.166327
     16 O                    -0.170385
     17 O                    -0.216591
     18 C                    -0.138948
     19 C                     0.024682
     20 C                    -0.143887
     21 C                    -0.144293
     22 C                     0.026003
     23 O                    -0.185528
     24 H                     0.083744
     25 H                     0.083479
     26 H                     0.087736
     27 H                     0.077044
     28 H                     0.072297
     29 H                     0.077055
     30 H                     0.073352
     31 H                     0.082026
     32 O                    -0.218758
     33 C                    -0.141369
     34 C                     0.024465
     35 C                    -0.143617
     36 C                    -0.144413
     37 C                     0.026749
     38 O                    -0.186973
     39 H                     0.087279
     40 H                     0.084889
     41 H                     0.085536
     42 H                     0.090304
     43 H                     0.078794
     44 H                     0.073709
     45 H                     0.078445
     46 H                     0.073935
     47 H                     0.086763
     48 H                     0.120324
     49 H                     0.088187
     50 H                     0.084169
     51 H                     0.109190
     52 H                     0.078947
     53 H                     0.109998
     54 H                     0.078583
     55 H                     0.105617
     56 H                     0.086033
  ----------------------------------------
  Sum of atomic charges =     0.000000

                    Cartesian Multipole Moments
 -----------------------------------------------------------------
    Charge (ESU x 10^10)
                 0.0000
    Dipole Moment (Debye)
         X      -1.1462      Y       1.1892      Z       0.7059
       Tot       1.7962
    Quadrupole Moments (Debye-Ang)
        XX    -136.7645     XY      -0.4253     YY    -163.5478
        XZ      10.5713     YZ      -2.3964     ZZ    -158.7499

 Total job time:  134.34s(wall), 6413.33s(cpu)
        *  Thank you very much for using Q-Chem.  Have a nice day.  *
