 Q-Chem 5.0, Q-Chem, Inc., Pleasanton, CA (2017)
 Q-Chem 5.0.1 for Intel X86 EM64T Linux

User input:
--------------------------------------------------------------
$molecule
0  1
O -3.94934 -3.66094 2.70899
C -3.26408 -4.56952 2.26188
C -3.36658 -6.02376 2.66595
C -4.242 -6.35399 3.88597
C -5.05867 -5.21639 4.4578
O -6.35191 -5.31234 4.02913
C -7.19529 -4.27848 4.54788
C -7.57693 -3.30493 3.43763
O -8.29979 -2.19295 3.98887
C -7.87916 -0.9676 3.58795
C -8.5411 0.15868 4.34557
C -8.09354 0.30654 5.80711
C -6.82656 -0.43254 6.1882
O -6.76821 -1.40523 6.92646
O -2.40002 -4.29706 1.24909
O -5.68742 -0.04603 5.551
O -7.11436 -0.77128 2.65078
C -4.4554 -0.64122 5.71826
C -8.22261 1.58537 3.83331
C -9.34932 2.53587 4.23953
C -9.1265 2.61768 5.73772
C -7.82427 1.81819 5.86445
O -7.16481 2.04208 4.64085
H -9.63922 0.00428 4.24023
H -8.88913 -0.04286 6.5019
H -8.06012 1.63839 2.73496
H -9.10761 3.5265 3.79107
H -10.3738 2.23877 3.92818
H -8.97256 3.68475 6.01211
H -9.93159 2.17328 6.36235
H -7.26633 2.10792 6.78219
O -4.58426 -4.33025 5.15942
C -2.20314 -3.04171 0.71299
C -4.00062 -6.89949 1.57434
C -3.53786 -8.34488 1.7394
C -4.29745 -8.7406 2.98692
C -5.11294 -7.46509 3.23363
O -5.3554 -6.96684 1.94007
H -2.3176 -6.34226 2.86158
H -3.67926 -6.79605 4.73785
H -1.83378 -2.34506 1.49575
H -3.78803 -6.54143 0.5432
H -3.94214 -8.924 0.87837
H -2.43615 -8.48144 1.79039
H -4.97497 -9.58527 2.72975
H -3.66869 -9.01288 3.86194
H -6.01009 -7.71709 3.84103
H -3.15247 -2.6555 0.28393
H -1.44593 -3.10583 -0.09508
H -3.71092 -0.12039 5.08204
H -4.50267 -1.70591 5.41083
H -4.13533 -0.56774 6.77949
H -6.63485 -3.00778 2.92537
H -8.21405 -3.83919 2.70111
H -6.73817 -3.67689 5.36393
H -8.10746 -4.73203 4.98995
$end

$opt
CONSTRAINT
tors           1           2           3           4     -10.120
tors           3           4           5           6    +100.519
tors           4           5           6           7    +179.051
tors           5           6           7           8    +109.282
tors           6           7           8           9    -173.742
tors           7           8           9          10    +131.989
tors           8           9          10          11    -171.809
tors           9          10          11          12     +71.269
tors          11          12          13          14    -110.705
ENDCONSTRAINT
$end

$rem
JOBTYPE                   OPT
METHOD                    B3LYP
DFT_D                     d3_op
BASIS                     STO-3G
GEOM_OPT_MAX_CYCLES       100
GEOM_OPT_TOL_GRADIENT     300
GEOM_OPT_TOL_DISPLACEMENT 1200
GEOM_OPT_TOL_ENERGY       100
SYMMETRY                  False
THRESH                    12
SCF_CONVERGENCE           8
MAX_SUB_FILE_NUM          128
MEM_STATIC                400
MEM_TOTAL                 4000
$end
--------------------------------------------------------------

   15   -1510.1581839947      7.35E-09 Convergence criterion met
 Total energy in the final basis set = -1510.15818399
   14   -1510.2275012883      5.90E-09 Convergence criterion met
 Total energy in the final basis set = -1510.22750129
   14   -1510.2654188989      2.80E-09 Convergence criterion met
 Total energy in the final basis set = -1510.26541890
   14   -1510.2828105624      1.92E-09 Convergence criterion met
 Total energy in the final basis set = -1510.28281056
   14   -1510.2874436787      4.22E-09 Convergence criterion met
 Total energy in the final basis set = -1510.28744368
   13   -1510.2903573646      9.29E-09 Convergence criterion met
 Total energy in the final basis set = -1510.29035736
   13   -1510.2916854906      3.88E-09 Convergence criterion met
 Total energy in the final basis set = -1510.29168549
   12   -1510.2925139203      6.83E-09 Convergence criterion met
   12   -1510.2933205874      4.00E-09 Convergence criterion met
 Total energy in the final basis set = -1510.29332059
   12   -1510.2933845746      3.58E-09 Convergence criterion met
 Total energy in the final basis set = -1510.29338457
   11   -1510.2934152740      4.18E-09 Convergence criterion met
 Total energy in the final basis set = -1510.29341527
   11   -1510.2934342429      5.87E-09 Convergence criterion met
 Total energy in the final basis set = -1510.29343424
   11   -1510.2934414185      2.48E-09 Convergence criterion met
 Total energy in the final basis set = -1510.29344142
   11   -1510.2934548138      2.68E-09 Convergence criterion met
 Total energy in the final basis set = -1510.29345481

             Standard Nuclear Orientation (Angstroms)
    I     Atom           X                Y                Z
 ----------------------------------------------------------------
    1      O       1.7330096125    -1.0611982999     0.3113776398
    2      C       2.8700017543    -1.5180032676     0.0484913125
    3      C       4.0997379082    -0.7207151233    -0.5005641146
    4      C       3.7133274379     0.7486709913    -0.9557482878
    5      C       2.1655751929     1.0216994676    -0.8959821301
    6      O       1.8484409212     1.7536417592     0.2904750152
    7      C       0.3938778394     2.0338128997     0.3409697430
    8      C      -0.2323237721     1.1507617755     1.4768899361
    9      O      -1.7008063374     1.3298945174     1.4093597549
   10      C      -2.3770033040     0.0660562096     1.4454968234
   11      C      -3.8851794939     0.3741496492     1.1549905648
   12      C      -4.1051239674     0.7884794049    -0.3685296552
   13      C      -2.7785507610     0.7430689484    -1.2145534677
   14      O      -2.1472708478     1.7136667474    -1.6906663766
   15      O       3.2442336371    -2.8796557818     0.2406254450
   16      O      -2.3769000141    -0.6203004727    -1.3321765593
   17      O      -1.8274129077    -1.0344028017     1.6584577009
   18      C      -1.1734432132    -0.7548241834    -2.1885804610
   19      C      -4.8067148935    -0.9095695862     1.2572510215
   20      C      -6.3101355488    -0.4300903083     1.3219159337
   21      C      -6.5492131184     0.0145577378    -0.1694764050
   22      C      -5.1474266886    -0.3210309372    -0.8190568527
   23      O      -4.7026674881    -1.5271660191    -0.0848687803
   24      H      -4.2175070803     1.1815162896     1.8320224941
   25      H      -4.5206332165     1.8083939745    -0.4486981039
   26      H      -4.4970714919    -1.6317055006     2.0374988978
   27      H      -6.9689228995    -1.2673443955     1.6026396081
   28      H      -6.4573768821     0.3908744087     2.0415729698
   29      H      -7.3457667630    -0.5787727819    -0.6457732112
   30      H      -6.8030428078     1.0828651641    -0.2601430914
   31      H      -5.1680721757    -0.5170016299    -1.9084638334
   32      O       1.3548931689     0.7679728046    -1.8192072657
   33      C       2.0975607295    -3.6492365053     0.7827842759
   34      C       5.1377524189    -0.4082792518     0.6649963680
   35      C       6.4798711382     0.1070395144     0.0108395963
   36      C       6.0740256011     1.5700154364    -0.4034179484
   37      C       4.5662564627     1.6128444213     0.0644591277
   38      O       4.5668758121     0.7983372360     1.3031789635
   39      H       4.5681043695    -1.3036726445    -1.3137379949
   40      H       4.0325461619     0.9198598662    -1.9992204751
   41      H       1.2400510737    -3.6483529711     0.0794344650
   42      H       5.2537363959    -1.2266294806     1.4022282991
   43      H       7.2940904633     0.1060129455     0.7529675817
   44      H       6.7844348959    -0.5113541923    -0.8486719552
   45      H       6.6672011345     2.3222186086     0.1403491788
   46      H       6.1781192497     1.7511908013    -1.4850584711
   47      H       4.1550458870     2.6202481247     0.2651759227
   48      H       1.7553551772    -3.2403269983     1.7551637449
   49      H       2.4642462637    -4.6828160792     0.9209336511
   50      H      -0.8825783874    -1.8187310261    -2.1196519133
   51      H      -0.3211338367    -0.1107728767    -1.8669808392
   52      H      -1.4160480103    -0.5131582076    -3.2435471261
   53      H       0.0391146651     0.0828894602     1.3221178475
   54      H       0.1364491254     1.4765388776     2.4726644524
   55      H      -0.0877582598     1.8051793429    -0.6351820948
   56      H       0.2684775869     3.1115307701     0.5719410671
 ----------------------------------------------------------------

    9   -1510.2934550279      5.11E-09 Convergence criterion met
 Total energy in the final basis set = -1510.29345503
 Final energy is   -1510.29345502794
 **  OPTIMIZATION CONVERGED  **

                    Orbital Energies (a.u.)
 --------------------------------------------------------------

 Alpha MOs
 -- Occupied --
-18.947 -18.928 -18.922 -18.921 -18.890 -18.889 -18.881 -18.871
-18.866 -18.862 -10.110 -10.100 -10.092 -10.087 -10.069 -10.065
-10.060 -10.055 -10.054 -10.054 -10.053 -10.044 -10.038 -10.035
-10.031 -10.029 -10.023 -10.021 -10.016 -10.014  -1.023  -1.007
 -1.003  -0.996  -0.973  -0.963  -0.946  -0.933  -0.928  -0.922
 -0.766  -0.757  -0.726  -0.720  -0.712  -0.700  -0.687  -0.667
 -0.643  -0.610  -0.594  -0.573  -0.548  -0.540  -0.539  -0.531
 -0.515  -0.503  -0.484  -0.470  -0.464  -0.459  -0.451  -0.437
 -0.435  -0.428  -0.423  -0.416  -0.411  -0.404  -0.394  -0.393
 -0.389  -0.380  -0.368  -0.363  -0.358  -0.356  -0.351  -0.343
 -0.342  -0.336  -0.333  -0.329  -0.324  -0.319  -0.318  -0.315
 -0.307  -0.303  -0.301  -0.299  -0.286  -0.282  -0.281  -0.277
 -0.268  -0.264  -0.247  -0.239  -0.237  -0.231  -0.227  -0.188
 -0.178  -0.164  -0.161  -0.159  -0.151  -0.150  -0.145  -0.139
 -0.136

          Ground-State Mulliken Net Atomic Charges

     Atom                 Charge (a.u.)
  ----------------------------------------
      1 O                    -0.207493
      2 C                     0.216045
      3 C                    -0.078253
      4 C                    -0.080846
      5 C                     0.221709
      6 O                    -0.169466
      7 C                    -0.055178
      8 C                    -0.057043
      9 O                    -0.178531
     10 C                     0.211642
     11 C                    -0.077853
     12 C                    -0.077785
     13 C                     0.205088
     14 O                    -0.217730
     15 O                    -0.167107
     16 O                    -0.167406
     17 O                    -0.207781
     18 C                    -0.142372
     19 C                     0.024889
     20 C                    -0.143904
     21 C                    -0.144353
     22 C                     0.026219
     23 O                    -0.184392
     24 H                     0.084726
     25 H                     0.083216
     26 H                     0.086963
     27 H                     0.076839
     28 H                     0.072269
     29 H                     0.076758
     30 H                     0.072783
     31 H                     0.082728
     32 O                    -0.225401
     33 C                    -0.128373
     34 C                     0.025286
     35 C                    -0.143721
     36 C                    -0.144028
     37 C                     0.025771
     38 O                    -0.187966
     39 H                     0.088085
     40 H                     0.085321
     41 H                     0.094230
     42 H                     0.085240
     43 H                     0.078796
     44 H                     0.074325
     45 H                     0.078512
     46 H                     0.073959
     47 H                     0.090649
     48 H                     0.094561
     49 H                     0.092917
     50 H                     0.083274
     51 H                     0.111514
     52 H                     0.078259
     53 H                     0.109863
     54 H                     0.081584
     55 H                     0.108568
     56 H                     0.084390
  ----------------------------------------
  Sum of atomic charges =    -0.000000

                    Cartesian Multipole Moments
 -----------------------------------------------------------------
    Charge (ESU x 10^10)
                 0.0000
    Dipole Moment (Debye)
         X       1.5687      Y      -0.2169      Z       0.1523
       Tot       1.5909
    Quadrupole Moments (Debye-Ang)
        XX    -135.0316     XY      -6.2085     YY    -158.3126
        XZ      -7.2617     YZ       0.8995     ZZ    -159.7833

 Total job time:  51.50s(wall), 2452.78s(cpu)
        *  Thank you very much for using Q-Chem.  Have a nice day.  *
