 Q-Chem 5.0, Q-Chem, Inc., Pleasanton, CA (2017)
 Q-Chem 5.0.1 for Intel X86 EM64T Linux

User input:
--------------------------------------------------------------
$molecule
0  1
O 1.7384250983 -1.0182881316 0.4395509468
C 2.8822433369 -1.5048209375 0.2851541997
C 4.1359011809 -0.7970577248 -0.3310603837
C 3.7746090465 0.5745280304 -1.0415159768
C 2.2262319769 0.8222923041 -1.1388400879
O 1.8124942212 1.7404300016 -0.1199522077
C 0.3563019241 1.9784391595 -0.2424998363
C -0.3345356834 1.6403000344 1.1204937789
O -1.7864634631 1.7984763735 0.866811117
C -2.5182103387 0.6833689374 1.3925505927
C -3.9913034289 0.847234165 0.8880335171
C -4.0838371349 0.5583724065 -0.679391001
C -2.6889243818 0.2339179599 -1.3354219853
O -2.0218120957 0.9678094831 -2.0990413714
O 3.249510124 -2.8224223249 0.6918516523
O -2.2629817674 -1.0429946156 -0.8594240116
O -2.0301883397 -0.2249263594 2.0963186332
C -0.9768395916 -1.463676437 -1.4678248079
C -4.9419407256 -0.2819130554 1.4591891203
C -6.4378828234 0.1295011506 1.16371181
C -6.531805504 -0.1583516807 -0.3816787376
C -5.0722349721 -0.6845812644 -0.6846689413
O -4.7090406847 -1.4238999578 0.545011113
H -4.347283418 1.8657896711 1.1247236258
H -4.5083987345 1.425292806 -1.2159512898
H -4.7203183284 -0.5755017176 2.5034733325
H -7.1328464729 -0.5057193261 1.7356927195
H -6.6359096256 1.1840869994 1.4134362835
H -7.2756232833 -0.9404958136 -0.602076228
H -6.7804819675 0.7407917975 -0.9677896906
H -4.9805363304 -1.3405103427 -1.5716976917
O 1.4715342185 0.3583895764 -2.0273568242
C 2.0877034553 -3.5023679526 1.3138772627
C 5.1039449486 -0.2852021094 0.8240350839
C 6.4767259187 0.1488399736 0.175245402
C 6.0839830488 1.5255806805 -0.4778775791
C 4.5480693654 1.6057929251 -0.1165799695
O 4.481214982 0.9935712467 1.2315328803
H 4.648559752 -1.5018923182 -1.0096571982
H 4.1698380999 0.5827930932 -2.0732362497
H 1.2332769628 -3.5723327097 0.6103849462
H 5.1848363082 -0.9758603798 1.6858658129
H 7.2459491717 0.2747303632 0.9535746398
H 6.8370412901 -0.586054959 -0.5623600437
H 6.6315726991 2.3620169093 -0.0149663539
H 6.2574270767 1.5477747292 -1.5654998471
H 4.1122084008 2.6227374911 -0.1012869374
H 1.7483630338 -2.9740212614 2.2281268093
H 2.4352568681 -4.5178201969 1.5785156859
H -0.5289186299 -2.1855256806 -0.7601690379
H -0.2650386983 -0.6250706844 -1.6372706024
H -1.1628552465 -1.9709868936 -2.4368109996
H -0.1091601121 0.5990449696 1.4378008175
H -0.0122838699 2.3420311357 1.9188478867
H -0.0739153073 1.3679639889 -1.0648768734
H 0.2007059024 3.0518735794 -0.4820931119
$end

$rem
JOBTYPE                   OPT
METHOD                    B3LYP
DFT_D                     d3_op
BASIS                     STO-3G
GEOM_OPT_MAX_CYCLES       100
GEOM_OPT_TOL_GRADIENT     300
GEOM_OPT_TOL_DISPLACEMENT 1200
GEOM_OPT_TOL_ENERGY       100
SYMMETRY                  False
THRESH                    12
SCF_CONVERGENCE           8
MAX_SUB_FILE_NUM          128
MEM_STATIC                400
MEM_TOTAL                 4000
$end
--------------------------------------------------------------

   16   -1510.2911251714      6.02E-09 Convergence criterion met
 Total energy in the final basis set = -1510.29112517
   14   -1510.2639798401      7.00E-09 Convergence criterion met
 Total energy in the final basis set = -1510.26397984
   14   -1510.2912940037      3.00E-09 Convergence criterion met
 Total energy in the final basis set = -1510.29129400
   14   -1510.2902230135      9.10E-09 Convergence criterion met
 Total energy in the final basis set = -1510.29022301
   13   -1510.2924336469      5.53E-09 Convergence criterion met
 Total energy in the final basis set = -1510.29243365
   13   -1510.2935219555      3.90E-09 Convergence criterion met
 Total energy in the final basis set = -1510.29352196
   13   -1510.2933216379      8.43E-09 Convergence criterion met
 Total energy in the final basis set = -1510.29332164
   14   -1510.2938047523      3.60E-09 Convergence criterion met
   10   -1510.2971432808      9.53E-09 Convergence criterion met
 Total energy in the final basis set = -1510.29714328
   12   -1510.2971524481      2.82E-09 Convergence criterion met
 Total energy in the final basis set = -1510.29715245
   11   -1510.2971658865      7.21E-09 Convergence criterion met
 Total energy in the final basis set = -1510.29716589
   10   -1510.2971747100      7.10E-09 Convergence criterion met
 Total energy in the final basis set = -1510.29717471
   10   -1510.2971761289      5.06E-09 Convergence criterion met
 Total energy in the final basis set = -1510.29717613
    9   -1510.2971818670      9.08E-09 Convergence criterion met
 Total energy in the final basis set = -1510.29718187

             Standard Nuclear Orientation (Angstroms)
    I     Atom           X                Y                Z
 ----------------------------------------------------------------
    1      O      -1.3594919932     1.0030310352    -0.2047850996
    2      C      -2.5100721973     1.3867256321     0.1156299498
    3      C      -3.8592412497     0.7861753264    -0.4089685288
    4      C      -3.6982857793    -0.6840117220    -0.9862785391
    5      C      -2.2383340135    -1.2593294710    -0.8949964577
    6      O      -1.9991843769    -1.7039268110     0.4443487039
    7      C      -0.5830045988    -2.1160072237     0.6127918086
    8      C       0.1813140780    -0.9453707103     1.3231049879
    9      O       1.6309772016    -1.1535497880     1.0997314059
   10      C       2.3439431504     0.0761972418     1.2813669347
   11      C       3.8461616470    -0.2138546364     0.9344784112
   12      C       4.0434794232    -0.8213951752    -0.5175111729
   13      C       2.7179207137    -0.9321013224    -1.3513904149
   14      O       2.2871258334    -1.9367264743    -1.9583320683
   15      O      -2.7627207215     2.4696646315     1.0014045863
   16      O       2.0892799804     0.3512425055    -1.3527792658
   17      O       1.8297615162     1.1445399000     1.6735246872
   18      C       0.9069353450     0.3568275178    -2.2466936337
   19      C       4.7053795516     1.1124005525     0.8391119527
   20      C       6.2316758810     0.7159334590     0.9247070541
   21      C       6.4561673537     0.0777685834    -0.4972182729
   22      C       5.0262787397     0.2606971727    -1.1457999449
   23      O       4.5418728939     1.5354574849    -0.5712944523
   24      H       4.2480335536    -0.9027151464     1.7002646360
   25      H       4.5049451835    -1.8232809660    -0.4790915797
   26      H       4.3715199412     1.9153647618     1.5248760607
   27      H       6.8557376889     1.6123735819     1.0683677659
   28      H       6.4327448972     0.0085063189     1.7450287629
   29      H       7.2147278785     0.6306647735    -1.0738274572
   30      H       6.7548121488    -0.9814903898    -0.4455069204
   31      H       5.0136773193     0.3046283591    -2.2521947748
   32      O      -1.4428929585    -1.4176831041    -1.8510371026
   33      C      -1.4782588334     3.0549025774     1.4642170303
   34      C      -4.9322779976     0.5497418195     0.7375583595
   35      C      -6.3425799596     0.3412582611     0.0571666879
   36      C      -6.1889468935    -1.1158522732    -0.5179188426
   37      C      -4.7202344178    -1.4725192640    -0.0578638708
   38      O      -4.5914299056    -0.7947908274     1.2526445114
   39      H      -4.2527189147     1.4726028661    -1.1821908995
   40      H      -3.9971008900    -0.7209099261    -2.0485769531
   41      H      -0.9306333540     3.5318420796     0.6261435881
   42      H      -4.8975268076     1.3023744391     1.5490885046
   43      H      -7.1440335756     0.3963643743     0.8110709791
   44      H      -6.5416526774     1.0909584208    -0.7252165951
   45      H      -6.9133309358    -1.8089686312    -0.0616092251
   46      H      -6.3024191083    -1.1569571149    -1.6130453856
   47      H      -4.5060585943    -2.5538038811     0.0433616515
   48      H      -0.8189180522     2.2904004215     1.9235335596
   49      H      -1.7488633633     3.8197001809     2.2148399158
   50      H       0.4408853130     1.3498526873    -2.1140542685
   51      H       0.1616322920    -0.4333885481    -1.9950277504
   52      H       1.2143239140     0.2321908797    -3.3050817756
   53      H      -0.1581651722     0.0148843301     0.8675070454
   54      H      -0.0486138251    -0.9265489919     2.4103951088
   55      H      -0.1270158159    -2.3119535345    -0.3820307786
   56      H      -0.5771739250    -3.0416508636     1.2222226822
 ----------------------------------------------------------------

    9   -1510.2971819021      4.16E-09 Convergence criterion met
 Total energy in the final basis set = -1510.29718190
 Final energy is   -1510.29718190212
 **  OPTIMIZATION CONVERGED  **

                    Orbital Energies (a.u.)
 --------------------------------------------------------------

 Alpha MOs
 -- Occupied --
-18.953 -18.930 -18.922 -18.915 -18.893 -18.892 -18.880 -18.874
-18.867 -18.856 -10.116 -10.102 -10.093 -10.083 -10.070 -10.064
-10.063 -10.062 -10.053 -10.053 -10.051 -10.047 -10.040 -10.031
-10.030 -10.027 -10.024 -10.023 -10.015 -10.014  -1.028  -1.009
 -1.004  -0.991  -0.974  -0.962  -0.951  -0.936  -0.928  -0.918
 -0.768  -0.756  -0.728  -0.719  -0.713  -0.699  -0.690  -0.668
 -0.639  -0.612  -0.594  -0.575  -0.550  -0.541  -0.538  -0.531
 -0.519  -0.502  -0.487  -0.472  -0.464  -0.457  -0.451  -0.439
 -0.437  -0.428  -0.422  -0.418  -0.412  -0.403  -0.397  -0.395
 -0.392  -0.383  -0.367  -0.362  -0.361  -0.353  -0.351  -0.344
 -0.341  -0.335  -0.334  -0.327  -0.325  -0.321  -0.318  -0.315
 -0.309  -0.303  -0.300  -0.298  -0.289  -0.285  -0.282  -0.278
 -0.267  -0.264  -0.247  -0.241  -0.237  -0.232  -0.227  -0.192
 -0.176  -0.168  -0.165  -0.159  -0.151  -0.148  -0.147  -0.136
 -0.134

          Ground-State Mulliken Net Atomic Charges

     Atom                 Charge (a.u.)
  ----------------------------------------
      1 O                    -0.212111
      2 C                     0.219446
      3 C                    -0.077794
      4 C                    -0.080220
      5 C                     0.218692
      6 O                    -0.171749
      7 C                    -0.053739
      8 C                    -0.061093
      9 O                    -0.178472
     10 C                     0.217627
     11 C                    -0.078374
     12 C                    -0.078604
     13 C                     0.209580
     14 O                    -0.217523
     15 O                    -0.164332
     16 O                    -0.171930
     17 O                    -0.216102
     18 C                    -0.139877
     19 C                     0.024415
     20 C                    -0.143825
     21 C                    -0.144247
     22 C                     0.025806
     23 O                    -0.186137
     24 H                     0.082559
     25 H                     0.082769
     26 H                     0.087862
     27 H                     0.076642
     28 H                     0.071944
     29 H                     0.076623
     30 H                     0.073014
     31 H                     0.081647
     32 O                    -0.216502
     33 C                    -0.129183
     34 C                     0.024489
     35 C                    -0.143714
     36 C                    -0.144314
     37 C                     0.026957
     38 O                    -0.186629
     39 H                     0.087748
     40 H                     0.085529
     41 H                     0.093589
     42 H                     0.090293
     43 H                     0.078980
     44 H                     0.073710
     45 H                     0.078840
     46 H                     0.074323
     47 H                     0.086829
     48 H                     0.102468
     49 H                     0.094043
     50 H                     0.085104
     51 H                     0.109001
     52 H                     0.077277
     53 H                     0.108874
     54 H                     0.077410
     55 H                     0.105948
     56 H                     0.086435
  ----------------------------------------
  Sum of atomic charges =     0.000000

                    Cartesian Multipole Moments
 -----------------------------------------------------------------
    Charge (ESU x 10^10)
                 0.0000
    Dipole Moment (Debye)
         X      -1.7759      Y       0.8278      Z       0.8408
       Tot       2.1322
    Quadrupole Moments (Debye-Ang)
        XX    -136.1132     XY      -5.7035     YY    -160.4737
        XZ       9.0128     YZ      -2.5016     ZZ    -160.9716

 Total job time:  88.55s(wall), 4223.76s(cpu)
        *  Thank you very much for using Q-Chem.  Have a nice day.  *
