 Q-Chem 5.0, Q-Chem, Inc., Pleasanton, CA (2017)
 Q-Chem 5.0.1 for Intel X86 EM64T Linux

User input:
--------------------------------------------------------------
$molecule
0  1
O -3.94934 -3.66094 2.70899
C -3.26408 -4.56952 2.26188
C -3.36658 -6.02376 2.66595
C -4.21631 -6.35054 3.90491
C -5.0127 -5.2088 4.49676
O -6.31909 -5.30484 4.11004
C -7.14402 -4.26707 4.65021
C -7.85446 -3.52127 3.5254
O -8.59595 -2.41516 4.06354
C -8.44582 -1.238 3.40711
C -9.08727 -0.07634 4.12805
C -8.3698 0.36436 5.41229
C -6.95973 -0.1602 5.59468
O -6.621 -1.01868 6.39644
O -2.40856 -4.29903 1.24134
O -6.04041 0.2437 4.67537
O -7.92892 -1.12437 2.30186
C -4.73935 -0.21086 4.62022
C -9.08803 1.26817 3.359
C -10.22821 2.14807 3.87253
C -9.71171 2.50626 5.25306
C -8.31177 1.88384 5.19109
O -7.96068 1.96577 3.83013
H -10.15004 -0.3625 4.29966
H -8.94497 0.05392 6.3126
H -9.16745 1.15075 2.2565
H -10.22799 3.06823 3.24469
H -11.24252 1.69489 3.84878
H -9.65698 3.61468 5.33084
H -10.29739 2.09059 6.10161
H -7.6215 2.38327 5.90634
O -4.51665 -4.32841 5.19157
C -2.21593 -3.04457 0.70154
C -4.02879 -6.89417 1.58727
C -3.5705 -8.34226 1.74025
C -4.30484 -8.73557 3.00355
C -5.1076 -7.4559 3.26999
O -5.37559 -6.95439 1.98271
H -2.31553 -6.3481 2.83986
H -3.63709 -6.79735 4.74319
H -1.84014 -2.34666 1.48011
H -3.83669 -6.53539 0.55236
H -3.99657 -8.91796 0.88748
H -2.46869 -8.48475 1.76709
H -4.99262 -9.57598 2.76
H -3.65864 -9.01289 3.86417
H -5.99252 -7.70476 3.89628
H -3.16868 -2.65889 0.27965
H -1.46538 -3.11012 -0.11261
H -4.21677 0.28397 3.7762
H -4.72543 -1.30952 4.4541
H -4.20799 0.03412 5.56455
H -7.07248 -3.2146 2.7942
H -8.54811 -4.22421 3.01653
H -6.60907 -3.50331 5.25503
H -7.90892 -4.71932 5.31675
$end

$opt
CONSTRAINT
tors           1           2           3           4     -11.466
tors           3           4           5           6    +101.229
tors           4           5           6           7    +179.051
tors           5           6           7           8    +124.145
tors           6           7           8           9    -175.422
tors           7           8           9          10    +133.413
tors           8           9          10          11    -171.809
tors           9          10          11          12     +71.269
tors          11          12          13          14    -107.754
ENDCONSTRAINT
$end

$rem
JOBTYPE                   OPT
METHOD                    B3LYP
DFT_D                     d3_op
BASIS                     STO-3G
GEOM_OPT_MAX_CYCLES       100
GEOM_OPT_TOL_GRADIENT     300
GEOM_OPT_TOL_DISPLACEMENT 1200
GEOM_OPT_TOL_ENERGY       100
SYMMETRY                  False
THRESH                    12
SCF_CONVERGENCE           8
MAX_SUB_FILE_NUM          128
MEM_STATIC                400
MEM_TOTAL                 4000
$end
--------------------------------------------------------------

   15   -1510.1560244895      7.53E-09 Convergence criterion met
 Total energy in the final basis set = -1510.15602449
   13   -1510.2251909027      9.35E-09 Convergence criterion met
 Total energy in the final basis set = -1510.22519090
   14   -1510.2628426488      3.19E-09 Convergence criterion met
 Total energy in the final basis set = -1510.26284265
    2   -1510.2628426488      6.13E-09 Convergence criterion met
 Total energy in the final basis set = -1510.26284265
   14   -1510.2799941007      3.35E-09 Convergence criterion met
 Total energy in the final basis set = -1510.27999410
   13   -1510.2857405248      7.93E-09 Convergence criterion met
 Total energy in the final basis set = -1510.28574052
   13   -1510.2876721051      8.05E-09 Convergence criterion met
 Total energy in the final basis set = -1510.28767211
   13   -1510.2890323903      2.49E-09 Convergence criterion met
   11   -1510.2914100643      4.16E-09 Convergence criterion met
 Total energy in the final basis set = -1510.29141006
   10   -1510.2914192495      6.72E-09 Convergence criterion met
 Total energy in the final basis set = -1510.29141925
   11   -1510.2914121042      8.06E-09 Convergence criterion met
 Total energy in the final basis set = -1510.29141210
   12   -1510.2914297694      3.58E-09 Convergence criterion met
 Total energy in the final basis set = -1510.29142977
    9   -1510.2914308285      5.34E-09 Convergence criterion met
 Total energy in the final basis set = -1510.29143083
    9   -1510.2914337067      4.39E-09 Convergence criterion met
 Total energy in the final basis set = -1510.29143371

             Standard Nuclear Orientation (Angstroms)
    I     Atom           X                Y                Z
 ----------------------------------------------------------------
    1      O       1.7384250983    -1.0182881316     0.4395509468
    2      C       2.8822433369    -1.5048209375     0.2851541997
    3      C       4.1359011809    -0.7970577248    -0.3310603837
    4      C       3.7746090465     0.5745280304    -1.0415159768
    5      C       2.2262319769     0.8222923041    -1.1388400879
    6      O       1.8124942212     1.7404300016    -0.1199522077
    7      C       0.3563019241     1.9784391595    -0.2424998363
    8      C      -0.3345356834     1.6403000344     1.1204937789
    9      O      -1.7864634631     1.7984763735     0.8668111170
   10      C      -2.5182103387     0.6833689374     1.3925505927
   11      C      -3.9913034289     0.8472341650     0.8880335171
   12      C      -4.0838371349     0.5583724065    -0.6793910010
   13      C      -2.6889243818     0.2339179599    -1.3354219853
   14      O      -2.0218120957     0.9678094831    -2.0990413714
   15      O       3.2495101240    -2.8224223249     0.6918516523
   16      O      -2.2629817674    -1.0429946156    -0.8594240116
   17      O      -2.0301883397    -0.2249263594     2.0963186332
   18      C      -0.9768395916    -1.4636764370    -1.4678248079
   19      C      -4.9419407256    -0.2819130554     1.4591891203
   20      C      -6.4378828234     0.1295011506     1.1637118100
   21      C      -6.5318055040    -0.1583516807    -0.3816787376
   22      C      -5.0722349721    -0.6845812644    -0.6846689413
   23      O      -4.7090406847    -1.4238999578     0.5450111130
   24      H      -4.3472834180     1.8657896711     1.1247236258
   25      H      -4.5083987345     1.4252928060    -1.2159512898
   26      H      -4.7203183284    -0.5755017176     2.5034733325
   27      H      -7.1328464729    -0.5057193261     1.7356927195
   28      H      -6.6359096256     1.1840869994     1.4134362835
   29      H      -7.2756232833    -0.9404958136    -0.6020762280
   30      H      -6.7804819675     0.7407917975    -0.9677896906
   31      H      -4.9805363304    -1.3405103427    -1.5716976917
   32      O       1.4715342185     0.3583895764    -2.0273568242
   33      C       2.0877034553    -3.5023679526     1.3138772627
   34      C       5.1039449486    -0.2852021094     0.8240350839
   35      C       6.4767259187     0.1488399736     0.1752454020
   36      C       6.0839830488     1.5255806805    -0.4778775791
   37      C       4.5480693654     1.6057929251    -0.1165799695
   38      O       4.4812149820     0.9935712467     1.2315328803
   39      H       4.6485597520    -1.5018923182    -1.0096571982
   40      H       4.1698380999     0.5827930932    -2.0732362497
   41      H       1.2332769628    -3.5723327097     0.6103849462
   42      H       5.1848363082    -0.9758603798     1.6858658129
   43      H       7.2459491717     0.2747303632     0.9535746398
   44      H       6.8370412901    -0.5860549590    -0.5623600437
   45      H       6.6315726991     2.3620169093    -0.0149663539
   46      H       6.2574270767     1.5477747292    -1.5654998471
   47      H       4.1122084008     2.6227374911    -0.1012869374
   48      H       1.7483630338    -2.9740212614     2.2281268093
   49      H       2.4352568681    -4.5178201969     1.5785156859
   50      H      -0.5289186299    -2.1855256806    -0.7601690379
   51      H      -0.2650386983    -0.6250706844    -1.6372706024
   52      H      -1.1628552465    -1.9709868936    -2.4368109996
   53      H      -0.1091601121     0.5990449696     1.4378008175
   54      H      -0.0122838699     2.3420311357     1.9188478867
   55      H      -0.0739153073     1.3679639889    -1.0648768734
   56      H       0.2007059024     3.0518735794    -0.4820931119
 ----------------------------------------------------------------

    9   -1510.2914345692      3.03E-09 Convergence criterion met
 Total energy in the final basis set = -1510.29143457
 Final energy is   -1510.29143456923
 **  OPTIMIZATION CONVERGED  **

                    Orbital Energies (a.u.)
 --------------------------------------------------------------

 Alpha MOs
 -- Occupied --
-18.945 -18.927 -18.924 -18.923 -18.890 -18.887 -18.882 -18.873
-18.865 -18.865 -10.108 -10.098 -10.094 -10.091 -10.069 -10.064
-10.060 -10.057 -10.055 -10.054 -10.052 -10.043 -10.041 -10.037
-10.033 -10.031 -10.023 -10.021 -10.016 -10.015  -1.021  -1.008
 -1.003  -0.998  -0.972  -0.964  -0.944  -0.933  -0.928  -0.925
 -0.765  -0.758  -0.726  -0.721  -0.712  -0.701  -0.688  -0.667
 -0.647  -0.609  -0.594  -0.573  -0.547  -0.540  -0.539  -0.532
 -0.515  -0.505  -0.484  -0.470  -0.463  -0.461  -0.449  -0.439
 -0.436  -0.429  -0.423  -0.416  -0.411  -0.406  -0.396  -0.395
 -0.389  -0.378  -0.370  -0.362  -0.360  -0.356  -0.352  -0.345
 -0.342  -0.336  -0.332  -0.328  -0.325  -0.321  -0.320  -0.314
 -0.306  -0.303  -0.301  -0.301  -0.287  -0.282  -0.280  -0.278
 -0.268  -0.262  -0.248  -0.241  -0.237  -0.232  -0.228  -0.187
 -0.177  -0.164  -0.161  -0.160  -0.152  -0.151  -0.145  -0.142
 -0.137

          Ground-State Mulliken Net Atomic Charges

     Atom                 Charge (a.u.)
  ----------------------------------------
      1 O                    -0.208712
      2 C                     0.214114
      3 C                    -0.078030
      4 C                    -0.080867
      5 C                     0.219206
      6 O                    -0.169383
      7 C                    -0.056577
      8 C                    -0.053836
      9 O                    -0.177573
     10 C                     0.211612
     11 C                    -0.077729
     12 C                    -0.077737
     13 C                     0.206426
     14 O                    -0.215259
     15 O                    -0.168007
     16 O                    -0.167551
     17 O                    -0.207540
     18 C                    -0.139296
     19 C                     0.024989
     20 C                    -0.144150
     21 C                    -0.144084
     22 C                     0.026181
     23 O                    -0.184609
     24 H                     0.085409
     25 H                     0.083403
     26 H                     0.087405
     27 H                     0.077157
     28 H                     0.072451
     29 H                     0.076966
     30 H                     0.072908
     31 H                     0.083162
     32 O                    -0.224272
     33 C                    -0.128082
     34 C                     0.025304
     35 C                    -0.143901
     36 C                    -0.143911
     37 C                     0.025718
     38 O                    -0.188126
     39 H                     0.087900
     40 H                     0.084909
     41 H                     0.091045
     42 H                     0.084957
     43 H                     0.078719
     44 H                     0.074300
     45 H                     0.078284
     46 H                     0.073782
     47 H                     0.090555
     48 H                     0.093574
     49 H                     0.092956
     50 H                     0.086073
     51 H                     0.109814
     52 H                     0.078943
     53 H                     0.105885
     54 H                     0.083029
     55 H                     0.110369
     56 H                     0.081726
  ----------------------------------------
  Sum of atomic charges =    -0.000000

                    Cartesian Multipole Moments
 -----------------------------------------------------------------
    Charge (ESU x 10^10)
                 0.0000
    Dipole Moment (Debye)
         X       1.3442      Y      -0.1329      Z      -0.1806
       Tot       1.3628
    Quadrupole Moments (Debye-Ang)
        XX    -133.9502     XY      -7.2944     YY    -155.6248
        XZ      -3.2372     YZ       1.5144     ZZ    -163.4411

 Total job time:  89.44s(wall), 4266.23s(cpu)
        *  Thank you very much for using Q-Chem.  Have a nice day.  *
