 Q-Chem 5.0, Q-Chem, Inc., Pleasanton, CA (2017)
 Q-Chem 5.0.1 for Intel X86 EM64T Linux

User input:
--------------------------------------------------------------
$molecule
0  1
O -3.94934 -3.66094 2.70899
C -3.26408 -4.56952 2.26188
C -3.36658 -6.02376 2.66595
C -4.242 -6.35399 3.88597
C -5.05867 -5.21639 4.4578
O -6.39012 -5.47268 4.29354
C -7.23118 -4.43766 4.81374
C -8.02362 -3.78711 3.68459
O -8.77013 -2.66959 4.19129
C -8.66832 -1.52535 3.47053
C -9.07937 -0.2997 4.25122
C -8.10127 0.12108 5.3578
C -6.72146 -0.50225 5.29223
O -6.27681 -1.32418 6.08045
O -2.40038 -4.29637 1.24905
O -5.9626 -0.18134 4.20969
O -8.34482 -1.48629 2.28947
C -4.66209 -0.59558 4.02487
C -9.13276 1.01936 3.44092
C -10.09221 1.99626 4.12143
C -9.3012 2.35153 5.36615
C -7.98365 1.62556 5.06908
O -7.89184 1.64384 3.6643
H -10.10795 -0.499 4.6295
H -8.51437 -0.1226 6.36166
H -9.42674 0.87746 2.37834
H -10.14651 2.89641 3.46746
H -11.12183 1.62097 4.30527
H -9.15821 3.45456 5.38843
H -9.74267 2.00236 6.32481
H -7.13803 2.0913 5.6218
O -4.56922 -4.30105 5.11138
C -2.20366 -3.04001 0.715
C -4.0052 -6.90042 1.57657
C -3.52514 -8.34043 1.72988
C -4.25487 -8.7445 2.99217
C -5.09529 -7.48533 3.24549
O -5.35642 -6.98802 1.95576
H -2.31745 -6.34473 2.8579
H -3.65392 -6.76489 4.73647
H -1.83446 -2.34456 1.49897
H -3.80863 -6.53642 0.54432
H -3.94503 -8.91836 0.87542
H -2.42205 -8.47265 1.75588
H -4.91113 -9.61089 2.75293
H -3.60527 -8.98948 3.86009
H -5.98085 -7.76678 3.85588
H -3.15315 -2.65296 0.28702
H -1.44664 -3.10261 -0.09336
H -4.29124 -0.21587 3.05088
H -4.61626 -1.70028 4.02692
H -4.01701 -0.19805 4.8371
H -7.29386 -3.49805 2.89336
H -8.71917 -4.5407 3.25766
H -6.69671 -3.62273 5.33659
H -7.93144 -4.87247 5.55805
$end

$opt
CONSTRAINT
tors           1           2           3           4     -10.120
tors           3           4           5           6    +114.451
tors           4           5           6           7    +179.914
tors           5           6           7           8    +116.117
tors           6           7           8           9    -174.640
tors           7           8           9          10    +131.989
tors           8           9          10          11    -161.342
tors           9          10          11          12     +71.269
tors          11          12          13          14    -110.705
ENDCONSTRAINT
$end

$rem
JOBTYPE                   OPT
METHOD                    B3LYP
DFT_D                     d3_op
BASIS                     STO-3G
GEOM_OPT_MAX_CYCLES       100
GEOM_OPT_TOL_GRADIENT     300
GEOM_OPT_TOL_DISPLACEMENT 1200
GEOM_OPT_TOL_ENERGY       100
SYMMETRY                  False
THRESH                    12
SCF_CONVERGENCE           8
MAX_SUB_FILE_NUM          128
MEM_STATIC                400
MEM_TOTAL                 4000
$end
--------------------------------------------------------------

   15   -1510.1554359025      7.45E-09 Convergence criterion met
 Total energy in the final basis set = -1510.15543590
   14   -1510.2251216064      4.77E-09 Convergence criterion met
 Total energy in the final basis set = -1510.22512161
   14   -1510.2618670342      8.96E-09 Convergence criterion met
 Total energy in the final basis set = -1510.26186703
   15   -1510.2733890304      1.92E-09 Convergence criterion met
 Total energy in the final basis set = -1510.27338903
   14   -1510.2824684149      7.02E-09 Convergence criterion met
 Total energy in the final basis set = -1510.28246841
   13   -1510.2842340847      6.41E-09 Convergence criterion met
 Total energy in the final basis set = -1510.28423408
   13   -1510.2869385049      3.34E-09 Convergence criterion met
 Total energy in the final basis set = -1510.28693850
   13   -1510.2884352063      2.62E-09 Convergence criterion met
   11   -1510.2925633364      6.51E-09 Convergence criterion met
 Total energy in the final basis set = -1510.29256334
    9   -1510.2925705353      5.03E-09 Convergence criterion met
 Total energy in the final basis set = -1510.29257054
   12   -1510.2924826010      5.63E-09 Convergence criterion met
 Total energy in the final basis set = -1510.29248260
   12   -1510.2925807240      2.72E-09 Convergence criterion met
 Total energy in the final basis set = -1510.29258072
    9   -1510.2925820257      3.01E-09 Convergence criterion met
 Total energy in the final basis set = -1510.29258203
    9   -1510.2925832154      4.53E-09 Convergence criterion met
 Total energy in the final basis set = -1510.29258322

             Standard Nuclear Orientation (Angstroms)
    I     Atom           X                Y                Z
 ----------------------------------------------------------------
    1      O       1.7025423064    -0.9121790288     0.6029510000
    2      C       2.7931868989    -1.4801782932     0.3548264222
    3      C       4.0326129000    -0.8411592469    -0.3584289728
    4      C       3.6824930793     0.5706005372    -0.9835097751
    5      C       2.1350477422     0.8166516238    -1.1349272543
    6      O       1.7305896307     1.8839696759    -0.2752152369
    7      C       0.2756414581     2.1394866632    -0.3987430755
    8      C      -0.3940212684     1.8247517026     0.9861390290
    9      O      -1.8614046942     1.9585751817     0.8092869073
   10      C      -2.5648711054     0.8349579128     1.3583376334
   11      C      -3.9937192997     0.8372386673     0.7079476216
   12      C      -3.9504726562     0.4209884269    -0.8290740825
   13      C      -2.5027608625     0.0581971452    -1.3125859716
   14      O      -1.7859464004     0.7106814047    -2.1075373557
   15      O       3.1042929193    -2.8178252554     0.7317474813
   16      O      -2.1128263018    -1.1471601499    -0.6606609003
   17      O      -2.0776568736     0.0108713968     2.1597068048
   18      C      -0.7349028713    -1.5504767930    -1.0266000558
   19      C      -4.9407004039    -0.2847786795     1.3012057434
   20      C      -6.4247517093     0.0544210452     0.8799483059
   21      C      -6.4025854641    -0.3328076462    -0.6455630561
   22      C      -4.9152889345    -0.8412762939    -0.8116538194
   23      O      -4.6195696922    -1.4816480399     0.4897646525
   24      H      -4.4278827456     1.8471551126     0.8218090811
   25      H      -4.3323986106     1.2315973068    -1.4738769335
   26      H      -4.7802630422    -0.4944950330     2.3764578251
   27      H      -7.1374057855    -0.5685920798     1.4435599189
   28      H      -6.6742682636     1.1145324516     1.0461685552
   29      H      -7.1126822061    -1.1455406076    -0.8664786684
   30      H      -6.6271977569     0.5205423649    -1.3053780880
   31      H      -4.7502117642    -1.5550423647    -1.6415896703
   32      O       1.4025559407     0.2720653059    -1.9930174502
   33      C       1.9618805904    -3.4261460700     1.4571906319
   34      C       5.0850787386    -0.4087213922     0.7537818234
   35      C       6.4078049251     0.0964956859     0.0526873828
   36      C       5.9761754009     1.5341530526    -0.4217439696
   37      C       4.4559762967     1.5444907654     0.0025244934
   38      O       4.4681126156     0.8225801157     1.2976549199
   39      H       4.4532254970    -1.5517758600    -1.0915624852
   40      H       4.1063823350     0.6361165993    -2.0022375407
   41      H       1.0772090089    -3.5402842220     0.7984418117
   42      H       5.2311679218    -1.1619108127     1.5523076881
   43      H       7.2360604472     0.1381094546     0.7776270155
   44      H       6.7042618815    -0.5558810000    -0.7845282962
   45      H       6.5306758053     2.3183089252     0.1180988612
   46      H       6.1107200681     1.6859962016    -1.5045177071
   47      H       3.9906537739     2.5414636137     0.1187301098
   48      H       1.6713002576    -2.8207357527     2.3395163820
   49      H       2.3081441759    -4.4233093311     1.7854696978
   50      H      -0.0937472071    -1.5213919631    -0.1200862172
   51      H      -0.2949490530    -0.8563851501    -1.7734159706
   52      H      -0.7710486426    -2.5817505769    -1.4274615348
   53      H      -0.1359111641     0.7950319369     1.3164386981
   54      H      -0.0446508777     2.5412752127     1.7602667123
   55      H      -0.1778947754     1.5081983927    -1.1990151625
   56      H       0.1385594702     3.2106003258    -0.6545399505
 ----------------------------------------------------------------

    9   -1510.2925836256      2.90E-09 Convergence criterion met
 Total energy in the final basis set = -1510.29258363
 Final energy is   -1510.29258362561
 **  OPTIMIZATION CONVERGED  **

                    Orbital Energies (a.u.)
 --------------------------------------------------------------

 Alpha MOs
 -- Occupied --
-18.950 -18.925 -18.925 -18.921 -18.891 -18.889 -18.882 -18.873
-18.868 -18.862 -10.112 -10.096 -10.094 -10.093 -10.071 -10.064
-10.058 -10.057 -10.056 -10.054 -10.051 -10.044 -10.036 -10.033
-10.032 -10.032 -10.023 -10.021 -10.017 -10.016  -1.024  -1.007
 -1.002  -0.999  -0.972  -0.964  -0.948  -0.933  -0.927  -0.926
 -0.765  -0.759  -0.726  -0.721  -0.712  -0.702  -0.688  -0.670
 -0.645  -0.610  -0.594  -0.573  -0.547  -0.541  -0.539  -0.532
 -0.515  -0.505  -0.483  -0.471  -0.465  -0.460  -0.454  -0.437
 -0.434  -0.428  -0.423  -0.419  -0.412  -0.407  -0.400  -0.392
 -0.390  -0.378  -0.373  -0.362  -0.360  -0.355  -0.353  -0.346
 -0.344  -0.336  -0.331  -0.327  -0.325  -0.322  -0.320  -0.313
 -0.306  -0.304  -0.302  -0.301  -0.287  -0.283  -0.280  -0.275
 -0.271  -0.262  -0.248  -0.239  -0.236  -0.229  -0.228  -0.190
 -0.175  -0.168  -0.161  -0.157  -0.153  -0.151  -0.146  -0.142
 -0.138

          Ground-State Mulliken Net Atomic Charges

     Atom                 Charge (a.u.)
  ----------------------------------------
      1 O                    -0.209392
      2 C                     0.219160
      3 C                    -0.077260
      4 C                    -0.080789
      5 C                     0.218644
      6 O                    -0.173207
      7 C                    -0.060047
      8 C                    -0.053690
      9 O                    -0.180052
     10 C                     0.210836
     11 C                    -0.077139
     12 C                    -0.077641
     13 C                     0.208926
     14 O                    -0.217055
     15 O                    -0.165715
     16 O                    -0.166751
     17 O                    -0.206038
     18 C                    -0.152600
     19 C                     0.024892
     20 C                    -0.143898
     21 C                    -0.144304
     22 C                     0.026622
     23 O                    -0.183970
     24 H                     0.084690
     25 H                     0.084569
     26 H                     0.087631
     27 H                     0.077150
     28 H                     0.072482
     29 H                     0.077115
     30 H                     0.073007
     31 H                     0.083285
     32 O                    -0.224429
     33 C                    -0.128994
     34 C                     0.024768
     35 C                    -0.144437
     36 C                    -0.143084
     37 C                     0.024118
     38 O                    -0.190249
     39 H                     0.088909
     40 H                     0.084065
     41 H                     0.092759
     42 H                     0.084644
     43 H                     0.078744
     44 H                     0.074252
     45 H                     0.078258
     46 H                     0.073812
     47 H                     0.093276
     48 H                     0.095576
     49 H                     0.094046
     50 H                     0.094511
     51 H                     0.112636
     52 H                     0.076474
     53 H                     0.102660
     54 H                     0.082275
     55 H                     0.114387
     56 H                     0.081559
  ----------------------------------------
  Sum of atomic charges =    -0.000000

                    Cartesian Multipole Moments
 -----------------------------------------------------------------
    Charge (ESU x 10^10)
                 0.0000
    Dipole Moment (Debye)
         X       1.2676      Y      -0.2041      Z      -0.4031
       Tot       1.3457
    Quadrupole Moments (Debye-Ang)
        XX    -134.3353     XY      -7.1806     YY    -155.0485
        XZ      -1.8382     YZ       0.1949     ZZ    -164.6761

 Total job time:  141.52s(wall), 6747.77s(cpu)
        *  Thank you very much for using Q-Chem.  Have a nice day.  *
