 Q-Chem 5.0, Q-Chem, Inc., Pleasanton, CA (2017)
 Q-Chem 5.0.1 for Intel X86 EM64T Linux

User input:
--------------------------------------------------------------
$molecule
0  1
O 1.7025423064 -0.9121790288 0.602951
C 2.7931868989 -1.4801782932 0.3548264222
C 4.0326129 -0.8411592469 -0.3584289728
C 3.6824930793 0.5706005372 -0.9835097751
C 2.1350477422 0.8166516238 -1.1349272543
O 1.7305896307 1.8839696759 -0.2752152369
C 0.2756414581 2.1394866632 -0.3987430755
C -0.3940212684 1.8247517026 0.986139029
O -1.8614046942 1.9585751817 0.8092869073
C -2.5648711054 0.8349579128 1.3583376334
C -3.9937192997 0.8372386673 0.7079476216
C -3.9504726562 0.4209884269 -0.8290740825
C -2.5027608625 0.0581971452 -1.3125859716
O -1.7859464004 0.7106814047 -2.1075373557
O 3.1042929193 -2.8178252554 0.7317474813
O -2.1128263018 -1.1471601499 -0.6606609003
O -2.0776568736 0.0108713968 2.1597068048
C -0.7349028713 -1.550476793 -1.0266000558
C -4.9407004039 -0.2847786795 1.3012057434
C -6.4247517093 0.0544210452 0.8799483059
C -6.4025854641 -0.3328076462 -0.6455630561
C -4.9152889345 -0.8412762939 -0.8116538194
O -4.6195696922 -1.4816480399 0.4897646525
H -4.4278827456 1.8471551126 0.8218090811
H -4.3323986106 1.2315973068 -1.4738769335
H -4.7802630422 -0.494495033 2.3764578251
H -7.1374057855 -0.5685920798 1.4435599189
H -6.6742682636 1.1145324516 1.0461685552
H -7.1126822061 -1.1455406076 -0.8664786684
H -6.6271977569 0.5205423649 -1.305378088
H -4.7502117642 -1.5550423647 -1.6415896703
O 1.4025559407 0.2720653059 -1.9930174502
C 1.9618805904 -3.42614607 1.4571906319
C 5.0850787386 -0.4087213922 0.7537818234
C 6.4078049251 0.0964956859 0.0526873828
C 5.9761754009 1.5341530526 -0.4217439696
C 4.4559762967 1.5444907654 0.0025244934
O 4.4681126156 0.8225801157 1.2976549199
H 4.453225497 -1.55177586 -1.0915624852
H 4.106382335 0.6361165993 -2.0022375407
H 1.0772090089 -3.540284222 0.7984418117
H 5.2311679218 -1.1619108127 1.5523076881
H 7.2360604472 0.1381094546 0.7776270155
H 6.7042618815 -0.555881 -0.7845282962
H 6.5306758053 2.3183089252 0.1180988612
H 6.1107200681 1.6859962016 -1.5045177071
H 3.9906537739 2.5414636137 0.1187301098
H 1.6713002576 -2.8207357527 2.339516382
H 2.3081441759 -4.4233093311 1.7854696978
H -0.0937472071 -1.5213919631 -0.1200862172
H -0.294949053 -0.8563851501 -1.7734159706
H -0.7710486426 -2.5817505769 -1.4274615348
H -0.1359111641 0.7950319369 1.3164386981
H -0.0446508777 2.5412752127 1.7602667123
H -0.1778947754 1.5081983927 -1.1990151625
H 0.1385594702 3.2106003258 -0.6545399505
$end

$rem
JOBTYPE                   OPT
METHOD                    B3LYP
DFT_D                     d3_op
BASIS                     STO-3G
GEOM_OPT_MAX_CYCLES       100
GEOM_OPT_TOL_GRADIENT     300
GEOM_OPT_TOL_DISPLACEMENT 1200
GEOM_OPT_TOL_ENERGY       100
SYMMETRY                  False
THRESH                    12
SCF_CONVERGENCE           8
MAX_SUB_FILE_NUM          128
MEM_STATIC                400
MEM_TOTAL                 4000
$end
--------------------------------------------------------------

   16   -1510.2921243589      6.36E-09 Convergence criterion met
 Total energy in the final basis set = -1510.29212436
   14   -1510.2919082733      2.16E-09 Convergence criterion met
 Total energy in the final basis set = -1510.29190827
   14   -1510.2864411895      3.07E-09 Convergence criterion met
 Total energy in the final basis set = -1510.28644119
   14   -1510.2886964847      3.21E-09 Convergence criterion met
 Total energy in the final basis set = -1510.28869648
   14   -1510.2845646938      8.87E-09 Convergence criterion met
 Total energy in the final basis set = -1510.28456469
   14   -1510.2869216079      5.14E-09 Convergence criterion met
 Total energy in the final basis set = -1510.28692161
   13   -1510.2894650641      4.77E-09 Convergence criterion met
 Total energy in the final basis set = -1510.28946506
   14   -1510.2878631196      3.25E-09 Convergence criterion met
   12   -1510.2983610380      7.15E-09 Convergence criterion met
 Total energy in the final basis set = -1510.29836104
   12   -1510.2983633362      4.84E-09 Convergence criterion met
 Total energy in the final basis set = -1510.29836334
   12   -1510.2983711351      3.08E-09 Convergence criterion met
 Total energy in the final basis set = -1510.29837114
   11   -1510.2983623734      7.17E-09 Convergence criterion met
 Total energy in the final basis set = -1510.29836237
   10   -1510.2983747006      5.51E-09 Convergence criterion met
 Total energy in the final basis set = -1510.29837470
   10   -1510.2983757780      4.00E-09 Convergence criterion met
 Total energy in the final basis set = -1510.29837578

             Standard Nuclear Orientation (Angstroms)
    I     Atom           X                Y                Z
 ----------------------------------------------------------------
    1      O      -1.2697905881     0.8452650307    -0.4548816940
    2      C      -2.3291501652     1.2854475229     0.0556689225
    3      C      -3.7842154349     0.8274275876    -0.3058987997
    4      C      -3.8426951259    -0.5962156961    -1.0108521350
    5      C      -2.4453127074    -1.3046819097    -1.1525240299
    6      O      -2.0889953077    -1.8612584568     0.1215015701
    7      C      -0.6664859655    -2.2888706163     0.1332996723
    8      C       0.0754588476    -1.2575123029     1.0505031028
    9      O       1.5437759986    -1.3536762697     0.8666190342
   10      C       2.1402648783    -0.0691910454     1.0826113661
   11      C       3.6911690223    -0.2164616577     0.8948651050
   12      C       4.1127422807    -0.7465354071    -0.5402562044
   13      C       2.8981981810    -0.9671919064    -1.5038537176
   14      O       2.6462084075    -1.9862506041    -2.1840455300
   15      O      -2.3608823594     2.2849892098     1.0594362099
   16      O       2.1146990009     0.2282220466    -1.4966194740
   17      O       1.5149248648     0.9612910682     1.4197933111
   18      C       0.9457212672     0.1106458068    -2.4017680018
   19      C       4.4111052516     1.1923020481     0.9303688884
   20      C       5.9518009403     0.9527915803     1.1735906443
   21      C       6.3958220146     0.4038727115    -0.2334466687
   22      C       5.0311458379     0.4580002118    -1.0299222914
   23      O       4.3509440021     1.6502628463    -0.4775517009
   24      H       4.0712849075    -0.8897173945     1.6850723228
   25      H       4.6758401041    -1.6938732841    -0.4770205465
   26      H       3.9208757408     1.9285998518     1.5963987564
   27      H       6.4573665118     1.9015318170     1.4138120648
   28      H       6.1377850466     0.2352836233     1.9886810764
   29      H       7.1433099700     1.0602438971    -0.7065753905
   30      H       6.8050974678    -0.6178455821    -0.1815843239
   31      H       5.1306538232     0.5417599432    -2.1295937541
   32      O      -1.7836678311    -1.4539862603    -2.2032105682
   33      C      -0.9882122107     2.7800848469     1.3545888628
   34      C      -4.6972382378     0.5783797150     0.9706522521
   35      C      -6.2039623882     0.5687384922     0.4991256845
   36      C      -6.2830404078    -0.8257903814    -0.2266178994
   37      C      -4.8124147785    -1.3668803977    -0.0151430368
   38      O      -4.4333336900    -0.8360381184     1.3147204125
   39      H      -4.2266594114     1.6054513929    -0.9558874956
   40      H      -4.2755301508    -0.5121903235    -2.0231465876
   41      H      -0.6675844520     3.4985410498     0.5730045229
   42      H      -4.4645542463     1.2423821425     1.8254436239
   43      H      -6.8783972845     0.6097801455     1.3691027024
   44      H      -6.4364254391     1.4127755978    -0.1697325223
   45      H      -7.0117948314    -1.4939022428     0.2590293654
   46      H      -6.5421674468    -0.7362891684    -1.2936304826
   47      H      -4.7081213785    -2.4686566383    -0.0358583370
   48      H      -0.2321588828     1.9633059420     1.4149436218
   49      H      -1.0629417707     3.3057114159     2.3238422475
   50      H       0.0376705358     0.3848529586    -1.8256291085
   51      H       0.8653499765    -0.9265545253    -2.7820649255
   52      H       1.0790343137     0.8084078683    -3.2518315146
   53      H      -0.2718824124    -0.2431336984     0.7529380763
   54      H      -0.1847770642    -1.4328374394     2.1165408276
   55      H      -0.2598566113    -2.2686156385    -0.9007350556
   56      H      -0.6150308158    -3.3200145381     0.5379836353
 ----------------------------------------------------------------

    9   -1510.2983751252      8.29E-09 Convergence criterion met
 Total energy in the final basis set = -1510.29837513
 Final energy is   -1510.29837512523
 **  OPTIMIZATION CONVERGED  **

                    Orbital Energies (a.u.)
 --------------------------------------------------------------

 Alpha MOs
 -- Occupied --
-18.951 -18.929 -18.922 -18.919 -18.892 -18.890 -18.884 -18.875
-18.869 -18.863 -10.117 -10.101 -10.096 -10.089 -10.063 -10.062
-10.061 -10.057 -10.056 -10.055 -10.054 -10.045 -10.038 -10.035
-10.032 -10.031 -10.023 -10.021 -10.018 -10.017  -1.026  -1.011
 -1.003  -0.996  -0.972  -0.966  -0.949  -0.936  -0.929  -0.923
 -0.766  -0.760  -0.727  -0.721  -0.713  -0.703  -0.691  -0.663
 -0.642  -0.610  -0.595  -0.576  -0.548  -0.541  -0.539  -0.534
 -0.516  -0.505  -0.486  -0.472  -0.466  -0.462  -0.449  -0.438
 -0.435  -0.432  -0.425  -0.418  -0.408  -0.406  -0.400  -0.396
 -0.392  -0.380  -0.374  -0.366  -0.358  -0.352  -0.350  -0.344
 -0.341  -0.335  -0.333  -0.329  -0.326  -0.325  -0.317  -0.316
 -0.308  -0.305  -0.301  -0.301  -0.287  -0.286  -0.284  -0.280
 -0.268  -0.265  -0.242  -0.240  -0.236  -0.233  -0.230  -0.191
 -0.176  -0.168  -0.164  -0.160  -0.155  -0.150  -0.146  -0.144
 -0.139

          Ground-State Mulliken Net Atomic Charges

     Atom                 Charge (a.u.)
  ----------------------------------------
      1 O                    -0.217213
      2 C                     0.223363
      3 C                    -0.077940
      4 C                    -0.080264
      5 C                     0.213009
      6 O                    -0.175603
      7 C                    -0.053140
      8 C                    -0.061216
      9 O                    -0.175722
     10 C                     0.223074
     11 C                    -0.077619
     12 C                    -0.078309
     13 C                     0.210788
     14 O                    -0.217097
     15 O                    -0.164477
     16 O                    -0.171671
     17 O                    -0.218662
     18 C                    -0.147466
     19 C                     0.024726
     20 C                    -0.144060
     21 C                    -0.144038
     22 C                     0.026122
     23 O                    -0.185445
     24 H                     0.083929
     25 H                     0.084300
     26 H                     0.088418
     27 H                     0.077322
     28 H                     0.072477
     29 H                     0.077387
     30 H                     0.073496
     31 H                     0.082747
     32 O                    -0.215420
     33 C                    -0.140153
     34 C                     0.024372
     35 C                    -0.143604
     36 C                    -0.144488
     37 C                     0.026916
     38 O                    -0.186450
     39 H                     0.087482
     40 H                     0.084425
     41 H                     0.086682
     42 H                     0.090618
     43 H                     0.078740
     44 H                     0.073489
     45 H                     0.078457
     46 H                     0.073955
     47 H                     0.086447
     48 H                     0.118610
     49 H                     0.089497
     50 H                     0.108271
     51 H                     0.098202
     52 H                     0.078286
     53 H                     0.106129
     54 H                     0.079258
     55 H                     0.103865
     56 H                     0.085198
  ----------------------------------------
  Sum of atomic charges =    -0.000000

                    Cartesian Multipole Moments
 -----------------------------------------------------------------
    Charge (ESU x 10^10)
                 0.0000
    Dipole Moment (Debye)
         X      -1.1058      Y       1.0225      Z       1.3358
       Tot       2.0131
    Quadrupole Moments (Debye-Ang)
        XX    -135.1203     XY      -4.2554     YY    -161.9367
        XZ       8.9094     YZ      -3.0241     ZZ    -162.7471

 Total job time:  119.70s(wall), 5712.81s(cpu)
        *  Thank you very much for using Q-Chem.  Have a nice day.  *
