 Q-Chem 5.0, Q-Chem, Inc., Pleasanton, CA (2017)
 Q-Chem 5.0.1 for Intel X86 EM64T Linux

User input:
--------------------------------------------------------------
$molecule
0  1
O -3.94934 -3.66094 2.70899
C -3.26408 -4.56952 2.26188
C -3.36658 -6.02376 2.66595
C -4.17892 -6.34595 3.93092
C -4.94558 -5.1986 4.55052
O -6.18607 -5.1108 3.9858
C -6.98283 -4.05737 4.53782
C -7.28967 -3.01456 3.46799
O -8.07004 -1.94915 4.03262
C -7.67041 -0.69578 3.70321
C -8.18758 0.35602 4.65553
C -7.43276 0.44863 5.98968
C -6.08738 -0.24733 6.0374
O -5.79767 -1.18034 6.77234
O -2.42053 -4.30178 1.23079
O -5.15973 0.15689 5.12671
O -7.06304 -0.42627 2.67384
C -3.91123 -0.41016 4.97971
C -8.01951 1.81769 4.16742
C -9.05205 2.70859 4.85899
C -8.51082 2.72285 6.27546
C -7.19402 1.96434 6.07127
O -6.82224 2.27126 4.74933
H -9.28105 0.17678 4.76947
H -8.03996 0.04223 6.82854
H -8.10178 1.93012 3.06449
H -8.93473 3.72771 4.42473
H -10.1132 2.39407 4.76007
H -8.32669 3.77958 6.5705
H -9.1495 2.21857 7.03286
H -6.45606 2.22869 6.86076
O -4.42343 -4.36261 5.27981
C -2.23281 -3.04819 0.68718
C -4.07158 -6.88884 1.61075
C -3.63655 -8.34555 1.76102
C -4.35629 -8.72344 3.0386
C -5.11764 -7.42413 3.32497
O -5.40814 -6.92084 2.04216
H -2.31373 -6.35752 2.80771
H -3.58055 -6.8071 4.74784
H -1.84717 -2.34981 1.46057
H -3.89907 -6.53795 0.56975
H -4.08464 -8.91945 0.91851
H -2.53645 -8.50282 1.77076
H -5.0763 -9.5396 2.80594
H -3.70124 -9.02701 3.8835
H -5.99225 -7.63668 3.97884
H -3.18998 -2.6618 0.27609
H -1.49189 -3.11556 -0.13559
H -3.36777 0.11307 4.1666
H -4.0092 -1.48355 4.71046
H -3.3314 -0.30935 5.9219
H -6.3242 -2.66216 3.04129
H -7.8719 -3.50519 2.65895
H -6.52994 -3.52489 5.40326
H -7.93525 -4.49012 4.91098
$end

$opt
CONSTRAINT
tors           1           2           3           4     -13.384
tors           3           4           5           6     +88.281
tors           4           5           6           7    +179.051
tors           5           6           7           8    +116.207
tors           6           7           8           9    -179.036
tors           7           8           9          10    +134.648
tors           8           9          10          11    -160.351
tors           9          10          11          12     +77.928
tors          11          12          13          14    -117.619
ENDCONSTRAINT
$end

$rem
JOBTYPE                   OPT
METHOD                    B3LYP
DFT_D                     d3_op
BASIS                     STO-3G
GEOM_OPT_MAX_CYCLES       100
GEOM_OPT_TOL_GRADIENT     300
GEOM_OPT_TOL_DISPLACEMENT 1200
GEOM_OPT_TOL_ENERGY       100
SYMMETRY                  False
THRESH                    12
SCF_CONVERGENCE           8
MAX_SUB_FILE_NUM          128
MEM_STATIC                400
MEM_TOTAL                 4000
$end
--------------------------------------------------------------

   15   -1510.1551564198      8.10E-09 Convergence criterion met
 Total energy in the final basis set = -1510.15515642
   13   -1510.2242880625      9.58E-09 Convergence criterion met
 Total energy in the final basis set = -1510.22428806
   14   -1510.2621226236      4.15E-09 Convergence criterion met
 Total energy in the final basis set = -1510.26212262
   14   -1510.2793010368      3.44E-09 Convergence criterion met
 Total energy in the final basis set = -1510.27930104
   13   -1510.2843532556      9.39E-09 Convergence criterion met
 Total energy in the final basis set = -1510.28435326
   13   -1510.2880109912      6.80E-09 Convergence criterion met
 Total energy in the final basis set = -1510.28801099
   13   -1510.2893935581      2.67E-09 Convergence criterion met
 Total energy in the final basis set = -1510.28939356
   13   -1510.2904730660      2.83E-09 Convergence criterion met
   10   -1510.2921394809      6.33E-09 Convergence criterion met
 Total energy in the final basis set = -1510.29213948
    9   -1510.2921499080      7.50E-09 Convergence criterion met
 Total energy in the final basis set = -1510.29214991
   11   -1510.2921709491      5.28E-09 Convergence criterion met
 Total energy in the final basis set = -1510.29217095
   11   -1510.2921981991      5.27E-09 Convergence criterion met
 Total energy in the final basis set = -1510.29219820
   10   -1510.2922117587      6.87E-09 Convergence criterion met
 Total energy in the final basis set = -1510.29221176
    9   -1510.2922160845      9.41E-09 Convergence criterion met
 Total energy in the final basis set = -1510.29221608

             Standard Nuclear Orientation (Angstroms)
    I     Atom           X                Y                Z
 ----------------------------------------------------------------
    1      O       1.6545733891    -1.1320816549     0.2585435176
    2      C       2.8206293011    -1.5578768076     0.0950511171
    3      C       4.0636223674    -0.7656164209    -0.4287001060
    4      C       3.6964550977     0.6290924998    -1.0895708505
    5      C       2.1590054609     0.9548218865    -1.0567188520
    6      O       1.8415779363     1.6241473998     0.1655366148
    7      C       0.3990511691     1.9613061936     0.2073329389
    8      C      -0.2572261229     1.1696392033     1.3910870083
    9      O      -1.6982825363     1.5173868984     1.3806527636
   10      C      -2.5118502183     0.3451660934     1.5347582638
   11      C      -3.9390908170     0.7291971100     1.0099264705
   12      C      -3.9947787346     0.7235762637    -0.5835388430
   13      C      -2.6078818025     0.4481702727    -1.2676006641
   14      O      -1.9743380040     1.2210441989    -2.0218117193
   15      O       3.2289502997    -2.8911385941     0.4010255990
   16      O      -2.1754149653    -0.8567456586    -0.8897894866
   17      O      -2.1119284447    -0.7463077692     1.9884716542
   18      C      -0.8987587720    -1.2254167751    -1.5476844474
   19      C      -5.0047138575    -0.3907461997     1.3495254500
   20      C      -6.4477584340     0.1838330953     1.0620632777
   21      C      -6.4902307698     0.1308707241    -0.5103193867
   22      C      -5.0520494335    -0.4377274716    -0.8339465930
   23      O      -4.8026757229    -1.3885267197     0.2722631420
   24      H      -4.2157120531     1.7201648325     1.4118476207
   25      H      -4.3614310071     1.6926710923    -0.9657049604
   26      H      -4.8658892126    -0.8643339788     2.3405630035
   27      H      -7.2185466631    -0.4632746927     1.5097468996
   28      H      -6.5721492620     1.2055150041     1.4551784903
   29      H      -7.2658793229    -0.5641244903    -0.8699217531
   30      H      -6.6614994379     1.1187645221    -0.9670828202
   31      H      -4.9544821980    -0.9475376373    -1.8119609204
   32      O       1.3450180031     0.7337959307    -1.9853502017
   33      C       2.0786543770    -3.6668285921     0.9245973545
   34      C       5.0213254580    -0.2992252265     0.7565262737
   35      C       6.4188302234     0.0835859391     0.1297202443
   36      C       6.0726460466     1.4535593968    -0.5626271925
   37      C       4.5470828071     1.6144430329    -0.1817362059
   38      O       4.4554503055     1.0038437679     1.1655100780
   39      H       4.6089258138    -1.4178971277    -1.1344589884
   40      H       4.0187214668     0.6556159742    -2.1455717588
   41      H       1.2699885299    -3.7521620868     0.1702807788
   42      H       5.0601678633    -0.9991219503     1.6138166770
   43      H       7.1706923211     0.2126373865     0.9245409491
   44      H       6.7813337413    -0.6769149620    -0.5801762503
   45      H       6.6647367324     2.2808343395    -0.1402768845
   46      H       6.2254007974     1.4304765337    -1.6533759129
   47      H       4.1708298386     2.6549537625    -0.1604185133
   48      H       1.6575835055    -3.2055601707     1.8411190842
   49      H       2.4722000261    -4.6724347197     1.1606161120
   50      H      -0.3830201195    -1.9194496077    -0.8581676368
   51      H      -0.2408483857    -0.3477349644    -1.7436794947
   52      H      -1.1055980300    -1.7441281891    -2.5060066283
   53      H      -0.1068839563     0.0771731840     1.2547232132
   54      H       0.2004736538     1.4722478523     2.3575799811
   55      H      -0.0881126785     1.6970785745    -0.7572225819
   56      H       0.3085330281     3.0538116129     0.3814602029
 ----------------------------------------------------------------

    9   -1510.2922151258      4.43E-09 Convergence criterion met
 Total energy in the final basis set = -1510.29221513
 Final energy is   -1510.29221512583
 **  OPTIMIZATION CONVERGED  **

                    Orbital Energies (a.u.)
 --------------------------------------------------------------

 Alpha MOs
 -- Occupied --
-18.946 -18.929 -18.923 -18.919 -18.892 -18.889 -18.882 -18.871
-18.870 -18.864 -10.110 -10.100 -10.092 -10.089 -10.070 -10.065
-10.062 -10.057 -10.056 -10.055 -10.053 -10.044 -10.040 -10.036
-10.031 -10.030 -10.024 -10.022 -10.016 -10.015  -1.023  -1.008
 -1.004  -0.996  -0.974  -0.963  -0.946  -0.934  -0.928  -0.924
 -0.767  -0.757  -0.727  -0.720  -0.713  -0.701  -0.689  -0.669
 -0.645  -0.611  -0.594  -0.573  -0.549  -0.541  -0.539  -0.531
 -0.517  -0.504  -0.486  -0.470  -0.465  -0.460  -0.449  -0.438
 -0.437  -0.428  -0.423  -0.417  -0.412  -0.404  -0.396  -0.393
 -0.389  -0.380  -0.371  -0.362  -0.359  -0.354  -0.350  -0.346
 -0.343  -0.337  -0.334  -0.330  -0.325  -0.322  -0.319  -0.316
 -0.308  -0.304  -0.301  -0.301  -0.289  -0.284  -0.282  -0.275
 -0.268  -0.264  -0.247  -0.240  -0.237  -0.231  -0.228  -0.189
 -0.177  -0.165  -0.163  -0.159  -0.152  -0.149  -0.147  -0.141
 -0.137

          Ground-State Mulliken Net Atomic Charges

     Atom                 Charge (a.u.)
  ----------------------------------------
      1 O                    -0.210895
      2 C                     0.213980
      3 C                    -0.078761
      4 C                    -0.080399
      5 C                     0.219676
      6 O                    -0.167483
      7 C                    -0.055387
      8 C                    -0.054033
      9 O                    -0.181362
     10 C                     0.213648
     11 C                    -0.077614
     12 C                    -0.078784
     13 C                     0.205257
     14 O                    -0.216383
     15 O                    -0.167864
     16 O                    -0.168623
     17 O                    -0.205411
     18 C                    -0.144208
     19 C                     0.025008
     20 C                    -0.144501
     21 C                    -0.143654
     22 C                     0.026222
     23 O                    -0.184304
     24 H                     0.084981
     25 H                     0.083339
     26 H                     0.086410
     27 H                     0.077002
     28 H                     0.072536
     29 H                     0.076971
     30 H                     0.073107
     31 H                     0.082815
     32 O                    -0.220218
     33 C                    -0.128541
     34 C                     0.025939
     35 C                    -0.143219
     36 C                    -0.144612
     37 C                     0.027069
     38 O                    -0.185807
     39 H                     0.087837
     40 H                     0.085608
     41 H                     0.090831
     42 H                     0.085330
     43 H                     0.078964
     44 H                     0.074534
     45 H                     0.078627
     46 H                     0.074082
     47 H                     0.088141
     48 H                     0.094308
     49 H                     0.093380
     50 H                     0.087134
     51 H                     0.112639
     52 H                     0.076994
     53 H                     0.105745
     54 H                     0.082783
     55 H                     0.107509
     56 H                     0.083657
  ----------------------------------------
  Sum of atomic charges =     0.000000

                    Cartesian Multipole Moments
 -----------------------------------------------------------------
    Charge (ESU x 10^10)
                -0.0000
    Dipole Moment (Debye)
         X       1.7927      Y      -0.1647      Z      -0.1312
       Tot       1.8050
    Quadrupole Moments (Debye-Ang)
        XX    -135.0643     XY      -8.2424     YY    -156.6092
        XZ      -4.2816     YZ       2.0269     ZZ    -162.8795

 Total job time:  69.71s(wall), 3319.83s(cpu)
        *  Thank you very much for using Q-Chem.  Have a nice day.  *
