 Q-Chem 5.0, Q-Chem, Inc., Pleasanton, CA (2017)
 Q-Chem 5.0.1 for Intel X86 EM64T Linux

User input:
--------------------------------------------------------------
$molecule
0  1
O 1.6545733891 -1.1320816549 0.2585435176
C 2.8206293011 -1.5578768076 0.0950511171
C 4.0636223674 -0.7656164209 -0.428700106
C 3.6964550977 0.6290924998 -1.0895708505
C 2.1590054609 0.9548218865 -1.056718852
O 1.8415779363 1.6241473998 0.1655366148
C 0.3990511691 1.9613061936 0.2073329389
C -0.2572261229 1.1696392033 1.3910870083
O -1.6982825363 1.5173868984 1.3806527636
C -2.5118502183 0.3451660934 1.5347582638
C -3.939090817 0.72919711 1.0099264705
C -3.9947787346 0.7235762637 -0.583538843
C -2.6078818025 0.4481702727 -1.2676006641
O -1.974338004 1.2210441989 -2.0218117193
O 3.2289502997 -2.8911385941 0.401025599
O -2.1754149653 -0.8567456586 -0.8897894866
O -2.1119284447 -0.7463077692 1.9884716542
C -0.898758772 -1.2254167751 -1.5476844474
C -5.0047138575 -0.3907461997 1.34952545
C -6.447758434 0.1838330953 1.0620632777
C -6.4902307698 0.1308707241 -0.5103193867
C -5.0520494335 -0.4377274716 -0.833946593
O -4.8026757229 -1.3885267197 0.272263142
H -4.2157120531 1.7201648325 1.4118476207
H -4.3614310071 1.6926710923 -0.9657049604
H -4.8658892126 -0.8643339788 2.3405630035
H -7.2185466631 -0.4632746927 1.5097468996
H -6.572149262 1.2055150041 1.4551784903
H -7.2658793229 -0.5641244903 -0.8699217531
H -6.6614994379 1.1187645221 -0.9670828202
H -4.954482198 -0.9475376373 -1.8119609204
O 1.3450180031 0.7337959307 -1.9853502017
C 2.078654377 -3.6668285921 0.9245973545
C 5.021325458 -0.2992252265 0.7565262737
C 6.4188302234 0.0835859391 0.1297202443
C 6.0726460466 1.4535593968 -0.5626271925
C 4.5470828071 1.6144430329 -0.1817362059
O 4.4554503055 1.0038437679 1.165510078
H 4.6089258138 -1.4178971277 -1.1344589884
H 4.0187214668 0.6556159742 -2.1455717588
H 1.2699885299 -3.7521620868 0.1702807788
H 5.0601678633 -0.9991219503 1.613816677
H 7.1706923211 0.2126373865 0.9245409491
H 6.7813337413 -0.676914962 -0.5801762503
H 6.6647367324 2.2808343395 -0.1402768845
H 6.2254007974 1.4304765337 -1.6533759129
H 4.1708298386 2.6549537625 -0.1604185133
H 1.6575835055 -3.2055601707 1.8411190842
H 2.4722000261 -4.6724347197 1.160616112
H -0.3830201195 -1.9194496077 -0.8581676368
H -0.2408483857 -0.3477349644 -1.7436794947
H -1.10559803 -1.7441281891 -2.5060066283
H -0.1068839563 0.077173184 1.2547232132
H 0.2004736538 1.4722478523 2.3575799811
H -0.0881126785 1.6970785745 -0.7572225819
H 0.3085330281 3.0538116129 0.3814602029
$end

$rem
JOBTYPE                   OPT
METHOD                    B3LYP
DFT_D                     d3_op
BASIS                     STO-3G
GEOM_OPT_MAX_CYCLES       100
GEOM_OPT_TOL_GRADIENT     300
GEOM_OPT_TOL_DISPLACEMENT 1200
GEOM_OPT_TOL_ENERGY       100
SYMMETRY                  False
THRESH                    12
SCF_CONVERGENCE           8
MAX_SUB_FILE_NUM          128
MEM_STATIC                400
MEM_TOTAL                 4000
$end
--------------------------------------------------------------

   16   -1510.2923504195      5.59E-09 Convergence criterion met
 Total energy in the final basis set = -1510.29235042
   14   -1510.2606617240      5.51E-09 Convergence criterion met
 Total energy in the final basis set = -1510.26066172
   14   -1510.2926244344      3.20E-09 Convergence criterion met
 Total energy in the final basis set = -1510.29262443
   14   -1510.2658575551      7.68E-09 Convergence criterion met
 Total energy in the final basis set = -1510.26585756
   15   -1510.2922115914      3.33E-09 Convergence criterion met
 Total energy in the final basis set = -1510.29221159
   14   -1510.2921505480      4.69E-09 Convergence criterion met
 Total energy in the final basis set = -1510.29215055
   13   -1510.2929526265      7.30E-09 Convergence criterion met
 Total energy in the final basis set = -1510.29295263
   14   -1510.2940464388      4.76E-09 Convergence criterion met
   12   -1510.2982400936      4.93E-09 Convergence criterion met
 Total energy in the final basis set = -1510.29824009
   12   -1510.2982239435      4.67E-09 Convergence criterion met
 Total energy in the final basis set = -1510.29822394
   11   -1510.2982324036      4.52E-09 Convergence criterion met
 Total energy in the final basis set = -1510.29823240
    9   -1510.2982331725      8.57E-09 Convergence criterion met
 Total energy in the final basis set = -1510.29823317
    9   -1510.2982315383      6.32E-09 Convergence criterion met
 Total energy in the final basis set = -1510.29823154
    9   -1510.2982249573      9.22E-09 Convergence criterion met
 Total energy in the final basis set = -1510.29822496

             Standard Nuclear Orientation (Angstroms)
    I     Atom           X                Y                Z
 ----------------------------------------------------------------
    1      O       1.1829723277    -0.6780824577    -0.3244932050
    2      C       2.2542357992    -1.2861304364    -0.0851018262
    3      C       3.6892464123    -0.7939444672    -0.4741292114
    4      C       3.7150067098     0.7285484888    -0.9247808794
    5      C       2.3086841737     1.4354620511    -0.8743754533
    6      O       2.0676559806     1.8830694228     0.4648129816
    7      C       0.6596848483     2.3240205939     0.6304444352
    8      C      -0.0639689932     1.2177738249     1.4755210743
    9      O      -1.5238444822     1.2667485914     1.2246098338
   10      C      -2.0645784775    -0.0584265310     1.1840825149
   11      C      -3.6076533949     0.0826551673     0.9459524508
   12      C      -3.9776348999     0.8552996948    -0.3885759906
   13      C      -2.7447114156     1.1722079298    -1.3064887068
   14      O      -2.4830244866     2.2540301381    -1.8762516979
   15      O       2.3296083101    -2.5305406729     0.5921367151
   16      O      -1.9828128633    -0.0273113009    -1.4474758172
   17      O      -1.4117643996    -1.1092595599     1.3695268484
   18      C      -0.9066349356     0.1440116136    -2.4527932061
   19      C      -4.3194066143    -1.3136897177     0.7113552696
   20      C      -5.8619347107    -1.1257131332     0.9856496706
   21      C      -6.2873738566    -0.2863039801    -0.2766697349
   22      C      -4.9256853447    -0.2204544904    -1.0788613256
   23      O      -4.2616616353    -1.5030071630    -0.7569048098
   24      H      -4.0350264004     0.6062225287     1.8210392885
   25      H      -4.5064227221     1.8020699819    -0.1822040954
   26      H      -3.8312976572    -2.1614833412     1.2304702876
   27      H      -6.3693978753    -2.1034077936     1.0079353949
   28      H      -6.0605723991    -0.6026992398     1.9348293140
   29      H      -7.0593072472    -0.8047607056    -0.8672526790
   30      H      -6.6595145866     0.7168060842    -0.0136243502
   31      H      -5.0317245202    -0.1026693011    -2.1748826818
   32      O       1.5688940554     1.6906391774    -1.8541261401
   33      C       0.9693051364    -3.0348562654     0.9245263180
   34      C       4.6783342976    -0.7675428905     0.7691815747
   35      C       6.1554871340    -0.6567769873     0.2249632195
   36      C       6.1912229053     0.8445232726    -0.2443588277
   37      C       4.7341768552     1.3230914603     0.1389557820
   38      O       4.4295791721     0.5607711355     1.3726188749
   39      H       4.0739175910    -1.4551550311    -1.2727320682
   40      H       4.0942602353     0.8229031274    -1.9576945831
   41      H       0.5960703956    -3.6715129798     0.0968804857
   42      H       4.4955701455    -1.5766152814     1.5026109409
   43      H       6.8774952574    -0.8439813683     1.0356575373
   44      H       6.3525020407    -1.3669114847    -0.5939695584
   45      H       6.9452369219     1.4236830291     0.3119431755
   46      H       6.3908992025     0.9487038125    -1.3227364313
   47      H       4.6254674421     2.4096106187     0.3195813682
   48      H       0.2401250591    -2.2111190501     1.0995892724
   49      H       1.0819701848    -3.6525809982     1.8344271903
   50      H      -0.4793336849    -0.8645694623    -2.5989369756
   51      H      -0.0986910460     0.8344286861    -2.1142322181
   52      H      -1.3177063385     0.5150768674    -3.4132009166
   53      H       0.3264311265     0.2296086715     1.1449787176
   54      H       0.1342773631     1.3541029164     2.5599227598
   55      H       0.1773929627     2.4304141114    -0.3654961335
   56      H       0.6661502268     3.3039211034     1.1488041304
 ----------------------------------------------------------------

    9   -1510.2982245663      7.47E-09 Convergence criterion met
 Total energy in the final basis set = -1510.29822457
 Final energy is   -1510.29822456629
 **  OPTIMIZATION CONVERGED  **

                    Orbital Energies (a.u.)
 --------------------------------------------------------------

 Alpha MOs
 -- Occupied --
-18.946 -18.928 -18.926 -18.919 -18.890 -18.888 -18.883 -18.876
-18.870 -18.860 -10.111 -10.101 -10.100 -10.086 -10.063 -10.061
-10.061 -10.056 -10.054 -10.054 -10.053 -10.044 -10.038 -10.034
-10.034 -10.030 -10.022 -10.021 -10.017 -10.016  -1.022  -1.010
 -1.004  -0.995  -0.972  -0.965  -0.945  -0.936  -0.930  -0.921
 -0.766  -0.759  -0.727  -0.721  -0.712  -0.702  -0.690  -0.660
 -0.641  -0.610  -0.595  -0.576  -0.548  -0.540  -0.538  -0.533
 -0.516  -0.504  -0.484  -0.472  -0.464  -0.460  -0.449  -0.438
 -0.435  -0.431  -0.425  -0.416  -0.406  -0.402  -0.398  -0.396
 -0.392  -0.380  -0.371  -0.364  -0.356  -0.354  -0.351  -0.342
 -0.341  -0.334  -0.333  -0.327  -0.325  -0.323  -0.317  -0.316
 -0.307  -0.305  -0.301  -0.300  -0.287  -0.285  -0.283  -0.282
 -0.265  -0.263  -0.244  -0.238  -0.236  -0.233  -0.230  -0.188
 -0.177  -0.166  -0.163  -0.160  -0.153  -0.150  -0.145  -0.139
 -0.138

          Ground-State Mulliken Net Atomic Charges

     Atom                 Charge (a.u.)
  ----------------------------------------
      1 O                    -0.212691
      2 C                     0.218469
      3 C                    -0.078130
      4 C                    -0.080494
      5 C                     0.220731
      6 O                    -0.173135
      7 C                    -0.052750
      8 C                    -0.060550
      9 O                    -0.175806
     10 C                     0.224307
     11 C                    -0.077969
     12 C                    -0.077875
     13 C                     0.208279
     14 O                    -0.216421
     15 O                    -0.167100
     16 O                    -0.169886
     17 O                    -0.217234
     18 C                    -0.138430
     19 C                     0.024753
     20 C                    -0.143516
     21 C                    -0.144443
     22 C                     0.025695
     23 O                    -0.185886
     24 H                     0.083606
     25 H                     0.083869
     26 H                     0.087918
     27 H                     0.077141
     28 H                     0.072328
     29 H                     0.077111
     30 H                     0.073399
     31 H                     0.082042
     32 O                    -0.220656
     33 C                    -0.142048
     34 C                     0.024469
     35 C                    -0.143664
     36 C                    -0.144420
     37 C                     0.026706
     38 O                    -0.187130
     39 H                     0.087363
     40 H                     0.084613
     41 H                     0.084900
     42 H                     0.089569
     43 H                     0.078738
     44 H                     0.073857
     45 H                     0.078372
     46 H                     0.073912
     47 H                     0.087138
     48 H                     0.120879
     49 H                     0.087638
     50 H                     0.084481
     51 H                     0.108539
     52 H                     0.080302
     53 H                     0.109743
     54 H                     0.079193
     55 H                     0.104710
     56 H                     0.085462
  ----------------------------------------
  Sum of atomic charges =     0.000000

                    Cartesian Multipole Moments
 -----------------------------------------------------------------
    Charge (ESU x 10^10)
                 0.0000
    Dipole Moment (Debye)
         X       1.0548      Y      -1.0785      Z       1.0274
       Tot       1.8252
    Quadrupole Moments (Debye-Ang)
        XX    -136.3006     XY      -2.0555     YY    -162.3361
        XZ      -9.8531     YZ       3.2789     ZZ    -160.7058

 Total job time:  133.87s(wall), 6386.51s(cpu)
        *  Thank you very much for using Q-Chem.  Have a nice day.  *
