 Q-Chem 5.0, Q-Chem, Inc., Pleasanton, CA (2017)
 Q-Chem 5.0.1 for Intel X86 EM64T Linux

User input:
--------------------------------------------------------------
$molecule
0  1
O 1.656307366 -0.8053442762 0.5627875295
C 2.7104700942 -1.4288471705 0.290537433
C 3.9803052834 -0.8302227969 -0.4039024309
C 3.6902852571 0.6222645007 -0.9672183542
C 2.1531797081 0.9585432519 -0.9874377908
O 1.866801944 2.0047722998 -0.0566987252
C 0.4216256965 2.3361490774 -0.0934973606
C -0.2547066342 1.6682429408 1.1574025464
O -1.7233096019 1.737831993 0.9777242575
C -2.3526536282 0.5087291566 1.3643844116
C -3.8547586161 0.6309271001 0.9321474757
C -4.0272139881 0.574426622 -0.6488248152
C -2.672309254 0.3326239106 -1.4078792918
O -2.1043657997 1.1015650035 -2.2150853702
O 2.9305335028 -2.7979919966 0.6071446874
O -2.1761970627 -0.9452261871 -1.0128861655
O -1.7761748389 -0.4421232985 1.9317051334
C -0.939005516 -1.2923778289 -1.751448243
C -4.72662538 -0.6104436159 1.3839686357
C -6.2486302596 -0.2048981067 1.2700973846
C -6.4484806158 -0.2223319862 -0.2915506098
C -5.0123506167 -0.6670672693 -0.7811934529
O -4.5503346939 -1.5857889498 0.283109194
H -4.2541108545 1.5807817995 1.3311043514
H -4.4755563616 1.5050939224 -1.0381302616
H -4.4162222019 -1.0577941666 2.3479467791
H -6.8851830097 -0.9549604062 1.7657866367
H -6.4525618061 0.7819962256 1.7151906005
H -7.2048863129 -0.9639737995 -0.5942436004
H -6.737637589 0.7612275812 -0.6950882897
H -4.98643636 -1.1716772098 -1.7664051883
O 1.3419107592 0.5335618478 -1.8459672062
C 1.7377727638 -3.3559871994 1.2924529836
C 5.0760406076 -0.5016722045 0.7006651921
C 6.4177779648 -0.0763821322 -0.0156491135
C 6.0734928824 1.3907111584 -0.4686309462
C 4.5728901772 1.509364704 0.0073683061
O 4.5650316549 0.7588664041 1.2863464463
H 4.3517802762 -1.5300156817 -1.1734268017
H 4.0475485342 0.7015499804 -2.009927405
H 0.8416508232 -3.3182744991 0.6399817859
H 5.1821340922 -1.2826555061 1.4786567568
H 7.2568964754 -0.0956363882 0.6977886419
H 6.6610941501 -0.7372072821 -0.8633494821
H 6.7011452738 2.1305056502 0.0532204913
H 6.179807316 1.5389216542 -1.5550069953
H 4.1933872739 2.5374157177 0.1591899849
H 1.5140667841 -2.8065738595 2.2292370496
H 1.9860463062 -4.4077466868 1.5245935025
H -0.5661633276 -2.2202920119 -1.2808345904
H -0.155693008 -0.4982580588 -1.695201733
H -1.164308838 -1.4928619679 -2.8188285424
H 0.0781950868 0.6089606258 1.2353060185
H 0.0354917056 2.2013433922 2.0879711215
H -0.0370123142 1.9413424546 -1.0275604701
H 0.331650645 3.4403700544 -0.0601719802
$end

$rem
JOBTYPE                   OPT
METHOD                    B3LYP
DFT_D                     d3_op
BASIS                     STO-3G
GEOM_OPT_MAX_CYCLES       100
GEOM_OPT_TOL_GRADIENT     300
GEOM_OPT_TOL_DISPLACEMENT 1200
GEOM_OPT_TOL_ENERGY       100
SYMMETRY                  False
THRESH                    12
SCF_CONVERGENCE           8
MAX_SUB_FILE_NUM          128
MEM_STATIC                400
MEM_TOTAL                 4000
$end
--------------------------------------------------------------

   16   -1510.2934800451      7.15E-09 Convergence criterion met
 Total energy in the final basis set = -1510.29348005
   14   -1510.2851505560      6.52E-09 Convergence criterion met
 Total energy in the final basis set = -1510.28515056
   14   -1510.2764041335      3.83E-09 Convergence criterion met
 Total energy in the final basis set = -1510.27640413
   14   -1510.2828537421      9.33E-09 Convergence criterion met
 Total energy in the final basis set = -1510.28285374
   13   -1510.2874077533      5.31E-09 Convergence criterion met
 Total energy in the final basis set = -1510.28740775
   13   -1510.2894805999      4.12E-09 Convergence criterion met
 Total energy in the final basis set = -1510.28948060
   14   -1510.2916460018      3.91E-09 Convergence criterion met
 Total energy in the final basis set = -1510.29164600
   13   -1510.2923245145      9.05E-09 Convergence criterion met
   10   -1510.2982245302      5.57E-09 Convergence criterion met
 Total energy in the final basis set = -1510.29822453
   11   -1510.2982297457      3.01E-09 Convergence criterion met
 Total energy in the final basis set = -1510.29822975
   12   -1510.2982361466      2.97E-09 Convergence criterion met
 Total energy in the final basis set = -1510.29823615
   12   -1510.2982433288      2.45E-09 Convergence criterion met
 Total energy in the final basis set = -1510.29824333
   11   -1510.2982448868      7.15E-09 Convergence criterion met
 Total energy in the final basis set = -1510.29824489
   11   -1510.2982453960      6.40E-09 Convergence criterion met
 Total energy in the final basis set = -1510.29824540

             Standard Nuclear Orientation (Angstroms)
    I     Atom           X                Y                Z
 ----------------------------------------------------------------
    1      O      -1.1651862866     0.7387576847    -0.3700843387
    2      C      -2.2481013126     1.3182205337    -0.1113519052
    3      C      -3.6724183398     0.8142680392    -0.5283741440
    4      C      -3.6807511905    -0.7099319894    -0.9752758154
    5      C      -2.2780595979    -1.4170175627    -0.8713728849
    6      O      -2.0664375234    -1.8183162974     0.4869145170
    7      C      -0.6652417480    -2.2640592558     0.6960522935
    8      C       0.0550687399    -1.1155116148     1.4848065852
    9      O       1.5197240669    -1.1999448043     1.2756542468
   10      C       2.0861427777     0.1141880269     1.2184536141
   11      C       3.6288447807    -0.0599141165     1.0048235890
   12      C       3.9988105803    -0.8777449540    -0.3026634773
   13      C       2.7694785742    -1.2068447390    -1.2209637370
   14      O       2.4935775232    -2.3046572081    -1.7521587139
   15      O      -2.3486649279     2.5330248301     0.6137995944
   16      O       2.0293304694    -0.0008708286    -1.4134268429
   17      O       1.4486102864     1.1797635095     1.3703291097
   18      C       0.9601339507    -0.1919220140    -2.4226635695
   19      C       4.3642703259     1.3172589897     0.7357262164
   20      C       5.9018120233     1.1136579225     1.0267784792
   21      C       6.3234543480     0.2324365502    -0.2079479199
   22      C       4.9662688728     0.1634759425    -1.0173335706
   23      O       4.3191772257     1.4645563263    -0.7377289279
   24      H       4.0375176230    -0.5640881119     1.8999795563
   25      H       4.5128723705    -1.8245574596    -0.0625122665
   26      H       3.8852510396     2.1868044366     1.2266115148
   27      H       6.4240867568     2.0837380319     1.0251912751
   28      H       6.0854221299     0.6147936208     1.9918147667
   29      H       7.1070996988     0.7224878721    -0.8071983959
   30      H       6.6782619132    -0.7682443868     0.0864843226
   31      H       5.0771918592     0.0117742536    -2.1086711874
   32      O      -1.5181283529    -1.7072777930    -1.8254563560
   33      C      -0.9992337622     3.0498184746     0.9703511083
   34      C      -4.6973363392     0.7873710365     0.6859368160
   35      C      -6.1577653734     0.6781070064     0.0976502781
   36      C      -6.1794886472    -0.8222227848    -0.3766280272
   37      C      -4.7360817184    -1.3029784386     0.0537696390
   38      O      -4.4702286085    -0.5414786418     1.2964335066
   39      H      -4.0406759693     1.4687116211    -1.3403646072
   40      H      -4.0229749493    -0.8094205873    -2.0204921259
   41      H      -0.6290574144     3.7128884429     0.1623340487
   42      H      -4.5356378141     1.5954593257     1.4251955562
   43      H      -6.9031622333     0.8622949701     0.8876038740
   44      H      -6.3315528515     1.3905592606    -0.7244344324
   45      H      -6.9520080566    -1.4022886731     0.1527252364
   46      H      -6.3432570617    -0.9233270902    -1.4613786861
   47      H      -4.6358096453    -2.3899009839     0.2374604863
   48      H      -0.2571098976     2.2348537609     1.1314620985
   49      H      -1.1302169961     3.6423364466     1.8944335316
   50      H       0.5369918623     0.8141505943    -2.5953355125
   51      H       0.1470481158    -0.8721767556    -2.0757357353
   52      H       1.3775048221    -0.5859736242    -3.3711461234
   53      H      -0.3158211182    -0.1479589699     1.0780271065
   54      H      -0.1758141347    -1.1760775412     2.5696895044
   55      H      -0.1708491309    -2.4324114088    -0.2851681836
   56      H      -0.6919818999    -3.2117503121     1.2704691549
 ----------------------------------------------------------------

    9   -1510.2982444878      6.90E-09 Convergence criterion met
 Total energy in the final basis set = -1510.29824449
 Final energy is   -1510.29824448782
 **  OPTIMIZATION CONVERGED  **

                    Orbital Energies (a.u.)
 --------------------------------------------------------------

 Alpha MOs
 -- Occupied --
-18.947 -18.928 -18.927 -18.918 -18.890 -18.888 -18.883 -18.875
-18.871 -18.859 -10.112 -10.101 -10.100 -10.085 -10.063 -10.062
-10.062 -10.056 -10.054 -10.054 -10.053 -10.044 -10.039 -10.033
-10.033 -10.030 -10.023 -10.021 -10.017 -10.016  -1.023  -1.010
 -1.005  -0.994  -0.972  -0.965  -0.946  -0.936  -0.931  -0.920
 -0.766  -0.759  -0.727  -0.721  -0.712  -0.702  -0.690  -0.661
 -0.641  -0.610  -0.595  -0.576  -0.548  -0.541  -0.539  -0.533
 -0.516  -0.504  -0.485  -0.472  -0.465  -0.460  -0.449  -0.438
 -0.435  -0.431  -0.425  -0.416  -0.406  -0.402  -0.398  -0.396
 -0.392  -0.380  -0.371  -0.364  -0.356  -0.354  -0.352  -0.342
 -0.342  -0.334  -0.333  -0.326  -0.325  -0.322  -0.317  -0.316
 -0.307  -0.305  -0.301  -0.299  -0.287  -0.285  -0.283  -0.282
 -0.265  -0.263  -0.244  -0.239  -0.236  -0.233  -0.229  -0.189
 -0.177  -0.167  -0.164  -0.160  -0.153  -0.151  -0.146  -0.138
 -0.137

          Ground-State Mulliken Net Atomic Charges

     Atom                 Charge (a.u.)
  ----------------------------------------
      1 O                    -0.213106
      2 C                     0.218704
      3 C                    -0.078050
      4 C                    -0.080278
      5 C                     0.220325
      6 O                    -0.172739
      7 C                    -0.053013
      8 C                    -0.061593
      9 O                    -0.175871
     10 C                     0.223843
     11 C                    -0.078043
     12 C                    -0.077939
     13 C                     0.208373
     14 O                    -0.216705
     15 O                    -0.166577
     16 O                    -0.170164
     17 O                    -0.217216
     18 C                    -0.138825
     19 C                     0.024748
     20 C                    -0.143559
     21 C                    -0.144438
     22 C                     0.025697
     23 O                    -0.185783
     24 H                     0.083594
     25 H                     0.083770
     26 H                     0.087970
     27 H                     0.077119
     28 H                     0.072290
     29 H                     0.077083
     30 H                     0.073353
     31 H                     0.082016
     32 O                    -0.219439
     33 C                    -0.141462
     34 C                     0.024406
     35 C                    -0.143656
     36 C                    -0.144430
     37 C                     0.026813
     38 O                    -0.186913
     39 H                     0.087267
     40 H                     0.084803
     41 H                     0.085305
     42 H                     0.089989
     43 H                     0.078756
     44 H                     0.073794
     45 H                     0.078433
     46 H                     0.073932
     47 H                     0.086797
     48 H                     0.120234
     49 H                     0.088067
     50 H                     0.084720
     51 H                     0.108701
     52 H                     0.079719
     53 H                     0.109589
     54 H                     0.078807
     55 H                     0.104887
     56 H                     0.085893
  ----------------------------------------
  Sum of atomic charges =     0.000000

                    Cartesian Multipole Moments
 -----------------------------------------------------------------
    Charge (ESU x 10^10)
                 0.0000
    Dipole Moment (Debye)
         X      -1.1334      Y       1.1102      Z       0.9941
       Tot       1.8723
    Quadrupole Moments (Debye-Ang)
        XX    -136.6870     XY      -2.2289     YY    -162.4351
        XZ      10.3895     YZ      -3.0216     ZZ    -160.1360

 Total job time:  167.00s(wall), 7975.45s(cpu)
        *  Thank you very much for using Q-Chem.  Have a nice day.  *
