 Q-Chem 5.0, Q-Chem, Inc., Pleasanton, CA (2017)
 Q-Chem 5.0.1 for Intel X86 EM64T Linux

User input:
--------------------------------------------------------------
$molecule
0  1
O -3.94934 -3.66094 2.70899
C -3.26408 -4.56952 2.26188
C -3.36658 -6.02376 2.66595
C -4.242 -6.35399 3.88597
C -5.05867 -5.21639 4.4578
O -6.38949 -5.46223 4.27365
C -7.2312 -4.43601 4.80997
C -7.7404 -3.53497 3.68971
O -8.34198 -2.35522 4.24574
C -8.04146 -1.19392 3.61312
C -8.53817 0.02502 4.35347
C -7.78991 0.34022 5.65694
C -6.46279 -0.36704 5.84462
O -6.20479 -1.16588 6.73336
O -2.40017 -4.29679 1.24909
O -5.50983 -0.12195 4.90389
O -7.50351 -1.1268 2.51399
C -4.24527 -0.66962 4.90562
C -8.35178 1.37281 3.61421
C -9.37139 2.38592 4.13562
C -8.82721 2.64687 5.52705
C -7.52372 1.84191 5.46622
O -7.14715 1.90288 4.11105
H -9.63119 -0.12506 4.50653
H -8.41255 0.10221 6.54772
H -8.43254 1.28917 2.50873
H -9.24379 3.30986 3.52661
H -10.43588 2.06979 4.09438
H -8.62244 3.73594 5.62546
H -9.4741 2.30137 6.36249
H -6.78183 2.23052 6.19848
O -4.572 -4.30075 5.11133
C -2.20275 -3.04085 0.71447
C -4.00475 -6.9005 1.57646
C -3.52541 -8.34073 1.73049
C -4.2567 -8.7444 2.99203
C -5.09598 -7.48444 3.24485
O -5.35615 -6.98719 1.95487
H -2.31746 -6.34451 2.85823
H -3.65561 -6.76673 4.73672
H -1.83316 -2.34526 1.49812
H -3.80732 -6.53683 0.54425
H -3.94439 -8.91882 0.8757
H -2.42236 -8.47305 1.75785
H -4.91398 -9.60977 2.75191
H -3.60816 -8.99066 3.86038
H -5.98211 -7.76419 3.85527
H -3.15193 -2.65363 0.286
H -1.44562 -3.10429 -0.09373
H -3.68498 -0.29351 4.02529
H -4.30883 -1.7733 4.84027
H -3.7025 -0.37684 5.82952
H -6.85692 -3.29362 3.05528
H -8.47348 -4.09587 3.0718
H -6.72331 -3.78106 5.55236
H -8.08006 -4.89007 5.36323
$end

$opt
CONSTRAINT
tors           1           2           3           4     -10.120
tors           3           4           5           6    +113.448
tors           4           5           6           7    +179.051
tors           5           6           7           8    +102.203
tors           6           7           8           9    -167.829
tors           7           8           9          10    +137.724
tors           8           9          10          11    -171.809
tors           9          10          11          12     +70.671
tors          11          12          13          14    -117.006
ENDCONSTRAINT
$end

$rem
JOBTYPE                   OPT
METHOD                    B3LYP
DFT_D                     d3_op
BASIS                     STO-3G
GEOM_OPT_MAX_CYCLES       100
GEOM_OPT_TOL_GRADIENT     300
GEOM_OPT_TOL_DISPLACEMENT 1200
GEOM_OPT_TOL_ENERGY       100
SYMMETRY                  False
THRESH                    12
SCF_CONVERGENCE           8
MAX_SUB_FILE_NUM          128
MEM_STATIC                400
MEM_TOTAL                 4000
$end
--------------------------------------------------------------

   15   -1510.1572722301      7.07E-09 Convergence criterion met
 Total energy in the final basis set = -1510.15727223
   14   -1510.2267515196      3.11E-09 Convergence criterion met
 Total energy in the final basis set = -1510.22675152
   14   -1510.2642719129      9.87E-09 Convergence criterion met
 Total energy in the final basis set = -1510.26427191
   14   -1510.2798110021      9.08E-09 Convergence criterion met
 Total energy in the final basis set = -1510.27981100
   14   -1510.2834567388      9.94E-09 Convergence criterion met
 Total energy in the final basis set = -1510.28345674
    2   -1510.2834567387      6.38E-09 Convergence criterion met
 Total energy in the final basis set = -1510.28345674
   13   -1510.2861957741      8.27E-09 Convergence criterion met
 Total energy in the final basis set = -1510.28619577
   13   -1510.2887078291      4.71E-09 Convergence criterion met
   11   -1510.2934483774      8.22E-09 Convergence criterion met
 Total energy in the final basis set = -1510.29344838
   11   -1510.2935115190      4.41E-09 Convergence criterion met
 Total energy in the final basis set = -1510.29351152
   11   -1510.2935662113      4.08E-09 Convergence criterion met
 Total energy in the final basis set = -1510.29356621
   11   -1510.2935892181      2.87E-09 Convergence criterion met
 Total energy in the final basis set = -1510.29358922
    9   -1510.2935960803      9.79E-09 Convergence criterion met
 Total energy in the final basis set = -1510.29359608
    9   -1510.2935980084      8.22E-09 Convergence criterion met
 Total energy in the final basis set = -1510.29359801

             Standard Nuclear Orientation (Angstroms)
    I     Atom           X                Y                Z
 ----------------------------------------------------------------
    1      O       1.6563073660    -0.8053442762     0.5627875295
    2      C       2.7104700942    -1.4288471705     0.2905374330
    3      C       3.9803052834    -0.8302227969    -0.4039024309
    4      C       3.6902852571     0.6222645007    -0.9672183542
    5      C       2.1531797081     0.9585432519    -0.9874377908
    6      O       1.8668019440     2.0047722998    -0.0566987252
    7      C       0.4216256965     2.3361490774    -0.0934973606
    8      C      -0.2547066342     1.6682429408     1.1574025464
    9      O      -1.7233096019     1.7378319930     0.9777242575
   10      C      -2.3526536282     0.5087291566     1.3643844116
   11      C      -3.8547586161     0.6309271001     0.9321474757
   12      C      -4.0272139881     0.5744266220    -0.6488248152
   13      C      -2.6723092540     0.3326239106    -1.4078792918
   14      O      -2.1043657997     1.1015650035    -2.2150853702
   15      O       2.9305335028    -2.7979919966     0.6071446874
   16      O      -2.1761970627    -0.9452261871    -1.0128861655
   17      O      -1.7761748389    -0.4421232985     1.9317051334
   18      C      -0.9390055160    -1.2923778289    -1.7514482430
   19      C      -4.7266253800    -0.6104436159     1.3839686357
   20      C      -6.2486302596    -0.2048981067     1.2700973846
   21      C      -6.4484806158    -0.2223319862    -0.2915506098
   22      C      -5.0123506167    -0.6670672693    -0.7811934529
   23      O      -4.5503346939    -1.5857889498     0.2831091940
   24      H      -4.2541108545     1.5807817995     1.3311043514
   25      H      -4.4755563616     1.5050939224    -1.0381302616
   26      H      -4.4162222019    -1.0577941666     2.3479467791
   27      H      -6.8851830097    -0.9549604062     1.7657866367
   28      H      -6.4525618061     0.7819962256     1.7151906005
   29      H      -7.2048863129    -0.9639737995    -0.5942436004
   30      H      -6.7376375890     0.7612275812    -0.6950882897
   31      H      -4.9864363600    -1.1716772098    -1.7664051883
   32      O       1.3419107592     0.5335618478    -1.8459672062
   33      C       1.7377727638    -3.3559871994     1.2924529836
   34      C       5.0760406076    -0.5016722045     0.7006651921
   35      C       6.4177779648    -0.0763821322    -0.0156491135
   36      C       6.0734928824     1.3907111584    -0.4686309462
   37      C       4.5728901772     1.5093647040     0.0073683061
   38      O       4.5650316549     0.7588664041     1.2863464463
   39      H       4.3517802762    -1.5300156817    -1.1734268017
   40      H       4.0475485342     0.7015499804    -2.0099274050
   41      H       0.8416508232    -3.3182744991     0.6399817859
   42      H       5.1821340922    -1.2826555061     1.4786567568
   43      H       7.2568964754    -0.0956363882     0.6977886419
   44      H       6.6610941501    -0.7372072821    -0.8633494821
   45      H       6.7011452738     2.1305056502     0.0532204913
   46      H       6.1798073160     1.5389216542    -1.5550069953
   47      H       4.1933872739     2.5374157177     0.1591899849
   48      H       1.5140667841    -2.8065738595     2.2292370496
   49      H       1.9860463062    -4.4077466868     1.5245935025
   50      H      -0.5661633276    -2.2202920119    -1.2808345904
   51      H      -0.1556930080    -0.4982580588    -1.6952017330
   52      H      -1.1643088380    -1.4928619679    -2.8188285424
   53      H       0.0781950868     0.6089606258     1.2353060185
   54      H       0.0354917056     2.2013433922     2.0879711215
   55      H      -0.0370123142     1.9413424546    -1.0275604701
   56      H       0.3316506450     3.4403700544    -0.0601719802
 ----------------------------------------------------------------

    8   -1510.2935985021      9.52E-09 Convergence criterion met
 Total energy in the final basis set = -1510.29359850
 Final energy is   -1510.29359850209
 **  OPTIMIZATION CONVERGED  **

                    Orbital Energies (a.u.)
 --------------------------------------------------------------

 Alpha MOs
 -- Occupied --
-18.950 -18.930 -18.921 -18.919 -18.892 -18.890 -18.881 -18.870
-18.866 -18.860 -10.112 -10.102 -10.092 -10.085 -10.070 -10.065
-10.060 -10.059 -10.054 -10.054 -10.052 -10.045 -10.039 -10.032
-10.030 -10.028 -10.024 -10.022 -10.015 -10.014  -1.025  -1.008
 -1.003  -0.994  -0.973  -0.962  -0.948  -0.933  -0.928  -0.921
 -0.767  -0.756  -0.727  -0.720  -0.713  -0.700  -0.688  -0.669
 -0.642  -0.611  -0.594  -0.574  -0.549  -0.540  -0.538  -0.530
 -0.516  -0.503  -0.485  -0.471  -0.465  -0.458  -0.455  -0.439
 -0.434  -0.427  -0.423  -0.418  -0.412  -0.405  -0.395  -0.394
 -0.390  -0.381  -0.370  -0.363  -0.358  -0.355  -0.352  -0.345
 -0.341  -0.337  -0.333  -0.328  -0.323  -0.319  -0.317  -0.315
 -0.307  -0.303  -0.301  -0.299  -0.287  -0.284  -0.281  -0.277
 -0.266  -0.265  -0.247  -0.239  -0.236  -0.230  -0.227  -0.191
 -0.179  -0.166  -0.161  -0.159  -0.152  -0.149  -0.145  -0.137
 -0.136

          Ground-State Mulliken Net Atomic Charges

     Atom                 Charge (a.u.)
  ----------------------------------------
      1 O                    -0.205988
      2 C                     0.218583
      3 C                    -0.077733
      4 C                    -0.080676
      5 C                     0.222882
      6 O                    -0.170805
      7 C                    -0.054116
      8 C                    -0.057515
      9 O                    -0.179543
     10 C                     0.212756
     11 C                    -0.077809
     12 C                    -0.078233
     13 C                     0.205095
     14 O                    -0.217081
     15 O                    -0.165280
     16 O                    -0.168767
     17 O                    -0.208294
     18 C                    -0.143991
     19 C                     0.024790
     20 C                    -0.143888
     21 C                    -0.144324
     22 C                     0.026303
     23 O                    -0.184681
     24 H                     0.083933
     25 H                     0.083061
     26 H                     0.087098
     27 H                     0.076722
     28 H                     0.072203
     29 H                     0.076588
     30 H                     0.072816
     31 H                     0.082086
     32 O                    -0.227952
     33 C                    -0.127965
     34 C                     0.024820
     35 C                    -0.144121
     36 C                    -0.143417
     37 C                     0.024328
     38 O                    -0.189580
     39 H                     0.088901
     40 H                     0.085650
     41 H                     0.094630
     42 H                     0.085178
     43 H                     0.079040
     44 H                     0.074488
     45 H                     0.078617
     46 H                     0.074005
     47 H                     0.092949
     48 H                     0.096238
     49 H                     0.093782
     50 H                     0.078539
     51 H                     0.114089
     52 H                     0.076966
     53 H                     0.110640
     54 H                     0.080584
     55 H                     0.107855
     56 H                     0.085547
  ----------------------------------------
  Sum of atomic charges =    -0.000000

                    Cartesian Multipole Moments
 -----------------------------------------------------------------
    Charge (ESU x 10^10)
                -0.0000
    Dipole Moment (Debye)
         X       1.5952      Y      -0.1585      Z       0.0709
       Tot       1.6046
    Quadrupole Moments (Debye-Ang)
        XX    -135.1531     XY      -6.3698     YY    -156.4408
        XZ      -5.8302     YZ       1.4419     ZZ    -162.6821

 Total job time:  58.23s(wall), 2773.93s(cpu)
        *  Thank you very much for using Q-Chem.  Have a nice day.  *
