 Q-Chem 5.0, Q-Chem, Inc., Pleasanton, CA (2017)
 Q-Chem 5.0.1 for Intel X86 EM64T Linux

User input:
--------------------------------------------------------------
$molecule
0  1
O -3.94934 -3.66094 2.70899
C -3.26408 -4.56952 2.26188
C -3.36658 -6.02376 2.66595
C -4.02525 -6.33186 4.0206
C -4.6674 -5.16583 4.73901
O -6.02046 -5.34343 4.79481
C -6.70069 -4.27971 5.46939
C -7.47337 -3.43003 4.46583
O -7.7472 -2.13691 5.02773
C -7.63285 -1.09245 4.1703
C -7.90917 0.23976 4.82567
C -6.84364 0.69986 5.83127
C -5.51916 -0.03434 5.77287
O -5.03628 -0.69835 6.67867
O -2.45259 -4.30906 1.20353
O -4.85149 0.01084 4.58746
O -7.4229 -1.20402 2.96791
C -3.63388 -0.59219 4.35381
C -7.91516 1.46016 3.87328
C -8.7526 2.58262 4.48692
C -7.85683 3.01212 5.63283
C -6.62329 2.1449 5.35569
O -6.6174 1.99668 3.95562
H -8.92321 0.16037 5.27957
H -7.21204 0.62307 6.87827
H -8.28619 1.22628 2.8519
H -8.78535 3.40474 3.73601
H -9.79173 2.31211 4.77296
H -7.62268 4.09271 5.50946
H -8.26263 2.82166 6.6501
H -5.71106 2.59737 5.80376
O -4.02486 -4.26062 5.25972
C -2.27562 -3.05756 0.65127
C -4.23392 -6.84807 1.70186
C -3.80868 -8.3124 1.75336
C -4.31877 -8.7029 3.12352
C -5.03537 -7.40941 3.53517
O -5.49793 -6.87716 2.31766
H -2.31863 -6.40173 2.66589
H -3.3146 -6.78286 4.74828
H -1.86298 -2.35948 1.41101
H -4.20654 -6.47379 0.65493
H -4.405 -8.85342 0.98388
H -2.72734 -8.49937 1.57814
H -5.04978 -9.53282 2.99959
H -3.53658 -8.99318 3.85783
H -5.81 -7.65693 4.2933
H -3.24295 -2.66691 0.26908
H -1.56065 -3.13035 -0.19368
H -3.32925 -0.40393 3.30391
H -3.71376 -1.68665 4.51298
H -2.86256 -0.17117 5.0333
H -6.80273 -3.34515 3.57997
H -8.40337 -3.94903 4.15047
H -6.02107 -3.58251 6.00761
H -7.37665 -4.67812 6.25489
$end

$opt
CONSTRAINT
tors           1           2           3           4     -20.867
tors           3           4           5           6    +113.448
tors           4           5           6           7    +179.680
tors           5           6           7           8    +108.021
tors           6           7           8           9    -159.473
tors           7           8           9          10    +140.595
tors           8           9          10          11    -178.992
tors           9          10          11          12     +69.756
tors          11          12          13          14    -117.954
ENDCONSTRAINT
$end

$rem
JOBTYPE                   OPT
METHOD                    B3LYP
DFT_D                     d3_op
BASIS                     STO-3G
GEOM_OPT_MAX_CYCLES       100
GEOM_OPT_TOL_GRADIENT     300
GEOM_OPT_TOL_DISPLACEMENT 1200
GEOM_OPT_TOL_ENERGY       100
SYMMETRY                  False
THRESH                    12
SCF_CONVERGENCE           8
MAX_SUB_FILE_NUM          128
MEM_STATIC                400
MEM_TOTAL                 4000
$end
--------------------------------------------------------------

   15   -1510.1575943599      7.04E-09 Convergence criterion met
 Total energy in the final basis set = -1510.15759436
   14   -1510.2268082973      2.18E-09 Convergence criterion met
 Total energy in the final basis set = -1510.22680830
   14   -1510.2639225011      9.36E-09 Convergence criterion met
 Total energy in the final basis set = -1510.26392250
   14   -1510.2790778960      8.17E-09 Convergence criterion met
 Total energy in the final basis set = -1510.27907790
   14   -1510.2844931035      9.92E-09 Convergence criterion met
 Total energy in the final basis set = -1510.28449310
   13   -1510.2865581684      5.53E-09 Convergence criterion met
 Total energy in the final basis set = -1510.28655817
   13   -1510.2888811887      3.64E-09 Convergence criterion met
 Total energy in the final basis set = -1510.28888119
   13   -1510.2905993009      3.29E-09 Convergence criterion met
    9   -1510.2929141298      6.01E-09 Convergence criterion met
 Total energy in the final basis set = -1510.29291413
    9   -1510.2929170513      8.79E-09 Convergence criterion met
 Total energy in the final basis set = -1510.29291705
   10   -1510.2929215095      7.99E-09 Convergence criterion met
 Total energy in the final basis set = -1510.29292151
    9   -1510.2929231523      9.25E-09 Convergence criterion met
 Total energy in the final basis set = -1510.29292315
    9   -1510.2929253702      6.78E-09 Convergence criterion met
 Total energy in the final basis set = -1510.29292537
    9   -1510.2929264068      2.92E-09 Convergence criterion met
 Total energy in the final basis set = -1510.29292641

             Standard Nuclear Orientation (Angstroms)
    I     Atom           X                Y                Z
 ----------------------------------------------------------------
    1      O       1.5715871925    -0.6671020654     0.6702665131
    2      C       2.5491308334    -1.3948491452     0.3760953936
    3      C       3.9048861481    -0.9114584766    -0.2402287444
    4      C       3.7508113341     0.4998602780    -0.9466540766
    5      C       2.2444234712     0.9101398873    -1.1232012240
    6      O       1.9424457253     2.0454867398    -0.3140285418
    7      C       0.5208928231     2.4336076251    -0.4901865754
    8      C      -0.2466497286     2.0460299699     0.8221239513
    9      O      -1.6920222062     1.9521144270     0.5044996768
   10      C      -2.2956302922     0.8483337039     1.1919113708
   11      C      -3.8066129328     0.8220831756     0.7703601204
   12      C      -4.0247254595     0.3921676101    -0.7441954578
   13      C      -2.6944891519     0.1063723406    -1.5257392495
   14      O      -2.2628545041     0.7127135184    -2.5310362688
   15      O       2.6112643246    -2.7955428063     0.6281356120
   16      O      -2.0433520501    -1.0045630553    -0.9093492525
   17      O      -1.6993868962     0.0895532183     1.9839924911
   18      C      -0.8472532196    -1.4032932478    -1.6895708817
   19      C      -4.5987812989    -0.3201497885     1.5282843562
   20      C      -6.1469984730    -0.0570205836     1.3575259117
   21      C      -6.3634985674    -0.4869700236    -0.1414384388
   22      C      -4.8997591404    -0.9216488577    -0.5489115240
   23      O      -4.3579448509    -1.5188600008     0.6915665496
   24      H      -4.2367666414     1.8225485478     0.9570949325
   25      H      -4.5755921532     1.1707873439    -1.3002369271
   26      H      -4.2512611026    -0.4992892176     2.5641624467
   27      H      -6.7238640973    -0.6935292367     2.0472097586
   28      H      -6.4150200168     0.9958425386     1.5406224118
   29      H      -7.0543881777    -1.3412903949    -0.2212905956
   30      H      -6.7428544291     0.3343625030    -0.7701106454
   31      H      -4.8378088856    -1.6435955488    -1.3860241828
   32      O       1.4567989612     0.4107221142    -1.9633073424
   33      C       1.3711299180    -3.2447331468     1.3082091665
   34      C       4.9119286398    -0.5367008963     0.9338447029
   35      C       6.3356244559    -0.2526047138     0.3093131435
   36      C       6.1244235089     1.1844843660    -0.2966783292
   37      C       4.5979157485     1.4245860026     0.0239184211
   38      O       4.4289594861     0.7970326236     1.3559598662
   39      H       4.3128484131    -1.6888888719    -0.9096820442
   40      H       4.1963793931     0.4683414151    -1.9576003865
   41      H       0.4673134739    -2.9965442684     0.7162214927
   42      H       4.9018894373    -1.2449871871     1.7852594230
   43      H       7.1087268454    -0.2545167015     1.0941157335
   44      H       6.6055776477    -0.9994758574    -0.4544586783
   45      H       6.7465368434     1.9336159862     0.2184446813
   46      H       6.3373224766     1.2290064036    -1.3766771087
   47      H       4.2700597171     2.4810127242     0.0490464745
   48      H       1.2703037741    -2.7820557464     2.3110311142
   49      H       1.4617019848    -4.3415238979     1.4113765453
   50      H      -0.4593442806    -2.3105109112    -1.1922233141
   51      H      -0.0551659240    -0.6165360158    -1.7049902037
   52      H      -1.1200357935    -1.6503155160    -2.7354468809
   53      H       0.1241334403     1.0613289377     1.1873825144
   54      H      -0.0856733461     2.8062765024     1.6158512203
   55      H       0.0942792921     1.8835741975    -1.3577729630
   56      H       0.4878905956     3.5257362385    -0.6772747702
 ----------------------------------------------------------------

    8   -1510.2929265547      8.64E-09 Convergence criterion met
 Total energy in the final basis set = -1510.29292655
 Final energy is   -1510.29292655471
 **  OPTIMIZATION CONVERGED  **

                    Orbital Energies (a.u.)
 --------------------------------------------------------------

 Alpha MOs
 -- Occupied --
-18.945 -18.934 -18.922 -18.920 -18.891 -18.885 -18.881 -18.871
-18.870 -18.860 -10.107 -10.104 -10.092 -10.086 -10.066 -10.065
-10.062 -10.061 -10.056 -10.054 -10.052 -10.043 -10.040 -10.035
-10.031 -10.029 -10.024 -10.022 -10.016 -10.015  -1.021  -1.010
 -1.004  -0.995  -0.973  -0.963  -0.944  -0.936  -0.928  -0.921
 -0.767  -0.757  -0.727  -0.720  -0.713  -0.701  -0.690  -0.666
 -0.644  -0.611  -0.594  -0.575  -0.549  -0.540  -0.539  -0.531
 -0.516  -0.504  -0.484  -0.470  -0.464  -0.457  -0.453  -0.439
 -0.436  -0.429  -0.424  -0.415  -0.412  -0.406  -0.398  -0.396
 -0.391  -0.377  -0.368  -0.362  -0.359  -0.355  -0.352  -0.345
 -0.339  -0.338  -0.333  -0.328  -0.324  -0.323  -0.318  -0.314
 -0.306  -0.302  -0.301  -0.299  -0.287  -0.285  -0.280  -0.279
 -0.265  -0.262  -0.248  -0.238  -0.237  -0.234  -0.228  -0.187
 -0.180  -0.164  -0.163  -0.159  -0.154  -0.149  -0.146  -0.139
 -0.136

          Ground-State Mulliken Net Atomic Charges

     Atom                 Charge (a.u.)
  ----------------------------------------
      1 O                    -0.208329
      2 C                     0.215125
      3 C                    -0.078002
      4 C                    -0.079942
      5 C                     0.222368
      6 O                    -0.168274
      7 C                    -0.053858
      8 C                    -0.056889
      9 O                    -0.178580
     10 C                     0.213388
     11 C                    -0.077884
     12 C                    -0.078842
     13 C                     0.205701
     14 O                    -0.216184
     15 O                    -0.166749
     16 O                    -0.169746
     17 O                    -0.207538
     18 C                    -0.142239
     19 C                     0.024896
     20 C                    -0.144267
     21 C                    -0.144060
     22 C                     0.026274
     23 O                    -0.185428
     24 H                     0.084067
     25 H                     0.083085
     26 H                     0.087476
     27 H                     0.076904
     28 H                     0.072319
     29 H                     0.076667
     30 H                     0.072932
     31 H                     0.082098
     32 O                    -0.226178
     33 C                    -0.128712
     34 C                     0.025242
     35 C                    -0.144019
     36 C                    -0.143534
     37 C                     0.024781
     38 O                    -0.188368
     39 H                     0.088314
     40 H                     0.085657
     41 H                     0.095973
     42 H                     0.084434
     43 H                     0.078941
     44 H                     0.074521
     45 H                     0.078685
     46 H                     0.073883
     47 H                     0.092565
     48 H                     0.093824
     49 H                     0.092625
     50 H                     0.077334
     51 H                     0.110313
     52 H                     0.080033
     53 H                     0.112974
     54 H                     0.080875
     55 H                     0.107740
     56 H                     0.085610
  ----------------------------------------
  Sum of atomic charges =    -0.000000

                    Cartesian Multipole Moments
 -----------------------------------------------------------------
    Charge (ESU x 10^10)
                -0.0000
    Dipole Moment (Debye)
         X       1.4261      Y      -0.0601      Z      -0.0124
       Tot       1.4275
    Quadrupole Moments (Debye-Ang)
        XX    -134.1218     XY      -5.1600     YY    -154.6791
        XZ      -5.0740     YZ       1.4327     ZZ    -165.3918

 Total job time:  70.88s(wall), 3375.40s(cpu)
        *  Thank you very much for using Q-Chem.  Have a nice day.  *
