 Q-Chem 5.0, Q-Chem, Inc., Pleasanton, CA (2017)
 Q-Chem 5.0.1 for Intel X86 EM64T Linux

User input:
--------------------------------------------------------------
$molecule
0  1
O 1.5715871925 -0.6671020654 0.6702665131
C 2.5491308334 -1.3948491452 0.3760953936
C 3.9048861481 -0.9114584766 -0.2402287444
C 3.7508113341 0.499860278 -0.9466540766
C 2.2444234712 0.9101398873 -1.123201224
O 1.9424457253 2.0454867398 -0.3140285418
C 0.5208928231 2.4336076251 -0.4901865754
C -0.2466497286 2.0460299699 0.8221239513
O -1.6920222062 1.952114427 0.5044996768
C -2.2956302922 0.8483337039 1.1919113708
C -3.8066129328 0.8220831756 0.7703601204
C -4.0247254595 0.3921676101 -0.7441954578
C -2.6944891519 0.1063723406 -1.5257392495
O -2.2628545041 0.7127135184 -2.5310362688
O 2.6112643246 -2.7955428063 0.628135612
O -2.0433520501 -1.0045630553 -0.9093492525
O -1.6993868962 0.0895532183 1.9839924911
C -0.8472532196 -1.4032932478 -1.6895708817
C -4.5987812989 -0.3201497885 1.5282843562
C -6.146998473 -0.0570205836 1.3575259117
C -6.3634985674 -0.4869700236 -0.1414384388
C -4.8997591404 -0.9216488577 -0.548911524
O -4.3579448509 -1.5188600008 0.6915665496
H -4.2367666414 1.8225485478 0.9570949325
H -4.5755921532 1.1707873439 -1.3002369271
H -4.2512611026 -0.4992892176 2.5641624467
H -6.7238640973 -0.6935292367 2.0472097586
H -6.4150200168 0.9958425386 1.5406224118
H -7.0543881777 -1.3412903949 -0.2212905956
H -6.7428544291 0.334362503 -0.7701106454
H -4.8378088856 -1.6435955488 -1.3860241828
O 1.4567989612 0.4107221142 -1.9633073424
C 1.371129918 -3.2447331468 1.3082091665
C 4.9119286398 -0.5367008963 0.9338447029
C 6.3356244559 -0.2526047138 0.3093131435
C 6.1244235089 1.184484366 -0.2966783292
C 4.5979157485 1.4245860026 0.0239184211
O 4.4289594861 0.7970326236 1.3559598662
H 4.3128484131 -1.6888888719 -0.9096820442
H 4.1963793931 0.4683414151 -1.9576003865
H 0.4673134739 -2.9965442684 0.7162214927
H 4.9018894373 -1.2449871871 1.785259423
H 7.1087268454 -0.2545167015 1.0941157335
H 6.6055776477 -0.9994758574 -0.4544586783
H 6.7465368434 1.9336159862 0.2184446813
H 6.3373224766 1.2290064036 -1.3766771087
H 4.2700597171 2.4810127242 0.0490464745
H 1.2703037741 -2.7820557464 2.3110311142
H 1.4617019848 -4.3415238979 1.4113765453
H -0.4593442806 -2.3105109112 -1.1922233141
H -0.055165924 -0.6165360158 -1.7049902037
H -1.1200357935 -1.650315516 -2.7354468809
H 0.1241334403 1.0613289377 1.1873825144
H -0.0856733461 2.8062765024 1.6158512203
H 0.0942792921 1.8835741975 -1.357772963
H 0.4878905956 3.5257362385 -0.6772747702
$end

$rem
JOBTYPE                   OPT
METHOD                    B3LYP
DFT_D                     d3_op
BASIS                     STO-3G
GEOM_OPT_MAX_CYCLES       100
GEOM_OPT_TOL_GRADIENT     300
GEOM_OPT_TOL_DISPLACEMENT 1200
GEOM_OPT_TOL_ENERGY       100
SYMMETRY                  False
THRESH                    12
SCF_CONVERGENCE           8
MAX_SUB_FILE_NUM          128
MEM_STATIC                400
MEM_TOTAL                 4000
$end
--------------------------------------------------------------

   16   -1510.2930997077      6.94E-09 Convergence criterion met
 Total energy in the final basis set = -1510.29309971
   14   -1510.2810301544      5.32E-09 Convergence criterion met
 Total energy in the final basis set = -1510.28103015
   14   -1510.2844675489      4.24E-09 Convergence criterion met
 Total energy in the final basis set = -1510.28446755
   14   -1510.2875450329      4.23E-09 Convergence criterion met
 Total energy in the final basis set = -1510.28754503
   14   -1510.2833768088      6.26E-09 Convergence criterion met
 Total energy in the final basis set = -1510.28337681
   14   -1510.2863837938      5.69E-09 Convergence criterion met
 Total energy in the final basis set = -1510.28638379
   14   -1510.2922094804      3.60E-09 Convergence criterion met
 Total energy in the final basis set = -1510.29220948
   13   -1510.2936459337      7.17E-09 Convergence criterion met
   12   -1510.2979561366      5.27E-09 Convergence criterion met
 Total energy in the final basis set = -1510.29795614
   12   -1510.2978463481      7.64E-09 Convergence criterion met
 Total energy in the final basis set = -1510.29784635
   13   -1510.2980874811      2.20E-09 Convergence criterion met
 Total energy in the final basis set = -1510.29808748
   12   -1510.2980787965      7.67E-09 Convergence criterion met
 Total energy in the final basis set = -1510.29807880
   11   -1510.2980985563      8.50E-09 Convergence criterion met
 Total energy in the final basis set = -1510.29809856
   10   -1510.2981023174      7.22E-09 Convergence criterion met
 Total energy in the final basis set = -1510.29810232

             Standard Nuclear Orientation (Angstroms)
    I     Atom           X                Y                Z
 ----------------------------------------------------------------
    1      O      -1.1793281932     0.8937599643    -0.3686254901
    2      C      -2.2601644856     1.3848212707     0.0398799996
    3      C      -3.6923859341     0.9297747160    -0.4084996261
    4      C      -3.7168442055    -0.5387030207    -1.0179123822
    5      C      -2.3227970083    -1.2671985236    -0.9888093177
    6      O      -2.1014526498    -1.7741908265     0.3315288039
    7      C      -0.7008696961    -2.2428036187     0.4940175185
    8      C       0.0417768132    -1.1207410698     1.2969258304
    9      O       1.5071247418    -1.2560292738     1.1247481242
   10      C       2.1235467550     0.0340828199     1.1999067111
   11      C       3.6611726685    -0.1719845653     0.9814388636
   12      C       4.0119786412    -0.9039349893    -0.3807765186
   13      C       2.7744182509    -1.1383828582    -1.3174618723
   14      O       2.4719714943    -2.1910497390    -1.9206910419
   15      O      -2.3478377183     2.4419223621     0.9813180337
   16      O       2.0635567748     0.0958171431    -1.4280908114
   17      O       1.5216384157     1.1036979015     1.4434971298
   18      C       0.9808327490    -0.0048105518    -2.4358360593
   19      C       4.4358293935     1.1996186726     0.8124531032
   20      C       5.9660248659     0.9299960183     1.0874212124
   21      C       6.3652146268     0.1348251698    -0.2113247532
   22      C       5.0067849689     0.1597162073    -1.0209730330
   23      O       4.3950735844     1.4543163574    -0.6465810354
   24      H       4.0530472705    -0.7487747652     1.8392837652
   25      H       4.5011007759    -1.8785891372    -0.2094991155
   26      H       3.9810433654     2.0440953569     1.3659650234
   27      H       6.5165082361     1.8813530593     1.1626065127
   28      H       6.1307418914     0.3513156042     2.0105959955
   29      H       7.1598348454     0.6498756694    -0.7741603785
   30      H       6.6964088711    -0.8933864550     0.0054265071
   31      H       5.1135226413     0.0844138500    -2.1206151161
   32      O      -1.5697354870    -1.4784530385    -1.9683608357
   33      C      -0.9932889906     2.9278780944     1.3612924879
   34      C      -4.7133995289     0.7815117636     0.7988742947
   35      C      -6.1754937210     0.7557181121     0.2054450665
   36      C      -6.2173399167    -0.6839934752    -0.4288543542
   37      C      -4.7797565318    -1.2270321666    -0.0575383937
   38      O      -4.5026622581    -0.6091035467     1.2603812331
   39      H      -4.0620089513     1.6657565168    -1.1471691077
   40      H      -4.0583266654    -0.5211952110    -2.0680016787
   41      H      -0.6525570697     3.6936308228     0.6350054295
   42      H      -4.5410115412     1.5004639772     1.6228643284
   43      H      -6.9191244620     0.8639715826     1.0109600838
   44      H      -6.3384041065     1.5543111711    -0.5357346203
   45      H      -6.9962280017    -1.3087441290     0.0362338151
   46      H      -6.3835837649    -0.6644200675    -1.5177673177
   47      H      -4.6936532510    -2.3287603592     0.0059923048
   48      H      -0.2339975718     2.1132268660     1.4001454657
   49      H      -1.1062936086     3.3965775009     2.3559843424
   50      H       0.5782960939     1.0193711200    -2.5364955708
   51      H       0.1553153262    -0.6872532194    -2.1264350067
   52      H       1.3793847960    -0.3445570528    -3.4130249070
   53      H      -0.2907430216    -0.1430269749     0.8784926326
   54      H      -0.2233452546    -1.1698165606     2.3747133400
   55      H      -0.2289648196    -2.3878203892    -0.5016834596
   56      H      -0.7283957839    -3.2053352459     1.0427793706
 ----------------------------------------------------------------

   10   -1510.2981028420      4.95E-09 Convergence criterion met
 Total energy in the final basis set = -1510.29810284
 Final energy is   -1510.29810284205
 **  OPTIMIZATION CONVERGED  **

                    Orbital Energies (a.u.)
 --------------------------------------------------------------

 Alpha MOs
 -- Occupied --
-18.948 -18.928 -18.928 -18.918 -18.890 -18.888 -18.883 -18.875
-18.874 -18.859 -10.112 -10.101 -10.100 -10.086 -10.063 -10.062
-10.062 -10.055 -10.054 -10.054 -10.053 -10.045 -10.039 -10.033
-10.033 -10.030 -10.023 -10.022 -10.017 -10.016  -1.023  -1.010
 -1.006  -0.994  -0.972  -0.965  -0.946  -0.937  -0.932  -0.920
 -0.766  -0.759  -0.727  -0.720  -0.713  -0.702  -0.691  -0.661
 -0.641  -0.611  -0.595  -0.576  -0.548  -0.541  -0.539  -0.533
 -0.516  -0.504  -0.485  -0.472  -0.466  -0.461  -0.449  -0.438
 -0.436  -0.431  -0.425  -0.417  -0.406  -0.402  -0.398  -0.396
 -0.393  -0.381  -0.371  -0.365  -0.356  -0.354  -0.352  -0.344
 -0.342  -0.335  -0.333  -0.326  -0.325  -0.323  -0.317  -0.315
 -0.307  -0.304  -0.301  -0.299  -0.287  -0.285  -0.283  -0.282
 -0.266  -0.264  -0.245  -0.240  -0.236  -0.234  -0.229  -0.189
 -0.177  -0.167  -0.165  -0.160  -0.153  -0.151  -0.146  -0.138
 -0.137

          Ground-State Mulliken Net Atomic Charges

     Atom                 Charge (a.u.)
  ----------------------------------------
      1 O                    -0.214539
      2 C                     0.218861
      3 C                    -0.077863
      4 C                    -0.079833
      5 C                     0.218815
      6 O                    -0.172296
      7 C                    -0.053105
      8 C                    -0.063545
      9 O                    -0.175786
     10 C                     0.223420
     11 C                    -0.078188
     12 C                    -0.078020
     13 C                     0.208800
     14 O                    -0.217062
     15 O                    -0.165951
     16 O                    -0.170548
     17 O                    -0.217363
     18 C                    -0.138139
     19 C                     0.024684
     20 C                    -0.143547
     21 C                    -0.144381
     22 C                     0.025642
     23 O                    -0.185752
     24 H                     0.083522
     25 H                     0.083699
     26 H                     0.088190
     27 H                     0.077127
     28 H                     0.072215
     29 H                     0.077104
     30 H                     0.073336
     31 H                     0.082111
     32 O                    -0.217016
     33 C                    -0.140789
     34 C                     0.024073
     35 C                    -0.143651
     36 C                    -0.144432
     37 C                     0.026678
     38 O                    -0.186586
     39 H                     0.087089
     40 H                     0.084957
     41 H                     0.085438
     42 H                     0.090818
     43 H                     0.078753
     44 H                     0.073609
     45 H                     0.078528
     46 H                     0.073942
     47 H                     0.086465
     48 H                     0.119280
     49 H                     0.088463
     50 H                     0.086267
     51 H                     0.107287
     52 H                     0.080100
     53 H                     0.109629
     54 H                     0.078361
     55 H                     0.104344
     56 H                     0.086787
  ----------------------------------------
  Sum of atomic charges =     0.000000

                    Cartesian Multipole Moments
 -----------------------------------------------------------------
    Charge (ESU x 10^10)
                 0.0000
    Dipole Moment (Debye)
         X      -1.1841      Y       1.0118      Z       1.1127
       Tot       1.9141
    Quadrupole Moments (Debye-Ang)
        XX    -136.5807     XY      -3.9524     YY    -161.8391
        XZ      10.1328     YZ      -2.9014     ZZ    -160.8246

 Total job time:  139.23s(wall), 6645.83s(cpu)
        *  Thank you very much for using Q-Chem.  Have a nice day.  *
