 Q-Chem 5.0, Q-Chem, Inc., Pleasanton, CA (2017)
 Q-Chem 5.0.1 for Intel X86 EM64T Linux

User input:
--------------------------------------------------------------
$molecule
0  1
O 1.6335256192 -0.7356954881 0.6740732552
C 2.6592350955 -1.41325329 0.4272445448
C 3.9561598171 -0.9009730144 -0.2849553171
C 3.7217910618 0.503140904 -0.9798453858
C 2.1996193702 0.8893443974 -1.0702676122
O 1.9282620772 2.0132121534 -0.230651538
C 0.4977723729 2.3921729649 -0.3329674757
C -0.2443869532 1.852122349 0.9402398541
O -1.7033239882 1.9847152048 0.7101962057
C -2.4036942664 0.8311320512 1.1972560037
C -3.8682267363 0.9084752447 0.6382457178
C -4.0212306023 0.3483191604 -0.8425615741
C -2.6874557822 -0.0771391935 -1.5479426409
O -2.2824943995 0.3076976747 -2.6677923422
O 2.8409615237 -2.7680567692 0.8260723926
O -2.0167057322 -1.0343637619 -0.7319162317
O -1.9071794409 -0.0336342679 1.9483579599
C -0.7886733896 -1.5216851699 -1.4048360673
C -4.8185631886 -0.0834535402 1.4304759148
C -6.320397569 0.2696838623 1.0921572903
C -6.4518218017 -0.3204158276 -0.3614625518
C -4.9942651384 -0.8862761225 -0.5907861855
O -4.6004931973 -1.379149561 0.746314295
H -4.2103412265 1.9574009476 0.6945301918
H -4.4994363604 1.1020331212 -1.4927471588
H -4.5802084259 -0.1746734468 2.5077272314
H -7.0029520056 -0.2324035768 1.7959815975
H -6.5099015857 1.3543590412 1.1296383201
H -7.1915584291 -1.1360028884 -0.4013746543
H -6.7251115306 0.4419316279 -1.1085370922
H -4.9150586737 -1.6962370751 -1.3416984003
O 1.3818836015 0.4089800841 -1.8926683511
C 1.6514846556 -3.2463867955 1.5727517557
C 5.0340163191 -0.5045170954 0.8164061237
C 6.4049538951 -0.1884460673 0.0977537861
C 6.1189631546 1.2412908997 -0.4938127359
C 4.6124122931 1.4479970574 -0.068533681
O 4.5507892949 0.8183625645 1.2719029242
H 4.3312814847 -1.6716545894 -0.9813402538
H 4.1029539089 0.4783460018 -2.0172001322
H 0.7511210831 -3.276418383 0.9259956967
H 5.0958495025 -1.2143264021 1.6642021697
H 7.228595029 -0.1700803218 0.8289557306
H 6.6409584872 -0.9307327262 -0.6815671651
H 6.7577126358 2.0060136566 -0.0239035454
H 6.2553907363 1.2882530041 -1.5859051721
H 4.2639494069 2.4970031149 -0.0209675739
H 1.4337041163 -2.6021839808 2.4485352742
H 1.8974510507 -4.2694794866 1.9113604383
H -0.3544478637 -2.2673598656 -0.7151603413
H -0.0477092795 -0.7056044318 -1.5858629239
H -1.0308082651 -2.0096912155 -2.3704985824
H 0.0324450114 0.7872801281 1.1069888643
H 0.0527728383 2.4366566558 1.8374034397
H 0.0596376634 1.9369541708 -1.2479969822
H 0.448557563 3.4979401793 -0.3926779959
$end

$rem
JOBTYPE                   OPT
METHOD                    B3LYP
DFT_D                     d3_op
BASIS                     STO-3G
GEOM_OPT_MAX_CYCLES       100
GEOM_OPT_TOL_GRADIENT     300
GEOM_OPT_TOL_DISPLACEMENT 1200
GEOM_OPT_TOL_ENERGY       100
SYMMETRY                  False
THRESH                    12
SCF_CONVERGENCE           8
MAX_SUB_FILE_NUM          128
MEM_STATIC                400
MEM_TOTAL                 4000
$end
--------------------------------------------------------------

   16   -1510.2921685021      6.73E-09 Convergence criterion met
 Total energy in the final basis set = -1510.29216850
   14   -1510.2866999527      6.12E-09 Convergence criterion met
 Total energy in the final basis set = -1510.28669995
   14   -1510.2807927601      4.31E-09 Convergence criterion met
 Total energy in the final basis set = -1510.28079276
   14   -1510.2849259339      5.83E-09 Convergence criterion met
 Total energy in the final basis set = -1510.28492593
   14   -1510.2889378604      4.52E-09 Convergence criterion met
 Total energy in the final basis set = -1510.28893786
   14   -1510.2901176089      3.73E-09 Convergence criterion met
 Total energy in the final basis set = -1510.29011761
   13   -1510.2929500624      8.82E-09 Convergence criterion met
 Total energy in the final basis set = -1510.29295006
   13   -1510.2938703950      8.12E-09 Convergence criterion met
   13   -1510.2972425263      2.20E-09 Convergence criterion met
 Total energy in the final basis set = -1510.29724253
   12   -1510.2972688774      2.93E-09 Convergence criterion met
 Total energy in the final basis set = -1510.29726888
   10   -1510.2972753525      8.72E-09 Convergence criterion met
 Total energy in the final basis set = -1510.29727535
   11   -1510.2972904407      9.69E-09 Convergence criterion met
 Total energy in the final basis set = -1510.29729044
   11   -1510.2972870673      6.20E-09 Convergence criterion met
 Total energy in the final basis set = -1510.29728707
    9   -1510.2972843456      7.62E-09 Convergence criterion met
 Total energy in the final basis set = -1510.29728435

             Standard Nuclear Orientation (Angstroms)
    I     Atom           X                Y                Z
 ----------------------------------------------------------------
    1      O      -1.3481312922     1.0581015971    -0.1644893498
    2      C      -2.4950542395     1.4415203318     0.1690836962
    3      C      -3.8492269767     0.8857618268    -0.3912015638
    4      C      -3.7090192557    -0.5658081950    -1.0191589657
    5      C      -2.2605840328    -1.1699757435    -0.9368059787
    6      O      -2.0373118675    -1.6595313517     0.3894816759
    7      C      -0.6312488834    -2.1083373828     0.5495732620
    8      C       0.1610516571    -0.9750418845     1.2892363460
    9      O       1.6048606903    -1.2132633826     1.0582491296
   10      C       2.3503821628    -0.0101498276     1.2829607813
   11      C       3.8447149592    -0.3280841295     0.9258894394
   12      C       4.0272449417    -0.8885125380    -0.5469313269
   13      C       2.6995507865    -0.9309936746    -1.3835931933
   14      O       2.2429461775    -1.8975493303    -2.0319449529
   15      O      -2.7374331819     2.4817254469     1.1077287054
   16      O       2.1035396254     0.3667413890    -1.3283923990
   17      O       1.8648078988     1.0561883705     1.7148148206
   18      C       0.9165726521     0.4386672321    -2.2131874339
   19      C       4.7386387298     0.9775509256     0.8776650655
   20      C       6.2540424366     0.5392143344     0.9492104665
   21      C       6.4630454823    -0.0554962796    -0.4937214407
   22      C       5.0393874762     0.1883824155    -1.1360513841
   23      O       4.5879062900     1.4543687582    -0.5169017190
   24      H       4.2267317185    -1.0547027564     1.6666693247
   25      H       4.4607706061    -1.9036566738    -0.5450111621
   26      H       4.4250915189     1.7642775576     1.5912998059
   27      H       6.9009154742     1.4138912246     1.1230266220
   28      H       6.4370512915    -0.2002637397     1.7450576157
   29      H       7.2373072716     0.4956952879    -1.0507617548
   30      H       6.7320615926    -1.1237609862    -0.4785659416
   31      H       5.0294037835     0.2717935761    -2.2401750996
   32      O      -1.4619053288    -1.3124997794    -1.8926072042
   33      C      -1.4471261934     3.0207230527     1.6085694293
   34      C      -4.9395895936     0.6292291609     0.7341913958
   35      C      -6.3449161192     0.4695298876     0.0305786819
   36      C      -6.2111474261    -0.9708099294    -0.5896237333
   37      C      -4.7534464228    -1.3681550043    -0.1281218995
   38      O      -4.6271688996    -0.7380802799     1.2061357667
   39      H      -4.2207021555     1.6062432379    -1.1441467348
   40      H      -3.9984020290    -0.5596896729    -2.0846736614
   41      H      -0.8815643876     3.5244854720     0.7986068736
   42      H      -4.9011111578     1.3529289145     1.5713850345
   43      H      -7.1551611574     0.5161186336     0.7755632907
   44      H      -6.5187720022     1.2475186225    -0.7297905562
   45      H      -6.9516032469    -1.6651247881    -0.1617267704
   46      H      -6.3156380514    -0.9751397952    -1.6864516662
   47      H      -4.5586758996    -2.4558188176    -0.0621369970
   48      H      -0.8076930382     2.2230160149     2.0384272366
   49      H      -1.7109113480     3.7554296276     2.3909810048
   50      H       0.4650473742     1.4290691040    -2.0231799227
   51      H       0.1618742554    -0.3538684517    -2.0002611487
   52      H       1.2167008507     0.3679879652    -3.2786371402
   53      H      -0.1562847629     0.0048965295     0.8602023778
   54      H      -0.0675034233    -0.9791877009     2.3769794475
   55      H      -0.1787225538    -2.2903269819    -0.4495253632
   56      H      -0.6487586295    -3.0487432891     1.1356941240
 ----------------------------------------------------------------

    9   -1510.2972844728      5.16E-09 Convergence criterion met
 Total energy in the final basis set = -1510.29728447
 Final energy is   -1510.29728447281
 **  OPTIMIZATION CONVERGED  **

                    Orbital Energies (a.u.)
 --------------------------------------------------------------

 Alpha MOs
 -- Occupied --
-18.953 -18.930 -18.922 -18.915 -18.893 -18.892 -18.880 -18.874
-18.867 -18.857 -10.116 -10.102 -10.093 -10.083 -10.070 -10.064
-10.063 -10.062 -10.053 -10.053 -10.051 -10.047 -10.040 -10.031
-10.030 -10.027 -10.024 -10.023 -10.015 -10.014  -1.028  -1.009
 -1.004  -0.991  -0.974  -0.962  -0.950  -0.936  -0.928  -0.918
 -0.768  -0.756  -0.728  -0.719  -0.713  -0.699  -0.690  -0.669
 -0.639  -0.612  -0.594  -0.575  -0.550  -0.541  -0.538  -0.530
 -0.519  -0.502  -0.487  -0.473  -0.465  -0.457  -0.451  -0.439
 -0.437  -0.428  -0.422  -0.418  -0.412  -0.403  -0.397  -0.395
 -0.392  -0.383  -0.367  -0.362  -0.361  -0.353  -0.351  -0.345
 -0.341  -0.335  -0.334  -0.327  -0.325  -0.321  -0.317  -0.315
 -0.309  -0.303  -0.300  -0.298  -0.289  -0.285  -0.281  -0.278
 -0.267  -0.264  -0.247  -0.241  -0.238  -0.232  -0.227  -0.192
 -0.176  -0.168  -0.165  -0.159  -0.152  -0.148  -0.147  -0.136
 -0.134

          Ground-State Mulliken Net Atomic Charges

     Atom                 Charge (a.u.)
  ----------------------------------------
      1 O                    -0.212359
      2 C                     0.219388
      3 C                    -0.077726
      4 C                    -0.080227
      5 C                     0.218545
      6 O                    -0.171669
      7 C                    -0.053796
      8 C                    -0.061065
      9 O                    -0.178670
     10 C                     0.217705
     11 C                    -0.078365
     12 C                    -0.078565
     13 C                     0.209678
     14 O                    -0.217404
     15 O                    -0.164265
     16 O                    -0.171914
     17 O                    -0.216114
     18 C                    -0.140032
     19 C                     0.024438
     20 C                    -0.143845
     21 C                    -0.144244
     22 C                     0.025745
     23 O                    -0.186118
     24 H                     0.082511
     25 H                     0.082738
     26 H                     0.087905
     27 H                     0.076651
     28 H                     0.071958
     29 H                     0.076621
     30 H                     0.073009
     31 H                     0.081642
     32 O                    -0.216252
     33 C                    -0.129051
     34 C                     0.024373
     35 C                    -0.143768
     36 C                    -0.144259
     37 C                     0.026951
     38 O                    -0.186635
     39 H                     0.087688
     40 H                     0.085599
     41 H                     0.093742
     42 H                     0.090473
     43 H                     0.078980
     44 H                     0.073703
     45 H                     0.078842
     46 H                     0.074347
     47 H                     0.086787
     48 H                     0.102001
     49 H                     0.094096
     50 H                     0.085456
     51 H                     0.109046
     52 H                     0.077181
     53 H                     0.108806
     54 H                     0.077340
     55 H                     0.105912
     56 H                     0.086483
  ----------------------------------------
  Sum of atomic charges =     0.000000

                    Cartesian Multipole Moments
 -----------------------------------------------------------------
    Charge (ESU x 10^10)
                 0.0000
    Dipole Moment (Debye)
         X      -1.7784      Y       0.8036      Z       0.8714
       Tot       2.1373
    Quadrupole Moments (Debye-Ang)
        XX    -136.4829     XY      -6.6696     YY    -159.9839
        XZ       8.8323     YZ      -2.6307     ZZ    -161.0894

 Total job time:  99.36s(wall), 4739.87s(cpu)
        *  Thank you very much for using Q-Chem.  Have a nice day.  *
