 Q-Chem 5.0, Q-Chem, Inc., Pleasanton, CA (2017)
 Q-Chem 5.0.1 for Intel X86 EM64T Linux

User input:
--------------------------------------------------------------
$molecule
0  1
O -3.94934 -3.66094 2.70899
C -3.26408 -4.56952 2.26188
C -3.36658 -6.02376 2.66595
C -4.17805 -6.34585 3.9315
C -4.94402 -5.19837 4.55173
O -6.28667 -5.41557 4.42705
C -7.08157 -4.37857 5.01186
C -7.62337 -3.45552 3.92532
O -8.19153 -2.27874 4.52136
C -7.92929 -1.11434 3.87751
C -8.29325 0.10367 4.69277
C -7.23094 0.54183 5.7115
C -5.85104 -0.05664 5.52605
O -5.20991 -0.64032 6.38793
O -2.41997 -4.30081 1.23152
O -5.27881 0.09374 4.29995
O -7.6166 -1.05233 2.69407
C -4.01704 -0.35314 3.96896
C -8.41863 1.4119 3.87111
C -9.31781 2.40009 4.61468
C -8.42144 2.77813 5.77688
C -7.13708 2.04105 5.37999
O -7.16394 2.03641 3.97367
H -9.29486 -0.09075 5.13977
H -7.54249 0.34513 6.76108
H -8.80428 1.25356 2.84045
H -9.4328 3.28837 3.95238
H -10.32559 2.02537 4.89525
H -8.27305 3.88062 5.76175
H -8.77867 2.45283 6.77805
H -6.24752 2.51742 5.84886
O -4.40909 -4.27632 5.15881
C -2.23139 -3.04601 0.69072
C -4.0741 -6.88784 1.61054
C -3.60838 -8.33536 1.73601
C -4.27806 -8.73238 3.03357
C -5.08292 -7.46064 3.33452
O -5.40439 -6.95562 2.06121
H -2.31348 -6.35937 2.80385
H -3.55172 -6.77026 4.7473
H -1.84627 -2.34931 1.46598
H -3.92655 -6.52321 0.57035
H -4.07978 -8.90513 0.90325
H -2.50736 -8.48301 1.70515
H -4.96121 -9.58607 2.82602
H -3.58836 -8.99269 3.86532
H -5.93914 -7.72801 3.99145
H -3.18816 -2.65816 0.28005
H -1.49 -3.11176 -0.13174
H -3.8125 -0.1138 2.90533
H -3.95296 -1.45169 4.10977
H -3.25567 0.14863 4.60338
H -6.76291 -3.20151 3.26319
H -8.38415 -3.99834 3.32487
H -6.52816 -3.74367 5.73969
H -7.91464 -4.82394 5.5954
$end

$opt
CONSTRAINT
tors           1           2           3           4     -13.428
tors           3           4           5           6    +112.749
tors           4           5           6           7    +179.051
tors           5           6           7           8    +102.203
tors           6           7           8           9    -168.647
tors           7           8           9          10    +139.212
tors           8           9          10          11    -167.779
tors           9          10          11          12     +83.094
tors          11          12          13          14    -127.016
ENDCONSTRAINT
$end

$rem
JOBTYPE                   OPT
METHOD                    B3LYP
DFT_D                     d3_op
BASIS                     STO-3G
GEOM_OPT_MAX_CYCLES       100
GEOM_OPT_TOL_GRADIENT     300
GEOM_OPT_TOL_DISPLACEMENT 1200
GEOM_OPT_TOL_ENERGY       100
SYMMETRY                  False
THRESH                    12
SCF_CONVERGENCE           8
MAX_SUB_FILE_NUM          128
MEM_STATIC                400
MEM_TOTAL                 4000
$end
--------------------------------------------------------------

   15   -1510.1537344223      7.09E-09 Convergence criterion met
 Total energy in the final basis set = -1510.15373442
   14   -1510.2231017679      4.01E-09 Convergence criterion met
 Total energy in the final basis set = -1510.22310177
   14   -1510.2601862059      9.33E-09 Convergence criterion met
 Total energy in the final basis set = -1510.26018621
   15   -1510.2744134087      1.54E-09 Convergence criterion met
 Total energy in the final basis set = -1510.27441341
   15   -1510.2816469939      2.22E-09 Convergence criterion met
 Total energy in the final basis set = -1510.28164699
   13   -1510.2847858986      2.70E-09 Convergence criterion met
 Total energy in the final basis set = -1510.28478590
    2   -1510.2847858987      3.93E-09 Convergence criterion met
 Total energy in the final basis set = -1510.28478590
   13   -1510.2874907084      3.74E-09 Convergence criterion met
   11   -1510.2919165939      9.15E-09 Convergence criterion met
 Total energy in the final basis set = -1510.29191659
   11   -1510.2919886479      4.72E-09 Convergence criterion met
 Total energy in the final basis set = -1510.29198865
   11   -1510.2920383893      6.50E-09 Convergence criterion met
 Total energy in the final basis set = -1510.29203839
   11   -1510.2920601587      4.19E-09 Convergence criterion met
 Total energy in the final basis set = -1510.29206016
   10   -1510.2920658762      7.17E-09 Convergence criterion met
 Total energy in the final basis set = -1510.29206588
    9   -1510.2920682744      6.68E-09 Convergence criterion met
 Total energy in the final basis set = -1510.29206827

             Standard Nuclear Orientation (Angstroms)
    I     Atom           X                Y                Z
 ----------------------------------------------------------------
    1      O       1.6335256192    -0.7356954881     0.6740732552
    2      C       2.6592350955    -1.4132532900     0.4272445448
    3      C       3.9561598171    -0.9009730144    -0.2849553171
    4      C       3.7217910618     0.5031409040    -0.9798453858
    5      C       2.1996193702     0.8893443974    -1.0702676122
    6      O       1.9282620772     2.0132121534    -0.2306515380
    7      C       0.4977723729     2.3921729649    -0.3329674757
    8      C      -0.2443869532     1.8521223490     0.9402398541
    9      O      -1.7033239882     1.9847152048     0.7101962057
   10      C      -2.4036942664     0.8311320512     1.1972560037
   11      C      -3.8682267363     0.9084752447     0.6382457178
   12      C      -4.0212306023     0.3483191604    -0.8425615741
   13      C      -2.6874557822    -0.0771391935    -1.5479426409
   14      O      -2.2824943995     0.3076976747    -2.6677923422
   15      O       2.8409615237    -2.7680567692     0.8260723926
   16      O      -2.0167057322    -1.0343637619    -0.7319162317
   17      O      -1.9071794409    -0.0336342679     1.9483579599
   18      C      -0.7886733896    -1.5216851699    -1.4048360673
   19      C      -4.8185631886    -0.0834535402     1.4304759148
   20      C      -6.3203975690     0.2696838623     1.0921572903
   21      C      -6.4518218017    -0.3204158276    -0.3614625518
   22      C      -4.9942651384    -0.8862761225    -0.5907861855
   23      O      -4.6004931973    -1.3791495610     0.7463142950
   24      H      -4.2103412265     1.9574009476     0.6945301918
   25      H      -4.4994363604     1.1020331212    -1.4927471588
   26      H      -4.5802084259    -0.1746734468     2.5077272314
   27      H      -7.0029520056    -0.2324035768     1.7959815975
   28      H      -6.5099015857     1.3543590412     1.1296383201
   29      H      -7.1915584291    -1.1360028884    -0.4013746543
   30      H      -6.7251115306     0.4419316279    -1.1085370922
   31      H      -4.9150586737    -1.6962370751    -1.3416984003
   32      O       1.3818836015     0.4089800841    -1.8926683511
   33      C       1.6514846556    -3.2463867955     1.5727517557
   34      C       5.0340163191    -0.5045170954     0.8164061237
   35      C       6.4049538951    -0.1884460673     0.0977537861
   36      C       6.1189631546     1.2412908997    -0.4938127359
   37      C       4.6124122931     1.4479970574    -0.0685336810
   38      O       4.5507892949     0.8183625645     1.2719029242
   39      H       4.3312814847    -1.6716545894    -0.9813402538
   40      H       4.1029539089     0.4783460018    -2.0172001322
   41      H       0.7511210831    -3.2764183830     0.9259956967
   42      H       5.0958495025    -1.2143264021     1.6642021697
   43      H       7.2285950290    -0.1700803218     0.8289557306
   44      H       6.6409584872    -0.9307327262    -0.6815671651
   45      H       6.7577126358     2.0060136566    -0.0239035454
   46      H       6.2553907363     1.2882530041    -1.5859051721
   47      H       4.2639494069     2.4970031149    -0.0209675739
   48      H       1.4337041163    -2.6021839808     2.4485352742
   49      H       1.8974510507    -4.2694794866     1.9113604383
   50      H      -0.3544478637    -2.2673598656    -0.7151603413
   51      H      -0.0477092795    -0.7056044318    -1.5858629239
   52      H      -1.0308082651    -2.0096912155    -2.3704985824
   53      H       0.0324450114     0.7872801281     1.1069888643
   54      H       0.0527728383     2.4366566558     1.8374034397
   55      H       0.0596376634     1.9369541708    -1.2479969822
   56      H       0.4485575630     3.4979401793    -0.3926779959
 ----------------------------------------------------------------

    9   -1510.2920688146      1.59E-09 Convergence criterion met
 Total energy in the final basis set = -1510.29206881
 Final energy is   -1510.29206881461
 **  OPTIMIZATION CONVERGED  **

                    Orbital Energies (a.u.)
 --------------------------------------------------------------

 Alpha MOs
 -- Occupied --
-18.949 -18.933 -18.921 -18.919 -18.891 -18.891 -18.882 -18.870
-18.868 -18.860 -10.111 -10.104 -10.090 -10.086 -10.070 -10.066
-10.063 -10.061 -10.056 -10.054 -10.052 -10.045 -10.040 -10.035
-10.031 -10.029 -10.025 -10.023 -10.016 -10.014  -1.025  -1.010
 -1.002  -0.995  -0.974  -0.963  -0.948  -0.935  -0.926  -0.921
 -0.768  -0.756  -0.728  -0.720  -0.714  -0.701  -0.690  -0.669
 -0.644  -0.612  -0.595  -0.575  -0.550  -0.541  -0.538  -0.531
 -0.517  -0.504  -0.485  -0.471  -0.466  -0.457  -0.455  -0.439
 -0.435  -0.429  -0.424  -0.418  -0.413  -0.405  -0.397  -0.396
 -0.391  -0.380  -0.370  -0.363  -0.360  -0.356  -0.350  -0.346
 -0.340  -0.337  -0.334  -0.329  -0.324  -0.323  -0.318  -0.315
 -0.308  -0.304  -0.300  -0.299  -0.290  -0.286  -0.282  -0.276
 -0.265  -0.264  -0.248  -0.240  -0.237  -0.232  -0.228  -0.190
 -0.180  -0.166  -0.161  -0.159  -0.155  -0.147  -0.146  -0.139
 -0.136

          Ground-State Mulliken Net Atomic Charges

     Atom                 Charge (a.u.)
  ----------------------------------------
      1 O                    -0.207213
      2 C                     0.217158
      3 C                    -0.077775
      4 C                    -0.080406
      5 C                     0.222410
      6 O                    -0.169114
      7 C                    -0.052626
      8 C                    -0.056630
      9 O                    -0.180502
     10 C                     0.213956
     11 C                    -0.078242
     12 C                    -0.079499
     13 C                     0.203304
     14 O                    -0.216266
     15 O                    -0.166196
     16 O                    -0.168615
     17 O                    -0.206283
     18 C                    -0.142165
     19 C                     0.025642
     20 C                    -0.144648
     21 C                    -0.143581
     22 C                     0.026272
     23 O                    -0.184983
     24 H                     0.084218
     25 H                     0.083030
     26 H                     0.086084
     27 H                     0.076904
     28 H                     0.072541
     29 H                     0.076745
     30 H                     0.073192
     31 H                     0.082140
     32 O                    -0.226456
     33 C                    -0.127954
     34 C                     0.025102
     35 C                    -0.144090
     36 C                    -0.143511
     37 C                     0.024685
     38 O                    -0.189069
     39 H                     0.088838
     40 H                     0.085716
     41 H                     0.092108
     42 H                     0.085209
     43 H                     0.079176
     44 H                     0.074609
     45 H                     0.078774
     46 H                     0.074047
     47 H                     0.092740
     48 H                     0.096595
     49 H                     0.093836
     50 H                     0.078085
     51 H                     0.111338
     52 H                     0.079630
     53 H                     0.110949
     54 H                     0.081234
     55 H                     0.103393
     56 H                     0.086166
  ----------------------------------------
  Sum of atomic charges =     0.000000

                    Cartesian Multipole Moments
 -----------------------------------------------------------------
    Charge (ESU x 10^10)
                -0.0000
    Dipole Moment (Debye)
         X       1.7861      Y      -0.0058      Z      -0.0887
       Tot       1.7883
    Quadrupole Moments (Debye-Ang)
        XX    -135.1243     XY      -6.8327     YY    -154.0744
        XZ      -4.2057     YZ       0.4709     ZZ    -166.1470

 Total job time:  61.01s(wall), 2906.72s(cpu)
        *  Thank you very much for using Q-Chem.  Have a nice day.  *
