 Q-Chem 5.0, Q-Chem, Inc., Pleasanton, CA (2017)
 Q-Chem 5.0.1 for Intel X86 EM64T Linux

User input:
--------------------------------------------------------------
$molecule
0  1
O -3.94934 -3.66094 2.70899
C -3.26408 -4.56952 2.26188
C -3.36658 -6.02376 2.66595
C -3.97693 -6.32884 4.04372
C -4.57924 -5.15824 4.7887
O -5.93103 -5.32188 4.89506
C -6.56818 -4.27642 5.63689
C -7.1294 -3.22413 4.68617
O -7.72484 -2.15416 5.43683
C -7.46995 -0.90507 4.97429
C -8.10632 0.17528 5.81602
C -7.41987 0.43325 7.16529
C -6.02916 -0.14845 7.32103
O -5.70474 -1.00176 8.13415
O -2.45714 -4.31166 1.19929
O -5.09424 0.26178 6.42062
O -6.903 -0.66396 3.91477
C -3.79948 -0.21012 6.36957
C -8.04103 1.60299 5.21756
C -9.16905 2.45376 5.80217
C -8.68466 2.62628 7.22879
C -7.3048 1.96527 7.1302
O -6.90751 2.19805 5.80017
H -9.18307 -0.09245 5.91439
H -8.03041 0.04676 8.01121
H -8.08973 1.62304 4.1072
H -9.12153 3.44198 5.29026
H -10.19533 2.04103 5.69647
H -8.59511 3.71487 7.44007
H -9.31029 2.13507 8.0054
H -6.62204 2.35079 7.91944
O -3.9212 -4.24291 5.27169
C -2.28278 -3.06266 0.6409
C -4.28397 -6.83309 1.73503
C -3.87429 -8.30252 1.76156
C -4.32855 -8.69359 3.15111
C -5.01552 -7.39528 3.59694
O -5.52199 -6.85235 2.402
H -2.32566 -6.418 2.61821
H -3.24143 -6.78564 4.74237
H -1.86655 -2.36142 1.39558
H -4.29584 -6.4539 0.68954
H -4.51095 -8.83187 1.01663
H -2.80438 -8.50294 1.53778
H -5.07008 -9.51795 3.05619
H -3.51781 -8.99121 3.85071
H -5.7607 -7.638 4.38554
H -3.25173 -2.674 0.26086
H -1.57138 -3.13917 -0.20676
H -3.26105 0.29504 5.54179
H -3.7996 -1.30505 6.18018
H -3.27476 0.00743 7.3243
H -6.29382 -2.89134 4.03105
H -7.90399 -3.70345 4.05004
H -5.90032 -3.78546 6.38137
H -7.39799 -4.71491 6.23056
$end

$opt
CONSTRAINT
tors           1           2           3           4     -23.114
tors           3           4           5           6    +113.448
tors           4           5           6           7    +177.667
tors           5           6           7           8     +96.481
tors           6           7           8           9    -177.933
tors           7           8           9          10    +138.164
tors           8           9          10          11    -179.185
tors           9          10          11          12     +74.360
tors          11          12          13          14    -117.006
ENDCONSTRAINT
$end

$rem
JOBTYPE                   OPT
METHOD                    B3LYP
DFT_D                     d3_op
BASIS                     STO-3G
GEOM_OPT_MAX_CYCLES       100
GEOM_OPT_TOL_GRADIENT     300
GEOM_OPT_TOL_DISPLACEMENT 1200
GEOM_OPT_TOL_ENERGY       100
SYMMETRY                  False
THRESH                    12
SCF_CONVERGENCE           8
MAX_SUB_FILE_NUM          128
MEM_STATIC                400
MEM_TOTAL                 4000
$end
--------------------------------------------------------------

   15   -1510.1566249401      7.54E-09 Convergence criterion met
 Total energy in the final basis set = -1510.15662494
   14   -1510.2253526602      3.84E-09 Convergence criterion met
 Total energy in the final basis set = -1510.22535266
   14   -1510.2623391287      3.26E-09 Convergence criterion met
 Total energy in the final basis set = -1510.26233913
   14   -1510.2792388959      4.60E-09 Convergence criterion met
 Total energy in the final basis set = -1510.27923890
   14   -1510.2847885219      3.88E-09 Convergence criterion met
 Total energy in the final basis set = -1510.28478852
    2   -1510.2847885219      6.21E-09 Convergence criterion met
 Total energy in the final basis set = -1510.28478852
   13   -1510.2864392468      7.28E-09 Convergence criterion met
 Total energy in the final basis set = -1510.28643925
   13   -1510.2883959976      1.96E-09 Convergence criterion met
   11   -1510.2917108423      3.44E-09 Convergence criterion met
 Total energy in the final basis set = -1510.29171084
    9   -1510.2917187051      8.66E-09 Convergence criterion met
 Total energy in the final basis set = -1510.29171871
    9   -1510.2917162841      5.52E-09 Convergence criterion met
 Total energy in the final basis set = -1510.29171628
    9   -1510.2917180264      2.87E-09 Convergence criterion met
 Total energy in the final basis set = -1510.29171803
    9   -1510.2917198487      2.04E-09 Convergence criterion met
 Total energy in the final basis set = -1510.29171985
    9   -1510.2917219487      2.50E-09 Convergence criterion met
 Total energy in the final basis set = -1510.29172195

             Standard Nuclear Orientation (Angstroms)
    I     Atom           X                Y                Z
 ----------------------------------------------------------------
    1      O       2.0179674142    -0.9646468024     0.7423421355
    2      C       3.0588711820    -1.4885382252     0.2817068683
    3      C       4.2563040113    -0.7362446934    -0.3884228820
    4      C       3.8158891232     0.6747571338    -0.9646978783
    5      C       2.2555152568     0.8664696059    -0.9423063413
    6      O       1.8938849097     1.8982359128    -0.0190135019
    7      C       0.4255649786     2.0993972021    -0.0565865516
    8      C      -0.2204842821     1.2764354488     1.1118058267
    9      O      -1.6875694304     1.4531460612     1.0219389233
   10      C      -2.3609672225     0.2083118215     1.2574579519
   11      C      -3.8961104477     0.4938031681     1.1205993202
   12      C      -4.3266925380     0.6840880620    -0.4003280876
   13      C      -3.1144539891     0.6513006871    -1.3983728996
   14      O      -2.7223718968     1.5778447507    -2.1416965729
   15      O       3.3466407927    -2.8835296124     0.3385632419
   16      O      -2.5068748320    -0.6387963068    -1.3230111819
   17      O      -1.7941255434    -0.8640249620     1.5525659394
   18      C      -1.3681109617    -0.7500319486    -2.2672678192
   19      C      -4.7459594704    -0.7808268631     1.5181171120
   20      C      -6.2595489840    -0.3535263957     1.6630984587
   21      C      -6.6746571934    -0.1902030027     0.1536107166
   22      C      -5.3191367648    -0.5462299219    -0.5767522394
   23      O      -4.7314547905    -1.5979832774     0.2819486231
   24      H      -4.1520405746     1.3842226894     1.7219823288
   25      H      -4.8462883014     1.6474406818    -0.5465947744
   26      H      -4.3246690854    -1.3579436688     2.3637261884
   27      H      -6.8391340860    -1.1491916905     2.1574702509
   28      H      -6.3746838927     0.5782966283     2.2397860827
   29      H      -7.4612255037    -0.9085131597    -0.1279526103
   30      H      -7.0240896913     0.8267897573    -0.0864148003
   31      H      -5.4235428233    -0.9092012519    -1.6175501129
   32      O       1.4521528431     0.2993265339    -1.7207586938
   33      C       2.2345362098    -3.6021931805     1.0077239971
   34      C       5.2999807073    -0.2830222837     0.7246945624
   35      C       6.6046525764     0.2460169340     0.0081272784
   36      C       6.1283100707     1.6615633814    -0.4888723238
   37      C       4.6221676264     1.6573628831    -0.0167505133
   38      O       4.6737177282     0.9378201817     1.2784559881
   39      H       4.7187856087    -1.3858637617    -1.1518651001
   40      H       4.1392706758     0.7733812178    -2.0168617965
   41      H       1.2731348538    -3.4482375717     0.4766921017
   42      H       5.4699397014    -1.0329345280     1.5215775658
   43      H       7.4338572775     0.3262854398     0.7287388720
   44      H       6.9172127090    -0.4122573125    -0.8183136854
   45      H       6.6841024552     2.4710470738     0.0106762597
   46      H       6.2242288441     1.7867485082    -1.5791998983
   47      H       4.1548419405     2.6518426444     0.1120918477
   48      H       2.1126280694    -3.2718900301     2.0594042652
   49      H       2.5071780565    -4.6731497176     0.9837174020
   50      H      -1.1888334409    -1.8335520182    -2.3932970895
   51      H      -0.4393655531    -0.2712827084    -1.8775975986
   52      H      -1.6165772312    -0.2972799048    -3.2475663167
   53      H       0.0546530594     0.2017993231     1.0305620544
   54      H       0.1411917287     1.6588809906     2.0902924278
   55      H       0.0103228337     1.7704625552    -1.0318426058
   56      H       0.2449791747     3.1842908441     0.0832793657
 ----------------------------------------------------------------

    9   -1510.2917227126      1.73E-09 Convergence criterion met
 Total energy in the final basis set = -1510.29172271
 Final energy is   -1510.29172271257
 **  OPTIMIZATION CONVERGED  **

                    Orbital Energies (a.u.)
 --------------------------------------------------------------

 Alpha MOs
 -- Occupied --
-18.944 -18.934 -18.922 -18.922 -18.890 -18.884 -18.882 -18.870
-18.869 -18.862 -10.106 -10.102 -10.092 -10.088 -10.067 -10.065
-10.063 -10.060 -10.055 -10.055 -10.053 -10.042 -10.039 -10.038
-10.032 -10.030 -10.023 -10.022 -10.016 -10.015  -1.020  -1.010
 -1.005  -0.996  -0.973  -0.963  -0.943  -0.935  -0.929  -0.923
 -0.766  -0.757  -0.727  -0.720  -0.713  -0.701  -0.690  -0.666
 -0.645  -0.611  -0.594  -0.576  -0.549  -0.540  -0.539  -0.531
 -0.515  -0.504  -0.483  -0.470  -0.465  -0.460  -0.453  -0.438
 -0.436  -0.428  -0.424  -0.414  -0.410  -0.402  -0.399  -0.393
 -0.391  -0.377  -0.368  -0.364  -0.359  -0.358  -0.350  -0.346
 -0.340  -0.338  -0.333  -0.328  -0.325  -0.325  -0.318  -0.313
 -0.306  -0.302  -0.300  -0.300  -0.289  -0.283  -0.281  -0.278
 -0.268  -0.262  -0.248  -0.240  -0.237  -0.235  -0.228  -0.185
 -0.179  -0.167  -0.162  -0.160  -0.152  -0.150  -0.145  -0.141
 -0.137

          Ground-State Mulliken Net Atomic Charges

     Atom                 Charge (a.u.)
  ----------------------------------------
      1 O                    -0.209623
      2 C                     0.214900
      3 C                    -0.078331
      4 C                    -0.079835
      5 C                     0.219424
      6 O                    -0.167319
      7 C                    -0.051394
      8 C                    -0.057190
      9 O                    -0.179406
     10 C                     0.213550
     11 C                    -0.078036
     12 C                    -0.078687
     13 C                     0.205101
     14 O                    -0.218014
     15 O                    -0.166836
     16 O                    -0.168673
     17 O                    -0.207617
     18 C                    -0.141723
     19 C                     0.025180
     20 C                    -0.144395
     21 C                    -0.143757
     22 C                     0.026161
     23 O                    -0.184653
     24 H                     0.084902
     25 H                     0.083004
     26 H                     0.087316
     27 H                     0.077115
     28 H                     0.072462
     29 H                     0.076870
     30 H                     0.072997
     31 H                     0.082696
     32 O                    -0.226473
     33 C                    -0.128631
     34 C                     0.025328
     35 C                    -0.143952
     36 C                    -0.143715
     37 C                     0.024609
     38 O                    -0.188271
     39 H                     0.088068
     40 H                     0.085410
     41 H                     0.096351
     42 H                     0.083927
     43 H                     0.078796
     44 H                     0.074495
     45 H                     0.078569
     46 H                     0.073759
     47 H                     0.092497
     48 H                     0.092038
     49 H                     0.092340
     50 H                     0.085082
     51 H                     0.104966
     52 H                     0.085013
     53 H                     0.111755
     54 H                     0.082842
     55 H                     0.100927
     56 H                     0.088082
  ----------------------------------------
  Sum of atomic charges =    -0.000000

                    Cartesian Multipole Moments
 -----------------------------------------------------------------
    Charge (ESU x 10^10)
                 0.0000
    Dipole Moment (Debye)
         X       1.6130      Y       0.0889      Z       0.0850
       Tot       1.6177
    Quadrupole Moments (Debye-Ang)
        XX    -134.7568     XY      -5.2076     YY    -158.6633
        XZ      -8.0112     YZ       0.7524     ZZ    -159.9557

 Total job time:  64.77s(wall), 3084.37s(cpu)
        *  Thank you very much for using Q-Chem.  Have a nice day.  *
