 Q-Chem 5.0, Q-Chem, Inc., Pleasanton, CA (2017)
 Q-Chem 5.0.1 for Intel X86 EM64T Linux

User input:
--------------------------------------------------------------
$molecule
0  1
O 2.0179674142 -0.9646468024 0.7423421355
C 3.058871182 -1.4885382252 0.2817068683
C 4.2563040113 -0.7362446934 -0.388422882
C 3.8158891232 0.6747571338 -0.9646978783
C 2.2555152568 0.8664696059 -0.9423063413
O 1.8938849097 1.8982359128 -0.0190135019
C 0.4255649786 2.0993972021 -0.0565865516
C -0.2204842821 1.2764354488 1.1118058267
O -1.6875694304 1.4531460612 1.0219389233
C -2.3609672225 0.2083118215 1.2574579519
C -3.8961104477 0.4938031681 1.1205993202
C -4.326692538 0.684088062 -0.4003280876
C -3.1144539891 0.6513006871 -1.3983728996
O -2.7223718968 1.5778447507 -2.1416965729
O 3.3466407927 -2.8835296124 0.3385632419
O -2.506874832 -0.6387963068 -1.3230111819
O -1.7941255434 -0.864024962 1.5525659394
C -1.3681109617 -0.7500319486 -2.2672678192
C -4.7459594704 -0.7808268631 1.518117112
C -6.259548984 -0.3535263957 1.6630984587
C -6.6746571934 -0.1902030027 0.1536107166
C -5.3191367648 -0.5462299219 -0.5767522394
O -4.7314547905 -1.5979832774 0.2819486231
H -4.1520405746 1.3842226894 1.7219823288
H -4.8462883014 1.6474406818 -0.5465947744
H -4.3246690854 -1.3579436688 2.3637261884
H -6.839134086 -1.1491916905 2.1574702509
H -6.3746838927 0.5782966283 2.2397860827
H -7.4612255037 -0.9085131597 -0.1279526103
H -7.0240896913 0.8267897573 -0.0864148003
H -5.4235428233 -0.9092012519 -1.6175501129
O 1.4521528431 0.2993265339 -1.7207586938
C 2.2345362098 -3.6021931805 1.0077239971
C 5.2999807073 -0.2830222837 0.7246945624
C 6.6046525764 0.246016934 0.0081272784
C 6.1283100707 1.6615633814 -0.4888723238
C 4.6221676264 1.6573628831 -0.0167505133
O 4.6737177282 0.9378201817 1.2784559881
H 4.7187856087 -1.3858637617 -1.1518651001
H 4.1392706758 0.7733812178 -2.0168617965
H 1.2731348538 -3.4482375717 0.4766921017
H 5.4699397014 -1.032934528 1.5215775658
H 7.4338572775 0.3262854398 0.728738872
H 6.917212709 -0.4122573125 -0.8183136854
H 6.6841024552 2.4710470738 0.0106762597
H 6.2242288441 1.7867485082 -1.5791998983
H 4.1548419405 2.6518426444 0.1120918477
H 2.1126280694 -3.2718900301 2.0594042652
H 2.5071780565 -4.6731497176 0.983717402
H -1.1888334409 -1.8335520182 -2.3932970895
H -0.4393655531 -0.2712827084 -1.8775975986
H -1.6165772312 -0.2972799048 -3.2475663167
H 0.0546530594 0.2017993231 1.0305620544
H 0.1411917287 1.6588809906 2.0902924278
H 0.0103228337 1.7704625552 -1.0318426058
H 0.2449791747 3.1842908441 0.0832793657
$end

$rem
JOBTYPE                   OPT
METHOD                    B3LYP
DFT_D                     d3_op
BASIS                     STO-3G
GEOM_OPT_MAX_CYCLES       100
GEOM_OPT_TOL_GRADIENT     300
GEOM_OPT_TOL_DISPLACEMENT 1200
GEOM_OPT_TOL_ENERGY       100
SYMMETRY                  False
THRESH                    12
SCF_CONVERGENCE           8
MAX_SUB_FILE_NUM          128
MEM_STATIC                400
MEM_TOTAL                 4000
$end
--------------------------------------------------------------

   16   -1510.2915291200      5.89E-09 Convergence criterion met
 Total energy in the final basis set = -1510.29152912
   15   -1510.2607715247      3.77E-09 Convergence criterion met
 Total energy in the final basis set = -1510.26077152
   14   -1510.2920939911      4.48E-09 Convergence criterion met
 Total energy in the final basis set = -1510.29209399
   14   -1510.2914216524      1.39E-09 Convergence criterion met
 Total energy in the final basis set = -1510.29142165
   13   -1510.2927137235      8.35E-09 Convergence criterion met
 Total energy in the final basis set = -1510.29271372
   14   -1510.2925769744      1.64E-09 Convergence criterion met
 Total energy in the final basis set = -1510.29257697
   14   -1510.2912391793      3.80E-09 Convergence criterion met
 Total energy in the final basis set = -1510.29123918
   14   -1510.2898757601      3.78E-09 Convergence criterion met
   13   -1510.2978980317      5.93E-09 Convergence criterion met
 Total energy in the final basis set = -1510.29789803
   12   -1510.2979663087      5.80E-09 Convergence criterion met
 Total energy in the final basis set = -1510.29796631
   12   -1510.2979690948      9.87E-09 Convergence criterion met
 Total energy in the final basis set = -1510.29796909
   12   -1510.2980138239      6.40E-09 Convergence criterion met
 Total energy in the final basis set = -1510.29801382
   10   -1510.2980234454      6.01E-09 Convergence criterion met
 Total energy in the final basis set = -1510.29802345
   10   -1510.2980208488      7.44E-09 Convergence criterion met
 Total energy in the final basis set = -1510.29802085

             Standard Nuclear Orientation (Angstroms)
    I     Atom           X                Y                Z
 ----------------------------------------------------------------
    1      O      -1.2171542213     0.7165606532    -0.6924584043
    2      C      -2.3285941677     1.2136913315    -0.3855132510
    3      C      -3.7272453395     0.5829155959    -0.7129817723
    4      C      -3.6769338796    -0.9973650140    -0.8881958943
    5      C      -2.2621626525    -1.6261451915    -0.6137861318
    6      O      -2.0686013350    -1.7098842377     0.8023185716
    7      C      -0.6560796682    -2.0387778460     1.1263682527
    8      C       0.0294871872    -0.6810772321     1.4977544689
    9      O       1.5028526452    -0.8283421400     1.4530736478
   10      C       2.1016245232     0.4479013888     1.2064106555
   11      C       3.6500276974     0.2259324402     1.1058585820
   12      C       4.0584087008    -0.8073264602    -0.0263868053
   13      C       2.8487551454    -1.3559024223    -0.8636956311
   14      O       2.5856325081    -2.5512441975    -1.1190075048
   15      O      -2.4851370874     2.4411443774     0.3076719377
   16      O       2.1105524033    -0.2370032597    -1.3579312553
   17      O       1.4748011131     1.5280897194     1.1273795502
   18      C       1.0541960958    -0.6763333423    -2.3007548768
   19      C       4.4022190283     1.5320508879     0.6239391982
   20      C       5.9386943679     1.3656000624     0.9467849803
   21      C       6.3677279725     0.3286278869    -0.1577277514
   22      C       5.0011477877     0.1111936443    -0.9217782157
   23      O       4.3487123657     1.4373309568    -0.8537951538
   24      H       4.0106310133    -0.1164092009     2.0936116184
   25      H       4.6026150214    -1.6728544091     0.3898105721
   26      H       3.9315933155     2.4737450053     0.9674203398
   27      H       6.4654719559     2.3255652861     0.8251545243
   28      H       6.1122711742     0.9946831756     1.9695130627
   29      H       7.1250306125     0.7516222504    -0.8367433336
   30      H       6.7586676027    -0.6094919199     0.2675875803
   31      H       5.0980824358    -0.2198403146    -1.9739997234
   32      O      -1.4604597556    -2.0708140642    -1.4683799254
   33      C      -1.1652837763     3.0855005888     0.5508737438
   34      C      -4.7846885225     0.7306851161     0.4625092320
   35      C      -6.2240529389     0.4795427701    -0.1357089210
   36      C      -6.1913131771    -1.0786936521    -0.3531725857
   37      C      -4.7528952029    -1.4369893996     0.1954060809
   38      O      -4.5457676173    -0.4682571947     1.2965811453
   39      H      -4.0990982188     1.0646715673    -1.6371399495
   40      H      -3.9767326886    -1.2877168053    -1.9105776429
   41      H      -0.8477985649     3.6468350560    -0.3513589219
   42      H      -4.6652049215     1.6555523945     1.0594363308
   43      H      -6.9970240008     0.7687323378     0.5940591206
   44      H      -6.3934159585     1.0377366921    -1.0704639959
   45      H      -6.9672337750    -1.5866127282     0.2411751040
   46      H      -6.3133463494    -1.3645932133    -1.4101911252
   47      H      -4.6333720662    -2.4738061493     0.5641829084
   48      H      -0.3630971686     2.3586961323     0.8152775349
   49      H      -1.3267610123     3.7960965362     1.3819185439
   50      H       0.6185187840     0.2538696917    -2.7079062718
   51      H       0.2459183538    -1.2683891075    -1.8119065533
   52      H       1.4857980276    -1.2760863314    -3.1274899999
   53      H      -0.2955713497     0.0710322902     0.7407876749
   54      H      -0.2950423054    -0.3449922118     2.5061537820
   55      H      -0.1578122823    -2.4998413751     0.2461669151
   56      H      -0.6649342079    -2.7525540505     1.9740334223
 ----------------------------------------------------------------

    9   -1510.2980208307      5.73E-09 Convergence criterion met
 Total energy in the final basis set = -1510.29802083
 Final energy is   -1510.29802083066
 **  OPTIMIZATION CONVERGED  **

                    Orbital Energies (a.u.)
 --------------------------------------------------------------

 Alpha MOs
 -- Occupied --
-18.948 -18.930 -18.929 -18.918 -18.890 -18.887 -18.883 -18.876
-18.875 -18.859 -10.112 -10.102 -10.100 -10.085 -10.064 -10.062
-10.062 -10.055 -10.055 -10.054 -10.052 -10.045 -10.040 -10.034
-10.034 -10.029 -10.023 -10.022 -10.017 -10.016  -1.023  -1.011
 -1.007  -0.994  -0.972  -0.965  -0.946  -0.937  -0.932  -0.920
 -0.766  -0.758  -0.727  -0.720  -0.713  -0.701  -0.691  -0.661
 -0.641  -0.611  -0.596  -0.576  -0.548  -0.541  -0.539  -0.532
 -0.517  -0.504  -0.486  -0.471  -0.466  -0.461  -0.449  -0.438
 -0.436  -0.431  -0.425  -0.417  -0.406  -0.401  -0.397  -0.395
 -0.393  -0.381  -0.371  -0.364  -0.357  -0.354  -0.352  -0.344
 -0.342  -0.335  -0.333  -0.326  -0.325  -0.323  -0.317  -0.315
 -0.308  -0.304  -0.301  -0.299  -0.288  -0.285  -0.283  -0.281
 -0.267  -0.264  -0.246  -0.240  -0.236  -0.234  -0.229  -0.189
 -0.177  -0.168  -0.165  -0.161  -0.153  -0.152  -0.146  -0.139
 -0.137

          Ground-State Mulliken Net Atomic Charges

     Atom                 Charge (a.u.)
  ----------------------------------------
      1 O                    -0.215642
      2 C                     0.218646
      3 C                    -0.077851
      4 C                    -0.079472
      5 C                     0.217439
      6 O                    -0.171652
      7 C                    -0.053130
      8 C                    -0.064611
      9 O                    -0.175602
     10 C                     0.222481
     11 C                    -0.078007
     12 C                    -0.078497
     13 C                     0.208747
     14 O                    -0.217043
     15 O                    -0.165477
     16 O                    -0.171174
     17 O                    -0.216689
     18 C                    -0.137879
     19 C                     0.024675
     20 C                    -0.143989
     21 C                    -0.144152
     22 C                     0.026002
     23 O                    -0.185644
     24 H                     0.083707
     25 H                     0.083375
     26 H                     0.088010
     27 H                     0.077057
     28 H                     0.072285
     29 H                     0.077150
     30 H                     0.073369
     31 H                     0.082182
     32 O                    -0.214910
     33 C                    -0.140077
     34 C                     0.023988
     35 C                    -0.143613
     36 C                    -0.144493
     37 C                     0.026735
     38 O                    -0.186545
     39 H                     0.086985
     40 H                     0.085172
     41 H                     0.085898
     42 H                     0.091504
     43 H                     0.078763
     44 H                     0.073508
     45 H                     0.078488
     46 H                     0.073894
     47 H                     0.086264
     48 H                     0.118214
     49 H                     0.088834
     50 H                     0.087022
     51 H                     0.106666
     52 H                     0.079777
     53 H                     0.109450
     54 H                     0.078064
     55 H                     0.104276
     56 H                     0.087526
  ----------------------------------------
  Sum of atomic charges =     0.000000

                    Cartesian Multipole Moments
 -----------------------------------------------------------------
    Charge (ESU x 10^10)
                 0.0000
    Dipole Moment (Debye)
         X      -1.2862      Y       1.1457      Z       0.7017
       Tot       1.8600
    Quadrupole Moments (Debye-Ang)
        XX    -136.7689     XY      -0.0989     YY    -163.5965
        XZ      11.3204     YZ      -1.4701     ZZ    -158.6687

 Total job time:  130.05s(wall), 6206.62s(cpu)
        *  Thank you very much for using Q-Chem.  Have a nice day.  *
