 Q-Chem 5.0, Q-Chem, Inc., Pleasanton, CA (2017)
 Q-Chem 5.0.1 for Intel X86 EM64T Linux

User input:
--------------------------------------------------------------
$molecule
0  1
O -3.94934 -3.66094 2.70899
C -3.26408 -4.56952 2.26188
C -3.36658 -6.02376 2.66595
C -4.2251 -6.35169 3.89853
C -5.02845 -5.21135 4.48361
O -6.36264 -5.44737 4.31134
C -7.19212 -4.41807 4.86065
C -7.63174 -3.45528 3.76251
O -8.16031 -2.25456 4.34712
C -7.76639 -1.09755 3.75949
C -8.13466 0.12616 4.5642
C -7.458 0.22443 5.93925
C -6.27171 -0.6927 6.15899
O -6.23872 -1.63475 6.93746
O -2.40635 -4.2986 1.24335
O -5.16977 -0.42941 5.40457
O -7.18445 -1.0306 2.68314
C -3.91596 -0.95517 5.62371
C -7.71194 1.48652 3.96168
C -8.62294 2.58833 4.50363
C -8.15935 2.65826 5.94666
C -6.97616 1.68395 5.90264
O -6.48959 1.79869 4.58556
H -9.24557 0.11493 4.64452
H -8.1851 0.00378 6.75212
H -7.71528 1.50203 2.85032
H -8.32501 3.53081 3.99007
H -9.71372 2.42913 4.36342
H -7.81672 3.69591 6.15533
H -8.91118 2.34364 6.70267
H -6.24901 1.90328 6.71536
O -4.53061 -4.30645 5.13779
C -2.21244 -3.04388 0.70466
C -4.02302 -6.89691 1.5848
C -3.54787 -8.33932 1.73139
C -4.26433 -8.74096 3.00205
C -5.09364 -7.47709 3.26777
O -5.36939 -6.97757 1.98185
H -2.31609 -6.3482 2.84412
H -3.62937 -6.76983 4.74013
H -1.83827 -2.34643 1.48444
H -3.83805 -6.53311 0.55033
H -3.98016 -8.91516 0.88174
H -2.44506 -8.47586 1.74441
H -4.92965 -9.60225 2.76945
H -3.60558 -8.99237 3.86118
H -5.97257 -7.753 3.89025
H -3.16425 -2.65792 0.2809
H -1.46016 -3.10906 -0.10792
H -3.21925 -0.56633 4.85317
H -3.93727 -2.05347 5.55869
H -3.5478 -0.65115 6.62657
H -6.72784 -3.25245 3.14458
H -8.38871 -3.95044 3.11788
H -6.6861 -3.8292 5.65464
H -8.07561 -4.86377 5.36418
$end

$opt
CONSTRAINT
tors           1           2           3           4     -11.008
tors           3           4           5           6    +113.059
tors           4           5           6           7    +179.051
tors           5           6           7           8     +98.510
tors           6           7           8           9    -165.155
tors           7           8           9          10    +136.954
tors           8           9          10          11    -169.110
tors           9          10          11          12     +63.732
tors          11          12          13          14    -112.446
ENDCONSTRAINT
$end

$rem
JOBTYPE                   OPT
METHOD                    B3LYP
DFT_D                     d3_op
BASIS                     STO-3G
GEOM_OPT_MAX_CYCLES       100
GEOM_OPT_TOL_GRADIENT     300
GEOM_OPT_TOL_DISPLACEMENT 1200
GEOM_OPT_TOL_ENERGY       100
SYMMETRY                  False
THRESH                    12
SCF_CONVERGENCE           8
MAX_SUB_FILE_NUM          128
MEM_STATIC                400
MEM_TOTAL                 4000
$end
--------------------------------------------------------------

   15   -1510.1579942442      7.18E-09 Convergence criterion met
 Total energy in the final basis set = -1510.15799424
   14   -1510.2277107414      4.32E-09 Convergence criterion met
 Total energy in the final basis set = -1510.22771074
   14   -1510.2620942866      3.69E-09 Convergence criterion met
 Total energy in the final basis set = -1510.26209429
    2   -1510.2620942866      7.29E-09 Convergence criterion met
 Total energy in the final basis set = -1510.26209429
   15   -1510.2773903404      2.73E-09 Convergence criterion met
 Total energy in the final basis set = -1510.27739034
   13   -1510.2850121284      9.94E-09 Convergence criterion met
 Total energy in the final basis set = -1510.28501213
   13   -1510.2882097953      5.42E-09 Convergence criterion met
 Total energy in the final basis set = -1510.28820980
   13   -1510.2898626896      1.69E-09 Convergence criterion met
   11   -1510.2924591716      8.56E-09 Convergence criterion met
 Total energy in the final basis set = -1510.29245917
   11   -1510.2925635199      8.16E-09 Convergence criterion met
 Total energy in the final basis set = -1510.29256352
   11   -1510.2925959835      3.71E-09 Convergence criterion met
 Total energy in the final basis set = -1510.29259598
   11   -1510.2926263277      3.95E-09 Convergence criterion met
 Total energy in the final basis set = -1510.29262633
   11   -1510.2926227931      3.39E-09 Convergence criterion met
 Total energy in the final basis set = -1510.29262279
   10   -1510.2926247832      5.73E-09 Convergence criterion met
 Total energy in the final basis set = -1510.29262478

             Standard Nuclear Orientation (Angstroms)
    I     Atom           X                Y                Z
 ----------------------------------------------------------------
    1      O       1.6543381370    -0.8754545100     0.5512731778
    2      C       2.6985823226    -1.4603799432     0.1753134693
    3      C       3.9312524225    -0.7900582959    -0.5187424299
    4      C       3.6026740594     0.6977305625    -0.9555578013
    5      C       2.0633597723     1.0173895168    -0.8678303967
    6      O       1.8195057453     1.9790634583     0.1564536105
    7      C       0.3761355974     2.3109528678     0.2398844751
    8      C      -0.2560444244     1.4704555990     1.4116767312
    9      O      -1.7297842036     1.5187999908     1.2689551773
   10      C      -2.3390453074     0.2403718612     1.4876257138
   11      C      -3.8306296775     0.3987852959     1.0266711582
   12      C      -3.9500797113     0.7114049751    -0.5278704519
   13      C      -2.5792142437     0.5332179916    -1.2799867125
   14      O      -1.8776274980     1.4251296866    -1.8095680623
   15      O       2.9373801861    -2.8515491662     0.3517548495
   16      O      -2.2440932342    -0.8504983643    -1.2225052499
   17      O      -1.7531650979    -0.7694871630     1.9292017845
   18      C      -0.9988137764    -1.1476117457    -1.9678487698
   19      C      -4.7119519585    -0.9115884819     1.1536482917
   20      C      -6.2262153901    -0.4634948942     1.1540316550
   21      C      -6.4114714082    -0.0433950393    -0.3525120935
   22      C      -4.9940123945    -0.4070121484    -0.9536993898
   23      O      -4.5673663104    -1.5816211791    -0.1586281583
   24      H      -4.2719303566     1.2276696589     1.6102880538
   25      H      -4.3195118265     1.7353212969    -0.7110120002
   26      H      -4.4070776056    -1.5928241219     1.9716656933
   27      H      -6.8774196722    -1.3124587373     1.4172092642
   28      H      -6.4220428525     0.3624524759     1.8561373246
   29      H      -7.2014247847    -0.6333258890    -0.8436278128
   30      H      -6.6473420438     1.0266346509    -0.4684864814
   31      H      -4.9900501184    -0.6503280146    -2.0337723605
   32      O       1.2213534884     0.6670968373    -1.7291399598
   33      C       1.7824031017    -3.4783446668     1.0424340864
   34      C       5.0720205361    -0.5334180875     0.5588686719
   35      C       6.3781847014    -0.0472665257    -0.1845384817
   36      C       6.0057763834     1.4455365840    -0.5153149345
   37      C       4.5289406051     1.5179751797     0.0371300386
   38      O       4.5829507292     0.6772899457     1.2573883126
   39      H       4.2781325703    -1.4231284464    -1.3544668206
   40      H       3.9031432133     0.8582829045    -2.0065557675
   41      H       0.8394331950    -3.3225802272     0.4798290375
   42      H       5.2172325304    -1.3674855232     1.2728971401
   43      H       7.2485913646    -0.1097449108     0.4876506415
   44      H       6.5862878985    -0.6436492574    -1.0875205913
   45      H       6.6537649200     2.1517710307     0.0277867125
   46      H       6.0608566918     1.6707255358    -1.5923553691
   47      H       4.1540753550     2.5300653074     0.2806428986
   48      H       1.6533947429    -3.0702050078     2.0654472483
   49      H       2.0120990804    -4.5581140293     1.0980069739
   50      H      -0.6775597279    -2.1478141559    -1.6238390667
   51      H      -0.1943031412    -0.3957203279    -1.7820432288
   52      H      -1.2036172000    -1.1901931605    -3.0571978911
   53      H       0.1084677678     0.4203622444     1.3468285833
   54      H       0.0387853375     1.8881998003     2.3980522154
   55      H      -0.1469206535     2.0545905344    -0.7122597098
   56      H       0.3027176324     3.3987013869     0.4375198672
 ----------------------------------------------------------------

    9   -1510.2926254268      8.35E-09 Convergence criterion met
 Total energy in the final basis set = -1510.29262543
 Final energy is   -1510.29262542682
 **  OPTIMIZATION CONVERGED  **

                    Orbital Energies (a.u.)
 --------------------------------------------------------------

 Alpha MOs
 -- Occupied --
-18.950 -18.929 -18.920 -18.919 -18.892 -18.890 -18.880 -18.871
-18.865 -18.860 -10.113 -10.102 -10.093 -10.086 -10.070 -10.065
-10.060 -10.055 -10.053 -10.053 -10.052 -10.044 -10.038 -10.030
-10.029 -10.028 -10.024 -10.022 -10.015 -10.014  -1.026  -1.007
 -1.002  -0.994  -0.973  -0.962  -0.948  -0.933  -0.928  -0.921
 -0.766  -0.756  -0.727  -0.719  -0.712  -0.699  -0.687  -0.669
 -0.641  -0.610  -0.593  -0.573  -0.549  -0.540  -0.538  -0.530
 -0.515  -0.502  -0.484  -0.471  -0.465  -0.456  -0.454  -0.438
 -0.432  -0.427  -0.423  -0.417  -0.412  -0.407  -0.393  -0.392
 -0.390  -0.381  -0.370  -0.364  -0.357  -0.355  -0.352  -0.345
 -0.344  -0.335  -0.332  -0.327  -0.323  -0.317  -0.315  -0.315
 -0.306  -0.304  -0.300  -0.299  -0.286  -0.284  -0.279  -0.275
 -0.267  -0.265  -0.247  -0.238  -0.236  -0.227  -0.226  -0.190
 -0.178  -0.166  -0.160  -0.158  -0.152  -0.149  -0.145  -0.137
 -0.134

          Ground-State Mulliken Net Atomic Charges

     Atom                 Charge (a.u.)
  ----------------------------------------
      1 O                    -0.206160
      2 C                     0.219028
      3 C                    -0.077997
      4 C                    -0.080686
      5 C                     0.224387
      6 O                    -0.171408
      7 C                    -0.056453
      8 C                    -0.058055
      9 O                    -0.179915
     10 C                     0.211442
     11 C                    -0.077669
     12 C                    -0.077248
     13 C                     0.207492
     14 O                    -0.218198
     15 O                    -0.165118
     16 O                    -0.167595
     17 O                    -0.208925
     18 C                    -0.147957
     19 C                     0.024408
     20 C                    -0.143143
     21 C                    -0.144914
     22 C                     0.026248
     23 O                    -0.184158
     24 H                     0.083266
     25 H                     0.083488
     26 H                     0.087352
     27 H                     0.076548
     28 H                     0.071933
     29 H                     0.076564
     30 H                     0.072563
     31 H                     0.081978
     32 O                    -0.227777
     33 C                    -0.128209
     34 C                     0.024823
     35 C                    -0.144064
     36 C                    -0.143501
     37 C                     0.024481
     38 O                    -0.189439
     39 H                     0.088843
     40 H                     0.085628
     41 H                     0.096716
     42 H                     0.084837
     43 H                     0.078943
     44 H                     0.074435
     45 H                     0.078551
     46 H                     0.074006
     47 H                     0.092860
     48 H                     0.094645
     49 H                     0.093690
     50 H                     0.077805
     51 H                     0.119267
     52 H                     0.074937
     53 H                     0.110140
     54 H                     0.079870
     55 H                     0.112567
     56 H                     0.084851
  ----------------------------------------
  Sum of atomic charges =    -0.000000

                    Cartesian Multipole Moments
 -----------------------------------------------------------------
    Charge (ESU x 10^10)
                -0.0000
    Dipole Moment (Debye)
         X       1.5015      Y      -0.1797      Z      -0.0270
       Tot       1.5125
    Quadrupole Moments (Debye-Ang)
        XX    -136.1606     XY      -6.5071     YY    -157.1964
        XZ      -6.8057     YZ       0.7312     ZZ    -160.9253

 Total job time:  55.77s(wall), 2657.70s(cpu)
        *  Thank you very much for using Q-Chem.  Have a nice day.  *
