 Q-Chem 5.0, Q-Chem, Inc., Pleasanton, CA (2017)
 Q-Chem 5.0.1 for Intel X86 EM64T Linux

User input:
--------------------------------------------------------------
$molecule
0  1
O 1.654338137 -0.87545451 0.5512731778
C 2.6985823226 -1.4603799432 0.1753134693
C 3.9312524225 -0.7900582959 -0.5187424299
C 3.6026740594 0.6977305625 -0.9555578013
C 2.0633597723 1.0173895168 -0.8678303967
O 1.8195057453 1.9790634583 0.1564536105
C 0.3761355974 2.3109528678 0.2398844751
C -0.2560444244 1.470455599 1.4116767312
O -1.7297842036 1.5187999908 1.2689551773
C -2.3390453074 0.2403718612 1.4876257138
C -3.8306296775 0.3987852959 1.0266711582
C -3.9500797113 0.7114049751 -0.5278704519
C -2.5792142437 0.5332179916 -1.2799867125
O -1.877627498 1.4251296866 -1.8095680623
O 2.9373801861 -2.8515491662 0.3517548495
O -2.2440932342 -0.8504983643 -1.2225052499
O -1.7531650979 -0.769487163 1.9292017845
C -0.9988137764 -1.1476117457 -1.9678487698
C -4.7119519585 -0.9115884819 1.1536482917
C -6.2262153901 -0.4634948942 1.154031655
C -6.4114714082 -0.0433950393 -0.3525120935
C -4.9940123945 -0.4070121484 -0.9536993898
O -4.5673663104 -1.5816211791 -0.1586281583
H -4.2719303566 1.2276696589 1.6102880538
H -4.3195118265 1.7353212969 -0.7110120002
H -4.4070776056 -1.5928241219 1.9716656933
H -6.8774196722 -1.3124587373 1.4172092642
H -6.4220428525 0.3624524759 1.8561373246
H -7.2014247847 -0.633325889 -0.8436278128
H -6.6473420438 1.0266346509 -0.4684864814
H -4.9900501184 -0.6503280146 -2.0337723605
O 1.2213534884 0.6670968373 -1.7291399598
C 1.7824031017 -3.4783446668 1.0424340864
C 5.0720205361 -0.5334180875 0.5588686719
C 6.3781847014 -0.0472665257 -0.1845384817
C 6.0057763834 1.445536584 -0.5153149345
C 4.5289406051 1.5179751797 0.0371300386
O 4.5829507292 0.6772899457 1.2573883126
H 4.2781325703 -1.4231284464 -1.3544668206
H 3.9031432133 0.8582829045 -2.0065557675
H 0.839433195 -3.3225802272 0.4798290375
H 5.2172325304 -1.3674855232 1.2728971401
H 7.2485913646 -0.1097449108 0.4876506415
H 6.5862878985 -0.6436492574 -1.0875205913
H 6.65376492 2.1517710307 0.0277867125
H 6.0608566918 1.6707255358 -1.5923553691
H 4.154075355 2.5300653074 0.2806428986
H 1.6533947429 -3.0702050078 2.0654472483
H 2.0120990804 -4.5581140293 1.0980069739
H -0.6775597279 -2.1478141559 -1.6238390667
H -0.1943031412 -0.3957203279 -1.7820432288
H -1.2036172 -1.1901931605 -3.0571978911
H 0.1084677678 0.4203622444 1.3468285833
H 0.0387853375 1.8881998003 2.3980522154
H -0.1469206535 2.0545905344 -0.7122597098
H 0.3027176324 3.3987013869 0.4375198672
$end

$rem
JOBTYPE                   OPT
METHOD                    B3LYP
DFT_D                     d3_op
BASIS                     STO-3G
GEOM_OPT_MAX_CYCLES       100
GEOM_OPT_TOL_GRADIENT     300
GEOM_OPT_TOL_DISPLACEMENT 1200
GEOM_OPT_TOL_ENERGY       100
SYMMETRY                  False
THRESH                    12
SCF_CONVERGENCE           8
MAX_SUB_FILE_NUM          128
MEM_STATIC                400
MEM_TOTAL                 4000
$end
--------------------------------------------------------------

   16   -1510.2927096837      5.82E-09 Convergence criterion met
 Total energy in the final basis set = -1510.29270968
   14   -1510.2888925209      3.68E-09 Convergence criterion met
 Total energy in the final basis set = -1510.28889252
   14   -1510.2918108241      3.18E-09 Convergence criterion met
 Total energy in the final basis set = -1510.29181082
   14   -1510.2728406895      4.58E-09 Convergence criterion met
 Total energy in the final basis set = -1510.27284069
   14   -1510.2788121939      8.30E-09 Convergence criterion met
 Total energy in the final basis set = -1510.27881219
   14   -1510.2910070067      2.65E-09 Convergence criterion met
 Total energy in the final basis set = -1510.29100701
   14   -1510.2899290555      8.19E-09 Convergence criterion met
 Total energy in the final basis set = -1510.28992906
   14   -1510.2918909280      4.47E-09 Convergence criterion met
   12   -1510.2982394129      8.79E-09 Convergence criterion met
 Total energy in the final basis set = -1510.29823941
   11   -1510.2982333750      9.54E-09 Convergence criterion met
 Total energy in the final basis set = -1510.29823337
   11   -1510.2982349139      3.75E-09 Convergence criterion met
 Total energy in the final basis set = -1510.29823491
    9   -1510.2982336072      9.75E-09 Convergence criterion met
 Total energy in the final basis set = -1510.29823361
    9   -1510.2982315556      8.36E-09 Convergence criterion met
 Total energy in the final basis set = -1510.29823156
    9   -1510.2982279995      5.45E-09 Convergence criterion met
 Total energy in the final basis set = -1510.29822800

             Standard Nuclear Orientation (Angstroms)
    I     Atom           X                Y                Z
 ----------------------------------------------------------------
    1      O      -1.1527761824     0.7273238387    -0.3867132526
    2      C      -2.2317215540     1.3230684440    -0.1492452967
    3      C      -3.6585252734     0.8199984577    -0.5589018495
    4      C      -3.6762179811    -0.7145431630    -0.9682700419
    5      C      -2.2789554805    -1.4285821604    -0.8430791189
    6      O      -2.0731268819    -1.7986544038     0.5249298297
    7      C      -0.6758016412    -2.2502766695     0.7468745059
    8      C       0.0518491072    -1.0918124477     1.5143809421
    9      O       1.5156549609    -1.1886303024     1.3038695601
   10      C       2.0898090214     0.1202774834     1.2156145678
   11      C       3.6308611260    -0.0681497068     1.0009802319
   12      C       3.9908529194    -0.9088417123    -0.2948356273
   13      C       2.7556649036    -1.2506033167    -1.2005564336
   14      O       2.4671744502    -2.3598971162    -1.7003876527
   15      O      -2.3251195869     2.5583737561     0.5414986552
   16      O       2.0266277899    -0.0432755736    -1.4233081194
   17      O       1.4590920092     1.1928915266     1.3444678297
   18      C       0.9557348645    -0.2504565485    -2.4276262386
   19      C       4.3742140930     1.2996191348     0.7074250847
   20      C       5.9123683594     1.0903892046     0.9913600023
   21      C       6.3213155059     0.1909992052    -0.2344327665
   22      C       4.9577472536     0.1168985189    -1.0323930376
   23      O       4.3197801773     1.4256234821    -0.7676912899
   24      H       4.0382836476    -0.5614098581     1.9027794386
   25      H       4.5034619638    -1.8528423652    -0.0409594608
   26      H       3.9042484639     2.1794471141     1.1886057306
   27      H       6.4404535825     2.0571670659     0.9741891813
   28      H       6.0991159415     0.6028070377     1.9615148350
   29      H       7.1022381251     0.6700304515    -0.8459900276
   30      H       6.6744042139    -0.8070819491     0.0707274227
   31      H       5.0595667956    -0.0518089086    -2.1220915079
   32      O      -1.5190558556    -1.7480657843    -1.7879118114
   33      C      -0.9729636210     3.0734794137     0.8900873371
   34      C      -4.6876914323     0.8299441017     0.6521510015
   35      C      -6.1471165249     0.7151273094     0.0618449732
   36      C      -6.1772827690    -0.7964977496    -0.3744924886
   37      C      -4.7381251091    -1.2752558210     0.0719733238
   38      O      -4.4711489947    -0.4847026930     1.2960635650
   39      H      -4.0191880238     1.4572818065    -1.3877581230
   40      H      -4.0164002081    -0.8372761999    -2.0116298951
   41      H      -0.5966582864     3.7163709175     0.0687031351
   42      H      -4.5233400408     1.6551964740     1.3716725372
   43      H      -6.8935538823     0.9240572259     0.8446392232
   44      H      -6.3139142216     1.4074589345    -0.7786334221
   45      H      -6.9547891130    -1.3581126126     0.1673166973
   46      H      -6.3390765446    -0.9240421140    -1.4567697159
   47      H      -4.6451100543    -2.3578468552     0.2828885640
   48      H      -0.2371581568     2.2568697225     1.0704704872
   49      H      -1.1015722010     3.6867369870     1.8008668536
   50      H       0.5403080007     0.7543728481    -2.6245446718
   51      H       0.1379047792    -0.9165333588    -2.0643595623
   52      H       1.3701248684    -0.6703171016    -3.3662916002
   53      H      -0.3138246786    -0.1294013479     1.0912680874
   54      H      -0.1768906338    -1.1319653943     2.6006416683
   55      H      -0.1805102577    -2.4414571041    -0.2297080022
   56      H      -0.7106054347    -3.1861957822     1.3398876535
 ----------------------------------------------------------------

    9   -1510.2982272326      2.01E-09 Convergence criterion met
 Total energy in the final basis set = -1510.29822723
 Final energy is   -1510.29822723260
 **  OPTIMIZATION CONVERGED  **

                    Orbital Energies (a.u.)
 --------------------------------------------------------------

 Alpha MOs
 -- Occupied --
-18.947 -18.928 -18.927 -18.918 -18.890 -18.888 -18.883 -18.875
-18.871 -18.859 -10.112 -10.101 -10.100 -10.085 -10.063 -10.062
-10.062 -10.055 -10.054 -10.054 -10.054 -10.044 -10.039 -10.033
-10.033 -10.030 -10.023 -10.021 -10.017 -10.016  -1.023  -1.010
 -1.005  -0.994  -0.972  -0.965  -0.946  -0.936  -0.931  -0.920
 -0.766  -0.759  -0.727  -0.720  -0.712  -0.702  -0.690  -0.661
 -0.641  -0.610  -0.595  -0.576  -0.548  -0.541  -0.539  -0.533
 -0.516  -0.504  -0.485  -0.471  -0.465  -0.460  -0.449  -0.438
 -0.435  -0.431  -0.425  -0.416  -0.406  -0.402  -0.398  -0.396
 -0.392  -0.380  -0.371  -0.364  -0.356  -0.354  -0.352  -0.342
 -0.342  -0.334  -0.333  -0.326  -0.325  -0.322  -0.317  -0.316
 -0.307  -0.304  -0.301  -0.299  -0.287  -0.285  -0.283  -0.282
 -0.265  -0.263  -0.244  -0.239  -0.236  -0.233  -0.229  -0.189
 -0.177  -0.167  -0.164  -0.160  -0.153  -0.151  -0.146  -0.138
 -0.137

          Ground-State Mulliken Net Atomic Charges

     Atom                 Charge (a.u.)
  ----------------------------------------
      1 O                    -0.213000
      2 C                     0.218677
      3 C                    -0.078044
      4 C                    -0.080327
      5 C                     0.220444
      6 O                    -0.172736
      7 C                    -0.053066
      8 C                    -0.061412
      9 O                    -0.175777
     10 C                     0.223681
     11 C                    -0.078010
     12 C                    -0.077987
     13 C                     0.208200
     14 O                    -0.216696
     15 O                    -0.166594
     16 O                    -0.170179
     17 O                    -0.217047
     18 C                    -0.138984
     19 C                     0.024737
     20 C                    -0.143603
     21 C                    -0.144429
     22 C                     0.025736
     23 O                    -0.185706
     24 H                     0.083637
     25 H                     0.083728
     26 H                     0.087909
     27 H                     0.077115
     28 H                     0.072299
     29 H                     0.077074
     30 H                     0.073349
     31 H                     0.081994
     32 O                    -0.219586
     33 C                    -0.141477
     34 C                     0.024455
     35 C                    -0.143654
     36 C                    -0.144425
     37 C                     0.026832
     38 O                    -0.186956
     39 H                     0.087277
     40 H                     0.084834
     41 H                     0.085333
     42 H                     0.089960
     43 H                     0.078758
     44 H                     0.073799
     45 H                     0.078430
     46 H                     0.073931
     47 H                     0.086823
     48 H                     0.120270
     49 H                     0.088060
     50 H                     0.084444
     51 H                     0.108960
     52 H                     0.079531
     53 H                     0.109544
     54 H                     0.078885
     55 H                     0.105143
     56 H                     0.085846
  ----------------------------------------
  Sum of atomic charges =     0.000000

                    Cartesian Multipole Moments
 -----------------------------------------------------------------
    Charge (ESU x 10^10)
                 0.0000
    Dipole Moment (Debye)
         X      -1.1189      Y       1.1359      Z       0.9493
       Tot       1.8556
    Quadrupole Moments (Debye-Ang)
        XX    -136.7180     XY      -2.1487     YY    -162.5904
        XZ      10.3845     YZ      -3.0619     ZZ    -159.9176

 Total job time:  157.49s(wall), 7518.92s(cpu)
        *  Thank you very much for using Q-Chem.  Have a nice day.  *
