 Q-Chem 5.0, Q-Chem, Inc., Pleasanton, CA (2017)
 Q-Chem 5.0.1 for Intel X86 EM64T Linux

User input:
--------------------------------------------------------------
$molecule
0  1
O -3.94934 -3.66094 2.70899
C -3.26408 -4.56952 2.26188
C -3.36658 -6.02376 2.66595
C -4.242 -6.35399 3.88597
C -5.05867 -5.21639 4.4578
O -6.388 -5.44684 4.24515
C -7.2291 -4.4111 4.76386
C -7.61542 -3.44143 3.65183
O -8.20775 -2.2608 4.21587
C -7.83737 -1.09034 3.63968
C -8.26197 0.11894 4.43844
C -7.52606 0.30386 5.77354
C -6.25965 -0.51002 5.94826
O -6.06757 -1.34344 6.8218
O -2.40005 -4.29669 1.24923
O -5.2675 -0.27442 5.04624
O -7.27405 -1.00583 2.55462
C -4.00519 -0.8232 5.09747
C -7.96269 1.48821 3.78155
C -8.91867 2.54221 4.34096
C -8.38878 2.68519 5.75488
C -7.14645 1.79038 5.67325
O -6.73484 1.89931 4.33121
H -9.36584 0.03828 4.56306
H -8.18595 0.06697 6.63741
H -8.0234 1.47222 2.67175
H -8.71203 3.487 3.78826
H -10.00168 2.30633 4.26205
H -8.10664 3.74889 5.91817
H -9.07833 2.34404 6.55732
H -6.39569 2.08192 6.4407
O -4.57752 -4.30921 5.12461
C -2.20285 -3.04072 0.71459
C -4.00397 -6.90008 1.57586
C -3.52645 -8.34089 1.73084
C -4.26108 -8.74395 2.99059
C -5.09772 -7.48223 3.24285
O -5.3558 -6.98459 1.95259
H -2.31747 -6.34412 2.85879
H -3.65919 -6.77119 4.73698
H -1.83361 -2.345 1.4983
H -3.80465 -6.53677 0.5439
H -3.94363 -8.91889 0.87512
H -2.42352 -8.47362 1.76099
H -4.92069 -9.60695 2.74827
H -3.61485 -8.99341 3.85974
H -5.98513 -7.75931 3.85276
H -3.15207 -2.6538 0.28593
H -1.44556 -3.104 -0.09347
H -3.41113 -0.44817 4.23907
H -4.06328 -1.92369 5.0313
H -3.49886 -0.52879 6.04128
H -6.67674 -3.20521 3.10051
H -8.31873 -3.94057 2.95172
H -6.75382 -3.82813 5.58428
H -8.13861 -4.85451 5.22097
$end

$opt
CONSTRAINT
tors           1           2           3           4     -10.120
tors           3           4           5           6    +112.002
tors           4           5           6           7    +179.832
tors           5           6           7           8     +97.805
tors           6           7           8           9    -167.584
tors           7           8           9          10    +139.228
tors           8           9          10          11    -168.348
tors           9          10          11          12     +69.036
tors          11          12          13          14    -119.550
ENDCONSTRAINT
$end

$rem
JOBTYPE                   OPT
METHOD                    B3LYP
DFT_D                     d3_op
BASIS                     STO-3G
GEOM_OPT_MAX_CYCLES       100
GEOM_OPT_TOL_GRADIENT     300
GEOM_OPT_TOL_DISPLACEMENT 1200
GEOM_OPT_TOL_ENERGY       100
SYMMETRY                  False
THRESH                    12
SCF_CONVERGENCE           8
MAX_SUB_FILE_NUM          128
MEM_STATIC                400
MEM_TOTAL                 4000
$end
--------------------------------------------------------------

   15   -1510.1584122718      7.08E-09 Convergence criterion met
 Total energy in the final basis set = -1510.15841227
   14   -1510.2279982721      3.24E-09 Convergence criterion met
 Total energy in the final basis set = -1510.22799827
   14   -1510.2640035051      9.59E-09 Convergence criterion met
 Total energy in the final basis set = -1510.26400351
   15   -1510.2781269498      1.86E-09 Convergence criterion met
 Total energy in the final basis set = -1510.27812695
   14   -1510.2865620283      6.75E-09 Convergence criterion met
 Total energy in the final basis set = -1510.28656203
   13   -1510.2884615486      5.97E-09 Convergence criterion met
 Total energy in the final basis set = -1510.28846155
    2   -1510.2884615485      7.41E-09 Convergence criterion met
 Total energy in the final basis set = -1510.28846155
   13   -1510.2903278939      3.96E-09 Convergence criterion met
   12   -1510.2933023218      6.75E-09 Convergence criterion met
 Total energy in the final basis set = -1510.29330232
   11   -1510.2934037169      7.62E-09 Convergence criterion met
 Total energy in the final basis set = -1510.29340372
   11   -1510.2934419680      6.72E-09 Convergence criterion met
 Total energy in the final basis set = -1510.29344197
   11   -1510.2934728319      2.75E-09 Convergence criterion met
 Total energy in the final basis set = -1510.29347283
   11   -1510.2934827700      2.74E-09 Convergence criterion met
 Total energy in the final basis set = -1510.29348277
    9   -1510.2934880032      8.87E-09 Convergence criterion met
 Total energy in the final basis set = -1510.29348800

             Standard Nuclear Orientation (Angstroms)
    I     Atom           X                Y                Z
 ----------------------------------------------------------------
    1      O       1.6428205628    -0.8574361718     0.5501340697
    2      C       2.6989635394    -1.4547507400     0.2321189009
    3      C       3.9457786407    -0.8164913999    -0.4668428379
    4      C       3.6344331242     0.6523199533    -0.9742789590
    5      C       2.0987164816     0.9950009258    -0.9231524149
    6      O       1.8533397478     1.9894198784     0.0716265337
    7      C       0.4097256501     2.3252967708     0.1281621387
    8      C      -0.2439909534     1.5104619653     1.3043868536
    9      O      -1.7149062315     1.6142789146     1.1647722928
   10      C      -2.3664877063     0.3670420383     1.4403690844
   11      C      -3.8505354429     0.5471260914     0.9637858954
   12      C      -3.9622148050     0.6521238764    -0.6191116280
   13      C      -2.5924618239     0.3996869668    -1.3465287513
   14      O      -1.9667827394     1.1888105926    -2.0891617196
   15      O       2.9435668445    -2.8317358182     0.4928490716
   16      O      -2.1674539619    -0.9191948220    -1.0096596231
   17      O      -1.8177782145    -0.6305194431     1.9515387135
   18      C      -0.9232639146    -1.2856751549    -1.7258698105
   19      C      -4.7693339807    -0.7078978919     1.2593392690
   20      C      -6.2735286056    -0.2389949081     1.1586323483
   21      C      -6.4277210766    -0.0598718908    -0.3984330782
   22      C      -5.0004203953    -0.5168449395    -0.9047023224
   23      O      -4.6049484618    -1.5653156842     0.0624393456
   24      H      -4.2518444807     1.4618111274     1.4367988180
   25      H      -4.3440471201     1.6389132739    -0.9341278711
   26      H      -4.4972991545    -1.2675685497     2.1751157033
   27      H      -6.9465331893    -1.0227423213     1.5416060250
   28      H      -6.4620228289     0.6925919703     1.7160060097
   29      H      -7.2111273233    -0.7178655366    -0.8067676400
   30      H      -6.6545451583     0.9793719857    -0.6853757746
   31      H      -4.9730759371    -0.9138946941    -1.9380741700
   32      O       1.2576901186     0.6249868158    -1.7779023728
   33      C       1.7772840143    -3.4295400196     1.1898840873
   34      C       5.0691281875    -0.5202520525     0.6193325657
   35      C       6.3931058747    -0.0793743998    -0.1198750695
   36      C       6.0382223316     1.3975219669    -0.5307716807
   37      C       4.5534262274     1.5093512580    -0.0061126214
   38      O       4.5792656983     0.7255116952     1.2524326344
   39      H       4.3046804340    -1.4853079418    -1.2691669752
   40      H       3.9517558709     0.7628992488    -2.0268623236
   41      H       0.8587082049    -3.3649926415     0.5717393675
   42      H       5.1927275646    -1.3224148269     1.3728127326
   43      H       7.2488790227    -0.1139743868     0.5728842029
   44      H       6.6162798705    -0.7208242075    -0.9877463072
   45      H       6.6838251851     2.1253660301    -0.0140752011
   46      H       6.1110806024     1.5677526675    -1.6167346178
   47      H       4.1851220029     2.5350340594     0.1844373291
   48      H       1.5842431770    -2.9282184589     2.1599122793
   49      H       2.0377630057    -4.4898923662     1.3617487201
   50      H      -0.5567228145    -2.2044088693    -1.2329270167
   51      H      -0.1447795968    -0.4859977451    -1.6775697722
   52      H      -1.1407850298    -1.5087473431    -2.7904885676
   53      H       0.0863144929     0.4490821806     1.2446997438
   54      H       0.0731518578     1.9234321451     2.2860720268
   55      H      -0.0862474180     2.0510068236    -0.8307057564
   56      H       0.3338178254     3.4171146023     0.3015286045
 ----------------------------------------------------------------

    9   -1510.2934885504      7.48E-09 Convergence criterion met
 Total energy in the final basis set = -1510.29348855
 Final energy is   -1510.29348855043
 **  OPTIMIZATION CONVERGED  **

                    Orbital Energies (a.u.)
 --------------------------------------------------------------

 Alpha MOs
 -- Occupied --
-18.951 -18.930 -18.919 -18.918 -18.893 -18.891 -18.880 -18.870
-18.867 -18.859 -10.113 -10.102 -10.092 -10.085 -10.071 -10.066
-10.061 -10.059 -10.054 -10.053 -10.052 -10.045 -10.039 -10.031
-10.030 -10.028 -10.024 -10.022 -10.015 -10.014  -1.026  -1.008
 -1.002  -0.993  -0.974  -0.962  -0.949  -0.933  -0.927  -0.920
 -0.767  -0.756  -0.727  -0.719  -0.713  -0.699  -0.688  -0.669
 -0.641  -0.611  -0.593  -0.574  -0.550  -0.540  -0.538  -0.530
 -0.516  -0.502  -0.485  -0.471  -0.465  -0.457  -0.455  -0.438
 -0.433  -0.427  -0.423  -0.418  -0.413  -0.406  -0.395  -0.393
 -0.390  -0.381  -0.370  -0.363  -0.358  -0.356  -0.351  -0.345
 -0.342  -0.337  -0.333  -0.328  -0.323  -0.318  -0.317  -0.315
 -0.307  -0.304  -0.300  -0.299  -0.287  -0.284  -0.281  -0.276
 -0.266  -0.266  -0.247  -0.238  -0.236  -0.229  -0.227  -0.191
 -0.178  -0.167  -0.160  -0.158  -0.152  -0.148  -0.145  -0.137
 -0.135

          Ground-State Mulliken Net Atomic Charges

     Atom                 Charge (a.u.)
  ----------------------------------------
      1 O                    -0.206546
      2 C                     0.219042
      3 C                    -0.077925
      4 C                    -0.080714
      5 C                     0.223346
      6 O                    -0.170801
      7 C                    -0.053841
      8 C                    -0.058039
      9 O                    -0.180912
     10 C                     0.213246
     11 C                    -0.077692
     12 C                    -0.078018
     13 C                     0.205620
     14 O                    -0.217146
     15 O                    -0.165163
     16 O                    -0.168663
     17 O                    -0.208311
     18 C                    -0.145756
     19 C                     0.024650
     20 C                    -0.143520
     21 C                    -0.144509
     22 C                     0.026160
     23 O                    -0.184536
     24 H                     0.083542
     25 H                     0.083075
     26 H                     0.087098
     27 H                     0.076602
     28 H                     0.072046
     29 H                     0.076554
     30 H                     0.072718
     31 H                     0.081762
     32 O                    -0.226302
     33 C                    -0.127963
     34 C                     0.024869
     35 C                    -0.144030
     36 C                    -0.143561
     37 C                     0.024540
     38 O                    -0.189362
     39 H                     0.088996
     40 H                     0.085790
     41 H                     0.094816
     42 H                     0.085153
     43 H                     0.079079
     44 H                     0.074517
     45 H                     0.078655
     46 H                     0.074060
     47 H                     0.092834
     48 H                     0.095770
     49 H                     0.093997
     50 H                     0.077618
     51 H                     0.116603
     52 H                     0.075730
     53 H                     0.110722
     54 H                     0.080166
     55 H                     0.107966
     56 H                     0.085969
  ----------------------------------------
  Sum of atomic charges =     0.000000

                    Cartesian Multipole Moments
 -----------------------------------------------------------------
    Charge (ESU x 10^10)
                -0.0000
    Dipole Moment (Debye)
         X       1.6768      Y      -0.1413      Z       0.0265
       Tot       1.6829
    Quadrupole Moments (Debye-Ang)
        XX    -135.9160     XY      -6.9415     YY    -156.5678
        XZ      -6.0710     YZ       1.2481     ZZ    -162.1893

 Total job time:  57.01s(wall), 2715.34s(cpu)
        *  Thank you very much for using Q-Chem.  Have a nice day.  *
