 Q-Chem 5.0, Q-Chem, Inc., Pleasanton, CA (2017)
 Q-Chem 5.0.1 for Intel X86 EM64T Linux

User input:
--------------------------------------------------------------
$molecule
0  1
O 1.6428205628 -0.8574361718 0.5501340697
C 2.6989635394 -1.45475074 0.2321189009
C 3.9457786407 -0.8164913999 -0.4668428379
C 3.6344331242 0.6523199533 -0.974278959
C 2.0987164816 0.9950009258 -0.9231524149
O 1.8533397478 1.9894198784 0.0716265337
C 0.4097256501 2.3252967708 0.1281621387
C -0.2439909534 1.5104619653 1.3043868536
O -1.7149062315 1.6142789146 1.1647722928
C -2.3664877063 0.3670420383 1.4403690844
C -3.8505354429 0.5471260914 0.9637858954
C -3.962214805 0.6521238764 -0.619111628
C -2.5924618239 0.3996869668 -1.3465287513
O -1.9667827394 1.1888105926 -2.0891617196
O 2.9435668445 -2.8317358182 0.4928490716
O -2.1674539619 -0.919194822 -1.0096596231
O -1.8177782145 -0.6305194431 1.9515387135
C -0.9232639146 -1.2856751549 -1.7258698105
C -4.7693339807 -0.7078978919 1.259339269
C -6.2735286056 -0.2389949081 1.1586323483
C -6.4277210766 -0.0598718908 -0.3984330782
C -5.0004203953 -0.5168449395 -0.9047023224
O -4.6049484618 -1.5653156842 0.0624393456
H -4.2518444807 1.4618111274 1.436798818
H -4.3440471201 1.6389132739 -0.9341278711
H -4.4972991545 -1.2675685497 2.1751157033
H -6.9465331893 -1.0227423213 1.541606025
H -6.4620228289 0.6925919703 1.7160060097
H -7.2111273233 -0.7178655366 -0.80676764
H -6.6545451583 0.9793719857 -0.6853757746
H -4.9730759371 -0.9138946941 -1.93807417
O 1.2576901186 0.6249868158 -1.7779023728
C 1.7772840143 -3.4295400196 1.1898840873
C 5.0691281875 -0.5202520525 0.6193325657
C 6.3931058747 -0.0793743998 -0.1198750695
C 6.0382223316 1.3975219669 -0.5307716807
C 4.5534262274 1.509351258 -0.0061126214
O 4.5792656983 0.7255116952 1.2524326344
H 4.304680434 -1.4853079418 -1.2691669752
H 3.9517558709 0.7628992488 -2.0268623236
H 0.8587082049 -3.3649926415 0.5717393675
H 5.1927275646 -1.3224148269 1.3728127326
H 7.2488790227 -0.1139743868 0.5728842029
H 6.6162798705 -0.7208242075 -0.9877463072
H 6.6838251851 2.1253660301 -0.0140752011
H 6.1110806024 1.5677526675 -1.6167346178
H 4.1851220029 2.5350340594 0.1844373291
H 1.584243177 -2.9282184589 2.1599122793
H 2.0377630057 -4.4898923662 1.3617487201
H -0.5567228145 -2.2044088693 -1.2329270167
H -0.1447795968 -0.4859977451 -1.6775697722
H -1.1407850298 -1.5087473431 -2.7904885676
H 0.0863144929 0.4490821806 1.2446997438
H 0.0731518578 1.9234321451 2.2860720268
H -0.086247418 2.0510068236 -0.8307057564
H 0.3338178254 3.4171146023 0.3015286045
$end

$rem
JOBTYPE                   OPT
METHOD                    B3LYP
DFT_D                     d3_op
BASIS                     STO-3G
GEOM_OPT_MAX_CYCLES       100
GEOM_OPT_TOL_GRADIENT     300
GEOM_OPT_TOL_DISPLACEMENT 1200
GEOM_OPT_TOL_ENERGY       100
SYMMETRY                  False
THRESH                    12
SCF_CONVERGENCE           8
MAX_SUB_FILE_NUM          128
MEM_STATIC                400
MEM_TOTAL                 4000
$end
--------------------------------------------------------------

   16   -1510.2936274609      5.39E-09 Convergence criterion met
 Total energy in the final basis set = -1510.29362746
   14   -1510.2925447962      2.25E-09 Convergence criterion met
 Total energy in the final basis set = -1510.29254480
   14   -1510.2914784560      4.89E-09 Convergence criterion met
 Total energy in the final basis set = -1510.29147846
   14   -1510.2871640637      4.78E-09 Convergence criterion met
 Total energy in the final basis set = -1510.28716406
   14   -1510.2844947190      4.12E-09 Convergence criterion met
 Total energy in the final basis set = -1510.28449472
   14   -1510.2915074275      4.60E-09 Convergence criterion met
 Total energy in the final basis set = -1510.29150743
   14   -1510.2915499457      3.94E-09 Convergence criterion met
 Total energy in the final basis set = -1510.29154995
   14   -1510.2940859497      3.76E-09 Convergence criterion met
   12   -1510.2982284130      8.71E-09 Convergence criterion met
 Total energy in the final basis set = -1510.29822841
   10   -1510.2982308544      8.97E-09 Convergence criterion met
 Total energy in the final basis set = -1510.29823085
   10   -1510.2982369106      6.10E-09 Convergence criterion met
 Total energy in the final basis set = -1510.29823691
   12   -1510.2982424356      1.64E-09 Convergence criterion met
 Total energy in the final basis set = -1510.29824244
   10   -1510.2982397755      4.82E-09 Convergence criterion met
 Total energy in the final basis set = -1510.29823978
    9   -1510.2982387127      2.27E-09 Convergence criterion met
 Total energy in the final basis set = -1510.29823871

             Standard Nuclear Orientation (Angstroms)
    I     Atom           X                Y                Z
 ----------------------------------------------------------------
    1      O      -1.1641908793     0.7438466360    -0.3747796968
    2      C      -2.2441319923     1.3262794610    -0.1103549130
    3      C      -3.6717804172     0.8288311493    -0.5239427141
    4      C      -3.6878994864    -0.6951152807    -0.9715662434
    5      C      -2.2885225520    -1.4087617127    -0.8695597442
    6      O      -2.0755261054    -1.8088406183     0.4887700951
    7      C      -0.6759035171    -2.2608821268     0.6953083741
    8      C       0.0516995587    -1.1138764408     1.4795117413
    9      O       1.5156934213    -1.2080639752     1.2697629554
   10      C       2.0904328558     0.1022752810     1.2097002449
   11      C       3.6313705304    -0.0819191638     0.9916904180
   12      C       3.9914994600    -0.9034942867    -0.3161182572
   13      C       2.7569580438    -1.2266945282    -1.2295090413
   14      O       2.4716348466    -2.3243869032    -1.7560033787
   15      O      -2.3376839687     2.5392012203     0.6190324743
   16      O       2.0248007469    -0.0162086702    -1.4240206392
   17      O       1.4600790795     1.1721137117     1.3616763141
   18      C       0.9524418203    -0.2028721853    -2.4307692492
   19      C       4.3746181682     1.2902623723     0.7184584949
   20      C       5.9119742624     1.0772285860     1.0035360093
   21      C       6.3232503518     0.1925319997    -0.2321367276
   22      C       4.9623621584     0.1310999106    -1.0358462681
   23      O       4.3244205605     1.4364616543    -0.7549518211
   24      H       4.0397732948    -0.5877823993     1.8860090040
   25      H       4.5008866370    -1.8530074449    -0.0766404435
   26      H       3.9030537664     2.1632348578     1.2104499236
   27      H       6.4403286337     2.0439990339     0.9991295736
   28      H       6.0963293600     0.5779176073     1.9681987958
   29      H       7.1073278046     0.6774690263    -0.8349553568
   30      H       6.6732323329    -0.8100578127     0.0616022544
   31      H       5.0678164618    -0.0223875193    -2.1274649681
   32      O      -1.5321576202    -1.7038988291    -1.8250203149
   33      C      -0.9850086065     3.0502855572     0.9714500647
   34      C      -4.6944160073     0.8061566149     0.6923632175
   35      C      -6.1565184500     0.7042803789     0.1068822901
   36      C      -6.1861765771    -0.7953509608    -0.3689989052
   37      C      -4.7444951281    -1.2835952765     0.0587309941
   38      O      -4.4726883808    -0.5242742192     1.3014862330
   39      H      -4.0389067826     1.4851002651    -1.3349890289
   40      H      -4.0318203065    -0.7926480319    -2.0164102420
   41      H      -0.6147509682     3.7125245648     0.1627814729
   42      H      -4.5273438900     1.6129431741     1.4318619191
   43      H      -6.8994013724     0.8910354349     0.8986031727
   44      H      -6.3287278542     1.4184490141    -0.7140331710
   45      H      -6.9607843706    -1.3722941802     0.1607041935
   46      H      -6.3518610459    -0.8943930093    -1.4536530424
   47      H      -4.6494078721    -2.3711411572     0.2414822613
   48      H      -0.2454828847     2.2323670708     1.1296045342
   49      H      -1.1106827073     3.6425482506     1.8964193082
   50      H       0.5363234024     0.8056800724    -2.6060580746
   51      H       0.1351542635    -0.8761980622    -2.0801701309
   52      H       1.3652881700    -0.6031152086    -3.3786296331
   53      H      -0.3135444672    -0.1456048865     1.0693268495
   54      H      -0.1790761064    -1.1691360690     2.5647002039
   55      H      -0.1849338620    -2.4336342413    -0.2868367438
   56      H      -0.7056083671    -3.2071446429     1.2719303590
 ----------------------------------------------------------------

    9   -1510.2982382690      2.39E-09 Convergence criterion met
 Total energy in the final basis set = -1510.29823827
 Final energy is   -1510.29823826902
 **  OPTIMIZATION CONVERGED  **

                    Orbital Energies (a.u.)
 --------------------------------------------------------------

 Alpha MOs
 -- Occupied --
-18.947 -18.928 -18.927 -18.918 -18.890 -18.888 -18.883 -18.875
-18.871 -18.859 -10.112 -10.101 -10.100 -10.085 -10.063 -10.062
-10.062 -10.055 -10.054 -10.054 -10.053 -10.044 -10.039 -10.033
-10.033 -10.030 -10.023 -10.021 -10.017 -10.016  -1.023  -1.010
 -1.005  -0.994  -0.972  -0.965  -0.946  -0.936  -0.931  -0.920
 -0.766  -0.759  -0.727  -0.721  -0.712  -0.702  -0.690  -0.661
 -0.641  -0.610  -0.595  -0.576  -0.548  -0.541  -0.539  -0.533
 -0.516  -0.504  -0.485  -0.472  -0.465  -0.460  -0.449  -0.438
 -0.435  -0.431  -0.425  -0.416  -0.406  -0.402  -0.398  -0.396
 -0.392  -0.380  -0.371  -0.364  -0.356  -0.354  -0.352  -0.342
 -0.342  -0.334  -0.333  -0.326  -0.325  -0.322  -0.317  -0.316
 -0.307  -0.305  -0.301  -0.299  -0.287  -0.285  -0.283  -0.282
 -0.265  -0.263  -0.244  -0.239  -0.236  -0.233  -0.229  -0.189
 -0.177  -0.167  -0.164  -0.160  -0.153  -0.151  -0.146  -0.138
 -0.137

          Ground-State Mulliken Net Atomic Charges

     Atom                 Charge (a.u.)
  ----------------------------------------
      1 O                    -0.213117
      2 C                     0.218708
      3 C                    -0.078045
      4 C                    -0.080266
      5 C                     0.220297
      6 O                    -0.172710
      7 C                    -0.053026
      8 C                    -0.061634
      9 O                    -0.175856
     10 C                     0.223766
     11 C                    -0.078045
     12 C                    -0.077947
     13 C                     0.208334
     14 O                    -0.216751
     15 O                    -0.166543
     16 O                    -0.170195
     17 O                    -0.217179
     18 C                    -0.138856
     19 C                     0.024743
     20 C                    -0.143567
     21 C                    -0.144438
     22 C                     0.025696
     23 O                    -0.185757
     24 H                     0.083601
     25 H                     0.083760
     26 H                     0.087969
     27 H                     0.077123
     28 H                     0.072293
     29 H                     0.077081
     30 H                     0.073351
     31 H                     0.082007
     32 O                    -0.219376
     33 C                    -0.141400
     34 C                     0.024393
     35 C                    -0.143651
     36 C                    -0.144433
     37 C                     0.026805
     38 O                    -0.186890
     39 H                     0.087263
     40 H                     0.084826
     41 H                     0.085332
     42 H                     0.090026
     43 H                     0.078763
     44 H                     0.073794
     45 H                     0.078439
     46 H                     0.073933
     47 H                     0.086776
     48 H                     0.120138
     49 H                     0.088100
     50 H                     0.084704
     51 H                     0.108714
     52 H                     0.079696
     53 H                     0.109562
     54 H                     0.078819
     55 H                     0.104936
     56 H                     0.085932
  ----------------------------------------
  Sum of atomic charges =     0.000000

                    Cartesian Multipole Moments
 -----------------------------------------------------------------
    Charge (ESU x 10^10)
                 0.0000
    Dipole Moment (Debye)
         X      -1.1282      Y       1.1170      Z       0.9926
       Tot       1.8724
    Quadrupole Moments (Debye-Ang)
        XX    -136.6411     XY      -2.3886     YY    -162.4332
        XZ      10.3143     YZ      -3.0536     ZZ    -160.1762

 Total job time:  153.78s(wall), 7341.14s(cpu)
        *  Thank you very much for using Q-Chem.  Have a nice day.  *
