 Q-Chem 5.0, Q-Chem, Inc., Pleasanton, CA (2017)
 Q-Chem 5.0.1 for Intel X86 EM64T Linux

User input:
--------------------------------------------------------------
$molecule
0  1
O -3.94934 -3.66094 2.70899
C -3.26408 -4.56952 2.26188
C -3.36658 -6.02376 2.66595
C -4.242 -6.35399 3.88597
C -5.05867 -5.21639 4.4578
O -6.38922 -5.5139 4.37682
C -7.23006 -4.48187 4.90327
C -7.8403 -3.66968 3.76569
O -8.44569 -2.47592 4.28659
C -8.22631 -1.34848 3.56556
C -8.71674 -0.10074 4.26075
C -7.91823 0.30084 5.50951
C -6.56845 -0.36826 5.67416
O -6.26335 -1.13654 6.57484
O -2.40032 -4.29677 1.24898
O -5.65697 -0.13911 4.68949
O -7.75048 -1.33289 2.4363
C -4.38058 -0.65805 4.66634
C -8.59817 1.20864 3.44326
C -9.61798 2.22507 3.95777
C -9.01772 2.57297 5.30661
C -7.69852 1.7956 5.22779
O -7.38573 1.79173 3.85496
H -9.79689 -0.26755 4.47548
H -8.49553 0.09492 6.43805
H -8.72684 1.06351 2.34876
H -9.54155 3.11751 3.29555
H -10.67495 1.88309 3.98319
H -8.83601 3.67011 5.33761
H -9.61716 2.25861 6.18846
H -6.93409 2.23955 5.90316
O -4.56334 -4.29206 5.09276
C -2.20244 -3.04061 0.715
C -4.00698 -6.90079 1.57759
C -3.52365 -8.33974 1.72863
C -4.24673 -8.74505 2.99437
C -5.09222 -7.48932 3.24917
O -5.35735 -6.9924 1.96016
H -2.31743 -6.34564 2.85662
H -3.64593 -6.75543 4.73548
H -1.83236 -2.34564 1.49898
H -3.81414 -6.5359 0.54494
H -3.9473 -8.91757 0.87593
H -2.42038 -8.47142 1.74898
H -4.89843 -9.61602 2.75931
H -3.59261 -8.98398 3.8606
H -5.97532 -7.77714 3.8597
H -3.15154 -2.65266 0.28701
H -1.44551 -3.10394 -0.0934
H -3.86203 -0.30831 3.75027
H -4.42074 -1.7646 4.65173
H -3.81138 -0.31373 5.55592
H -7.00732 -3.44294 3.06124
H -8.59144 -4.29076 3.2329
H -6.69993 -3.76306 5.5661
H -8.02526 -4.92512 5.5389
$end

$opt
CONSTRAINT
tors           1           2           3           4     -10.120
tors           3           4           5           6    +118.597
tors           4           5           6           7    +179.872
tors           5           6           7           8    +102.203
tors           6           7           8           9    -167.829
tors           7           8           9          10    +137.724
tors           8           9          10          11    -171.809
tors           9          10          11          12     +69.312
tors          11          12          13          14    -115.159
ENDCONSTRAINT
$end

$rem
JOBTYPE                   OPT
METHOD                    B3LYP
DFT_D                     d3_op
BASIS                     STO-3G
GEOM_OPT_MAX_CYCLES       100
GEOM_OPT_TOL_GRADIENT     300
GEOM_OPT_TOL_DISPLACEMENT 1200
GEOM_OPT_TOL_ENERGY       100
SYMMETRY                  False
THRESH                    12
SCF_CONVERGENCE           8
MAX_SUB_FILE_NUM          128
MEM_STATIC                400
MEM_TOTAL                 4000
$end
--------------------------------------------------------------

   15   -1510.1560570467      7.14E-09 Convergence criterion met
 Total energy in the final basis set = -1510.15605705
   14   -1510.2257325627      2.49E-09 Convergence criterion met
 Total energy in the final basis set = -1510.22573256
   15   -1510.2630153225      1.89E-09 Convergence criterion met
 Total energy in the final basis set = -1510.26301532
   15   -1510.2775688028      1.42E-09 Convergence criterion met
 Total energy in the final basis set = -1510.27756880
   15   -1510.2838346083      2.34E-09 Convergence criterion met
 Total energy in the final basis set = -1510.28383461
   13   -1510.2848554407      9.54E-09 Convergence criterion met
 Total energy in the final basis set = -1510.28485544
   13   -1510.2876003356      3.52E-09 Convergence criterion met
 Total energy in the final basis set = -1510.28760034
   13   -1510.2894495858      3.88E-09 Convergence criterion met
   12   -1510.2928326498      3.37E-09 Convergence criterion met
 Total energy in the final basis set = -1510.29283265
   11   -1510.2929464931      6.91E-09 Convergence criterion met
 Total energy in the final basis set = -1510.29294649
   11   -1510.2930499073      8.67E-09 Convergence criterion met
 Total energy in the final basis set = -1510.29304991
   11   -1510.2930920835      4.18E-09 Convergence criterion met
 Total energy in the final basis set = -1510.29309208
   11   -1510.2931191794      4.02E-09 Convergence criterion met
 Total energy in the final basis set = -1510.29311918
   10   -1510.2931331396      8.64E-09 Convergence criterion met
 Total energy in the final basis set = -1510.29313314

             Standard Nuclear Orientation (Angstroms)
    I     Atom           X                Y                Z
 ----------------------------------------------------------------
    1      O       1.6739451079    -0.7668642853     0.6292971874
    2      C       2.7113239663    -1.4114673927     0.3417701748
    3      C       3.9772878186    -0.8376759159    -0.3822778204
    4      C       3.6894409440     0.6139094685    -0.9455914548
    5      C       2.1497163214     0.9297608731    -1.0113294876
    6      O       1.8393934127     2.0441973254    -0.1735675372
    7      C       0.3879592074     2.3417372331    -0.2397539102
    8      C      -0.2804323263     1.7692981325     1.0618542845
    9      O      -1.7478728108     1.7983113724     0.8645279823
   10      C      -2.3663377963     0.5983952017     1.3468957198
   11      C      -3.8634714081     0.6712668900     0.8868162623
   12      C      -4.0059512685     0.5162219764    -0.6909700522
   13      C      -2.6337417599     0.2345428061    -1.4051722889
   14      O      -2.0354313102     0.9689273608    -2.2229878967
   15      O       2.9164238919    -2.7807771263     0.6682117432
   16      O      -2.1582533264    -1.0298088332    -0.9471056615
   17      O      -1.7849550621    -0.2985889232     1.9912309055
   18      C      -0.9078002746    -1.4165580783    -1.6427954390
   19      C      -4.7316656361    -0.5501267317     1.3977425213
   20      C      -6.2546043729    -0.1629365925     1.2383215127
   21      C      -6.4292973759    -0.2683312987    -0.3229935787
   22      C      -4.9840492570    -0.7347836464    -0.7645101179
   23      O      -4.5338584136    -1.5868140744     0.3587731796
   24      H      -4.2816143481     1.6385918212     1.2185431782
   25      H      -4.4485518998     1.4198109049    -1.1454421186
   26      H      -4.4329720805    -0.9383985563     2.3907256243
   27      H      -6.8941938020    -0.8886842661     1.7653780115
   28      H      -6.4712164668     0.8457384255     1.6246324730
   29      H      -7.1792519365    -1.0276881879    -0.5960610512
   30      H      -6.7130573058     0.6904526954    -0.7854052980
   31      H      -4.9410882121    -1.2963404447    -1.7177306461
   32      O       1.3543697792     0.4253149682    -1.8412116968
   33      C       1.7304715289    -3.3126535069     1.3849946613
   34      C       5.0807546417    -0.5073956626     0.7135923643
   35      C       6.4119804194    -0.0536565224    -0.0055108838
   36      C       6.0508099790     1.4200085019    -0.4241318713
   37      C       4.5469773811     1.5053245779     0.0475925926
   38      O       4.5520190819     0.7382923092     1.3168305759
   39      H       4.3326486487    -1.5468025923    -1.1507617799
   40      H       4.0736601544     0.6985184187    -1.9784447945
   41      H       0.8194141186    -3.2607551776     0.7545522873
   42      H       5.2035368954    -1.2950496026     1.4823208862
   43      H       7.2581025535    -0.0810132705     0.6992732344
   44      H       6.6526780519    -0.6937892572    -0.8697290107
   45      H       6.6660420347     2.1546357136     0.1194371710
   46      H       6.1607933902     1.5963925471    -1.5059433457
   47      H       4.1459573564     2.5234252873     0.2108831877
   48      H       1.5400197605    -2.7549940826     2.3243578334
   49      H       1.9641915021    -4.3678876199     1.6164952214
   50      H      -0.5413075530    -2.3142514384    -1.1125340347
   51      H      -0.1276106977    -0.6176470233    -1.6225025950
   52      H      -1.1159516065    -1.6805394174    -2.6998843474
   53      H       0.0695433915     0.7260184910     1.2298657259
   54      H      -0.0068006965     2.3836844426     1.9461447326
   55      H      -0.0640009648     1.8617857901    -1.1371624090
   56      H       0.2760173974     3.4428763472    -0.2992994445
 ----------------------------------------------------------------

   10   -1510.2931329686      8.71E-09 Convergence criterion met
 Total energy in the final basis set = -1510.29313297
 Final energy is   -1510.29313296861
 **  OPTIMIZATION CONVERGED  **

                    Orbital Energies (a.u.)
 --------------------------------------------------------------

 Alpha MOs
 -- Occupied --
-18.950 -18.931 -18.921 -18.919 -18.891 -18.890 -18.881 -18.871
-18.866 -18.860 -10.111 -10.102 -10.092 -10.086 -10.070 -10.065
-10.060 -10.059 -10.055 -10.054 -10.052 -10.044 -10.038 -10.033
-10.031 -10.028 -10.024 -10.022 -10.015 -10.014  -1.025  -1.008
 -1.003  -0.995  -0.973  -0.962  -0.948  -0.933  -0.928  -0.921
 -0.767  -0.757  -0.727  -0.720  -0.712  -0.700  -0.688  -0.668
 -0.643  -0.611  -0.593  -0.574  -0.549  -0.540  -0.539  -0.531
 -0.515  -0.503  -0.484  -0.471  -0.465  -0.458  -0.455  -0.439
 -0.434  -0.427  -0.423  -0.417  -0.412  -0.406  -0.395  -0.394
 -0.390  -0.380  -0.370  -0.364  -0.359  -0.355  -0.352  -0.345
 -0.341  -0.337  -0.332  -0.327  -0.323  -0.319  -0.318  -0.315
 -0.306  -0.303  -0.301  -0.299  -0.287  -0.284  -0.280  -0.277
 -0.266  -0.264  -0.247  -0.239  -0.237  -0.231  -0.227  -0.190
 -0.179  -0.166  -0.161  -0.159  -0.153  -0.149  -0.145  -0.138
 -0.136

          Ground-State Mulliken Net Atomic Charges

     Atom                 Charge (a.u.)
  ----------------------------------------
      1 O                    -0.206449
      2 C                     0.218568
      3 C                    -0.077437
      4 C                    -0.080613
      5 C                     0.223198
      6 O                    -0.171145
      7 C                    -0.054615
      8 C                    -0.056828
      9 O                    -0.179435
     10 C                     0.212563
     11 C                    -0.077795
     12 C                    -0.078035
     13 C                     0.205523
     14 O                    -0.217278
     15 O                    -0.165459
     16 O                    -0.168498
     17 O                    -0.207785
     18 C                    -0.143974
     19 C                     0.024768
     20 C                    -0.143794
     21 C                    -0.144430
     22 C                     0.026295
     23 O                    -0.184693
     24 H                     0.084040
     25 H                     0.083107
     26 H                     0.087185
     27 H                     0.076771
     28 H                     0.072179
     29 H                     0.076645
     30 H                     0.072813
     31 H                     0.082179
     32 O                    -0.228175
     33 C                    -0.127860
     34 C                     0.024574
     35 C                    -0.144341
     36 C                    -0.143064
     37 C                     0.023785
     38 O                    -0.190232
     39 H                     0.089029
     40 H                     0.085376
     41 H                     0.094261
     42 H                     0.085069
     43 H                     0.078995
     44 H                     0.074472
     45 H                     0.078536
     46 H                     0.073909
     47 H                     0.093469
     48 H                     0.095893
     49 H                     0.093639
     50 H                     0.078141
     51 H                     0.114399
     52 H                     0.076933
     53 H                     0.109857
     54 H                     0.080919
     55 H                     0.109298
     56 H                     0.085545
  ----------------------------------------
  Sum of atomic charges =    -0.000000

                    Cartesian Multipole Moments
 -----------------------------------------------------------------
    Charge (ESU x 10^10)
                 0.0000
    Dipole Moment (Debye)
         X       1.4795      Y      -0.0596      Z      -0.0466
       Tot       1.4814
    Quadrupole Moments (Debye-Ang)
        XX    -135.0698     XY      -6.3566     YY    -156.0695
        XZ      -5.1772     YZ       1.2122     ZZ    -163.0937

 Total job time:  55.49s(wall), 2641.44s(cpu)
        *  Thank you very much for using Q-Chem.  Have a nice day.  *
