 Q-Chem 5.0, Q-Chem, Inc., Pleasanton, CA (2017)
 Q-Chem 5.0.1 for Intel X86 EM64T Linux

User input:
--------------------------------------------------------------
$molecule
0  1
O 1.6739451079 -0.7668642853 0.6292971874
C 2.7113239663 -1.4114673927 0.3417701748
C 3.9772878186 -0.8376759159 -0.3822778204
C 3.689440944 0.6139094685 -0.9455914548
C 2.1497163214 0.9297608731 -1.0113294876
O 1.8393934127 2.0441973254 -0.1735675372
C 0.3879592074 2.3417372331 -0.2397539102
C -0.2804323263 1.7692981325 1.0618542845
O -1.7478728108 1.7983113724 0.8645279823
C -2.3663377963 0.5983952017 1.3468957198
C -3.8634714081 0.67126689 0.8868162623
C -4.0059512685 0.5162219764 -0.6909700522
C -2.6337417599 0.2345428061 -1.4051722889
O -2.0354313102 0.9689273608 -2.2229878967
O 2.9164238919 -2.7807771263 0.6682117432
O -2.1582533264 -1.0298088332 -0.9471056615
O -1.7849550621 -0.2985889232 1.9912309055
C -0.9078002746 -1.4165580783 -1.642795439
C -4.7316656361 -0.5501267317 1.3977425213
C -6.2546043729 -0.1629365925 1.2383215127
C -6.4292973759 -0.2683312987 -0.3229935787
C -4.984049257 -0.7347836464 -0.7645101179
O -4.5338584136 -1.5868140744 0.3587731796
H -4.2816143481 1.6385918212 1.2185431782
H -4.4485518998 1.4198109049 -1.1454421186
H -4.4329720805 -0.9383985563 2.3907256243
H -6.894193802 -0.8886842661 1.7653780115
H -6.4712164668 0.8457384255 1.624632473
H -7.1792519365 -1.0276881879 -0.5960610512
H -6.7130573058 0.6904526954 -0.785405298
H -4.9410882121 -1.2963404447 -1.7177306461
O 1.3543697792 0.4253149682 -1.8412116968
C 1.7304715289 -3.3126535069 1.3849946613
C 5.0807546417 -0.5073956626 0.7135923643
C 6.4119804194 -0.0536565224 -0.0055108838
C 6.050809979 1.4200085019 -0.4241318713
C 4.5469773811 1.5053245779 0.0475925926
O 4.5520190819 0.7382923092 1.3168305759
H 4.3326486487 -1.5468025923 -1.1507617799
H 4.0736601544 0.6985184187 -1.9784447945
H 0.8194141186 -3.2607551776 0.7545522873
H 5.2035368954 -1.2950496026 1.4823208862
H 7.2581025535 -0.0810132705 0.6992732344
H 6.6526780519 -0.6937892572 -0.8697290107
H 6.6660420347 2.1546357136 0.119437171
H 6.1607933902 1.5963925471 -1.5059433457
H 4.1459573564 2.5234252873 0.2108831877
H 1.5400197605 -2.7549940826 2.3243578334
H 1.9641915021 -4.3678876199 1.6164952214
H -0.541307553 -2.3142514384 -1.1125340347
H -0.1276106977 -0.6176470233 -1.622502595
H -1.1159516065 -1.6805394174 -2.6998843474
H 0.0695433915 0.726018491 1.2298657259
H -0.0068006965 2.3836844426 1.9461447326
H -0.0640009648 1.8617857901 -1.137162409
H 0.2760173974 3.4428763472 -0.2992994445
$end

$rem
JOBTYPE                   OPT
METHOD                    B3LYP
DFT_D                     d3_op
BASIS                     STO-3G
GEOM_OPT_MAX_CYCLES       100
GEOM_OPT_TOL_GRADIENT     300
GEOM_OPT_TOL_DISPLACEMENT 1200
GEOM_OPT_TOL_ENERGY       100
SYMMETRY                  False
THRESH                    12
SCF_CONVERGENCE           8
MAX_SUB_FILE_NUM          128
MEM_STATIC                400
MEM_TOTAL                 4000
$end
--------------------------------------------------------------

   16   -1510.2928178392      5.69E-09 Convergence criterion met
 Total energy in the final basis set = -1510.29281784
   15   -1510.2794060337      3.09E-09 Convergence criterion met
 Total energy in the final basis set = -1510.27940603
   14   -1510.2852072558      3.49E-09 Convergence criterion met
 Total energy in the final basis set = -1510.28520726
   14   -1510.2871467982      7.40E-09 Convergence criterion met
 Total energy in the final basis set = -1510.28714680
   13   -1510.2897995858      3.87E-09 Convergence criterion met
 Total energy in the final basis set = -1510.28979959
   13   -1510.2925066859      4.35E-09 Convergence criterion met
 Total energy in the final basis set = -1510.29250669
   14   -1510.2944383108      2.31E-09 Convergence criterion met
 Total energy in the final basis set = -1510.29443831
   14   -1510.2903648158      2.27E-09 Convergence criterion met
   11   -1510.2982168183      6.34E-09 Convergence criterion met
 Total energy in the final basis set = -1510.29821682
   11   -1510.2982174005      3.83E-09 Convergence criterion met
 Total energy in the final basis set = -1510.29821740
   11   -1510.2982151121      5.01E-09 Convergence criterion met
 Total energy in the final basis set = -1510.29821511
   11   -1510.2982129071      4.06E-09 Convergence criterion met
 Total energy in the final basis set = -1510.29821291
    9   -1510.2982111565      9.39E-09 Convergence criterion met
 Total energy in the final basis set = -1510.29821116
    9   -1510.2982079541      4.42E-09 Convergence criterion met
 Total energy in the final basis set = -1510.29820795

             Standard Nuclear Orientation (Angstroms)
    I     Atom           X                Y                Z
 ----------------------------------------------------------------
    1      O      -1.1771927945     0.7904240271    -0.3690875476
    2      C      -2.2631217944     1.3275467831    -0.0406417493
    3      C      -3.6881344658     0.8376491179    -0.4729329075
    4      C      -3.6944977753    -0.6622394668    -0.9978039324
    5      C      -2.2904472964    -1.3703206317    -0.9326538655
    6      O      -2.0683263145    -1.8230335355     0.4073252928
    7      C      -0.6641211628    -2.2714695223     0.5910774144
    8      C       0.0597139472    -1.1354941095     1.3933852160
    9      O       1.5254368866    -1.2303537495     1.1977987253
   10      C       2.1044355163     0.0794919965     1.1983805551
   11      C       3.6460489396    -0.0979142711     0.9814334606
   12      C       4.0117547482    -0.8769090584    -0.3504402648
   13      C       2.7808720626    -1.1659943765    -1.2801997346
   14      O       2.5020707852    -2.2414527762    -1.8539022048
   15      O      -2.3657472018     2.4754150747     0.7862101391
   16      O       2.0436298444     0.0486512220    -1.4254579819
   17      O       1.4755728317     1.1434619474     1.3927998730
   18      C       0.9683294920    -0.1017334240    -2.4350149684
   19      C       4.3902600290     1.2824868617     0.7558115209
   20      C       5.9254753454     1.0596712810     1.0445932065
   21      C       6.3441675954     0.2131503099    -0.2151484237
   22      C       4.9890485396     0.1783879427    -1.0302447599
   23      O       4.3499635627     1.4747595853    -0.7126309695
   24      H       4.0519928808    -0.6312976168     1.8606602998
   25      H       4.5172222342    -1.8355237288    -0.1405775434
   26      H       3.9151812762     2.1395064572     1.2718538062
   27      H       6.4545547065     2.0255994734     1.0739481777
   28      H       6.1024948918     0.5301764839     1.9945176614
   29      H       7.1330198299     0.7152644958    -0.7973863245
   30      H       6.6910216428    -0.7985388753     0.0496334362
   31      H       5.1023040491     0.0594728168    -2.1254079647
   32      O      -1.5345154895    -1.6165913915    -1.9020191875
   33      C      -1.0168973526     2.9844820582     1.1557877874
   34      C      -4.7091096158     0.7462648097     0.7407716285
   35      C      -6.1705414479     0.6659075720     0.1509242074
   36      C      -6.1918465482    -0.8080309390    -0.4000352609
   37      C      -4.7470165277    -1.3088842103     0.0017635691
   38      O      -4.4789597173    -0.6122387394     1.2815918360
   39      H      -4.0622675745     1.5294976622    -1.2506852622
   40      H      -4.0382398202    -0.7087276779    -2.0462883136
   41      H      -0.6657843232     3.7031116086     0.3876380463
   42      H      -4.5466700273     1.5146459590     1.5210149032
   43      H      -6.9149445458     0.8087357827     0.9503054544
   44      H      -6.3458739968     1.4193714105    -0.6334300240
   45      H      -6.9626531421    -1.4156364215     0.1000271652
   46      H      -6.3574213494    -0.8531635910    -1.4882769912
   47      H      -4.6455374106    -2.4038100164     0.1287530765
   48      H      -0.2615498670     2.1715322408     1.2542604526
   49      H      -1.1419692867     3.5143556627     2.1178964745
   50      H       0.5478710917     0.9114557387    -2.5682134174
   51      H       0.1542215473    -0.7905295944    -2.1087663945
   52      H       1.3786583695    -0.4625811787    -3.3996615300
   53      H      -0.3013128749    -0.1628266701     0.9887766921
   54      H      -0.1842980403    -1.2009487015     2.4751656634
   55      H      -0.1800878297    -2.4195835923    -0.3984356390
   56      H      -0.6841415559    -3.2299814234     1.1473802446
 ----------------------------------------------------------------

    8   -1510.2982083514      6.64E-09 Convergence criterion met
 Total energy in the final basis set = -1510.29820835
 Final energy is   -1510.29820835145
 **  OPTIMIZATION CONVERGED  **

                    Orbital Energies (a.u.)
 --------------------------------------------------------------

 Alpha MOs
 -- Occupied --
-18.947 -18.928 -18.927 -18.918 -18.890 -18.888 -18.883 -18.875
-18.872 -18.859 -10.112 -10.101 -10.100 -10.086 -10.062 -10.062
-10.062 -10.056 -10.054 -10.054 -10.053 -10.044 -10.039 -10.033
-10.033 -10.030 -10.023 -10.021 -10.017 -10.016  -1.023  -1.010
 -1.006  -0.994  -0.972  -0.965  -0.946  -0.936  -0.931  -0.921
 -0.766  -0.759  -0.727  -0.721  -0.712  -0.702  -0.690  -0.661
 -0.641  -0.611  -0.595  -0.576  -0.548  -0.541  -0.539  -0.533
 -0.516  -0.504  -0.485  -0.472  -0.465  -0.460  -0.449  -0.438
 -0.435  -0.431  -0.425  -0.416  -0.406  -0.402  -0.398  -0.396
 -0.392  -0.381  -0.371  -0.364  -0.356  -0.354  -0.352  -0.343
 -0.342  -0.334  -0.333  -0.326  -0.325  -0.323  -0.317  -0.315
 -0.307  -0.305  -0.301  -0.299  -0.287  -0.285  -0.283  -0.282
 -0.266  -0.263  -0.244  -0.239  -0.236  -0.233  -0.229  -0.189
 -0.177  -0.167  -0.164  -0.160  -0.153  -0.151  -0.146  -0.138
 -0.137

          Ground-State Mulliken Net Atomic Charges

     Atom                 Charge (a.u.)
  ----------------------------------------
      1 O                    -0.213683
      2 C                     0.218843
      3 C                    -0.077968
      4 C                    -0.080090
      5 C                     0.219698
      6 O                    -0.172584
      7 C                    -0.053042
      8 C                    -0.062492
      9 O                    -0.175962
     10 C                     0.223765
     11 C                    -0.078125
     12 C                    -0.077928
     13 C                     0.208604
     14 O                    -0.216828
     15 O                    -0.166324
     16 O                    -0.170260
     17 O                    -0.217405
     18 C                    -0.138470
     19 C                     0.024745
     20 C                    -0.143522
     21 C                    -0.144429
     22 C                     0.025640
     23 O                    -0.185820
     24 H                     0.083532
     25 H                     0.083779
     26 H                     0.088094
     27 H                     0.077125
     28 H                     0.072257
     29 H                     0.077092
     30 H                     0.073346
     31 H                     0.082048
     32 O                    -0.218475
     33 C                    -0.141195
     34 C                     0.024241
     35 C                    -0.143663
     36 C                    -0.144424
     37 C                     0.026737
     38 O                    -0.186771
     39 H                     0.087209
     40 H                     0.084852
     41 H                     0.085337
     42 H                     0.090354
     43 H                     0.078767
     44 H                     0.073730
     45 H                     0.078469
     46 H                     0.073937
     47 H                     0.086643
     48 H                     0.119856
     49 H                     0.088225
     50 H                     0.085466
     51 H                     0.108057
     52 H                     0.079991
     53 H                     0.109648
     54 H                     0.078575
     55 H                     0.104552
     56 H                     0.086244
  ----------------------------------------
  Sum of atomic charges =     0.000000

                    Cartesian Multipole Moments
 -----------------------------------------------------------------
    Charge (ESU x 10^10)
                 0.0000
    Dipole Moment (Debye)
         X      -1.1641      Y       1.0605      Z       1.0637
       Tot       1.9003
    Quadrupole Moments (Debye-Ang)
        XX    -136.5989     XY      -2.8577     YY    -162.1664
        XZ      10.3130     YZ      -2.9404     ZZ    -160.5600

 Total job time:  145.99s(wall), 6966.97s(cpu)
        *  Thank you very much for using Q-Chem.  Have a nice day.  *
