 Q-Chem 5.0, Q-Chem, Inc., Pleasanton, CA (2017)
 Q-Chem 5.0.1 for Intel X86 EM64T Linux

User input:
--------------------------------------------------------------
$molecule
0  1
O -3.94934 -3.66094 2.70899
C -3.26408 -4.56952 2.26188
C -3.36658 -6.02376 2.66595
C -4.27258 -6.35844 3.8622
C -5.11322 -5.22607 4.40913
O -6.43565 -5.47513 4.17549
C -7.30049 -4.46073 4.69731
C -7.75231 -3.52841 3.57805
O -8.5205 -2.4446 4.12405
C -8.25349 -1.22078 3.60433
C -8.98993 -0.10789 4.31129
C -8.50855 0.18106 5.74065
C -7.16692 -0.41359 6.11895
O -6.99628 -1.33701 6.90173
O -2.39014 -4.29481 1.25822
O -6.08931 0.02966 5.41507
O -7.55606 -1.02689 2.6155
C -4.80696 -0.45604 5.56007
C -8.82544 1.30184 3.69222
C -10.02093 2.17192 4.08162
C -9.75273 2.3793 5.56017
C -8.37833 1.71118 5.68531
O -7.78656 1.90747 4.42281
H -10.0713 -0.37108 4.26506
H -9.24454 -0.18856 6.48867
H -8.70786 1.29213 2.58695
H -9.8901 3.1464 3.55803
H -11.02333 1.76079 3.83477
H -9.68793 3.47264 5.75531
H -10.4905 1.91026 6.24684
H -7.81751 2.11386 6.55755
O -4.65575 -4.30061 5.07141
C -2.18808 -3.03838 0.72664
C -3.97057 -6.90647 1.56129
C -3.48553 -8.34322 1.72971
C -4.24632 -8.75027 2.97254
C -5.101 -7.49607 3.20099
O -5.33077 -7.0024 1.90399
H -2.32049 -6.33775 2.88401
H -3.70711 -6.76543 4.72966
H -1.82632 -2.3433 1.51431
H -3.74888 -6.54325 0.53388
H -3.87861 -8.92509 0.86522
H -2.38272 -8.46833 1.78549
H -4.89055 -9.62107 2.71716
H -3.61873 -8.98988 3.85798
H -6.0009 -7.7805 3.78875
H -3.13322 -2.65135 0.28914
H -1.42307 -3.10086 -0.07419
H -4.13241 0.08608 4.86625
H -4.77878 -1.53806 5.312
H -4.45323 -0.29818 6.60127
H -6.8337 -3.18686 3.04937
H -8.37472 -4.10745 2.86289
H -6.84073 -3.83863 5.49742
H -8.18201 -4.94071 5.17233
$end

$opt
CONSTRAINT
tors           1           2           3           4      -8.487
tors           3           4           5           6    +112.759
tors           4           5           6           7    +178.459
tors           5           6           7           8    +101.044
tors           6           7           8           9    -174.844
tors           7           8           9          10    +137.724
tors           8           9          10          11    -174.266
tors           9          10          11          12     +69.725
tors          11          12          13          14    -109.503
ENDCONSTRAINT
$end

$rem
JOBTYPE                   OPT
METHOD                    B3LYP
DFT_D                     d3_op
BASIS                     STO-3G
GEOM_OPT_MAX_CYCLES       100
GEOM_OPT_TOL_GRADIENT     300
GEOM_OPT_TOL_DISPLACEMENT 1200
GEOM_OPT_TOL_ENERGY       100
SYMMETRY                  False
THRESH                    12
SCF_CONVERGENCE           8
MAX_SUB_FILE_NUM          128
MEM_STATIC                400
MEM_TOTAL                 4000
$end
--------------------------------------------------------------

   15   -1510.1561177346      7.13E-09 Convergence criterion met
 Total energy in the final basis set = -1510.15611773
   14   -1510.2253982223      6.45E-09 Convergence criterion met
 Total energy in the final basis set = -1510.22539822
   14   -1510.2632011827      2.11E-09 Convergence criterion met
 Total energy in the final basis set = -1510.26320118
   14   -1510.2792883814      2.27E-09 Convergence criterion met
 Total energy in the final basis set = -1510.27928838
   14   -1510.2833071266      2.77E-09 Convergence criterion met
 Total energy in the final basis set = -1510.28330713
   13   -1510.2871039787      5.30E-09 Convergence criterion met
 Total energy in the final basis set = -1510.28710398
   13   -1510.2885793880      3.63E-09 Convergence criterion met
 Total energy in the final basis set = -1510.28857939
   13   -1510.2901721539      2.89E-09 Convergence criterion met
   11   -1510.2927122533      5.59E-09 Convergence criterion met
 Total energy in the final basis set = -1510.29271225
   11   -1510.2927576535      6.32E-09 Convergence criterion met
 Total energy in the final basis set = -1510.29275765
   11   -1510.2927813387      5.11E-09 Convergence criterion met
 Total energy in the final basis set = -1510.29278134
   10   -1510.2927864749      8.59E-09 Convergence criterion met
 Total energy in the final basis set = -1510.29278647
    9   -1510.2927884073      7.46E-09 Convergence criterion met
 Total energy in the final basis set = -1510.29278841
    9   -1510.2927895891      3.56E-09 Convergence criterion met
 Total energy in the final basis set = -1510.29278959

             Standard Nuclear Orientation (Angstroms)
    I     Atom           X                Y                Z
 ----------------------------------------------------------------
    1      O       1.8448511985    -0.9700295538     0.5596881424
    2      C       2.9452560937    -1.4877427107     0.2551696775
    3      C       4.1473199094    -0.7689772672    -0.4463773164
    4      C       3.7447758825     0.6811601580    -0.9406854430
    5      C       2.1886492033     0.9144138280    -0.9286353512
    6      O       1.8464734026     1.8877342469     0.0628213995
    7      C       0.3846409539     2.1316347993     0.0454478573
    8      C      -0.2583667834     1.3340271425     1.2339756826
    9      O      -1.7268176763     1.4882857510     1.1242431851
   10      C      -2.3951063011     0.2462922485     1.3787509557
   11      C      -3.9146320686     0.4957901088     1.0899739051
   12      C      -4.1880577400     0.7026706653    -0.4657542319
   13      C      -2.8807625509     0.6174239796    -1.3372279630
   14      O      -2.3024355390     1.5549463667    -1.9313237871
   15      O       3.2962478255    -2.8388349650     0.5359013014
   16      O      -2.4251913039    -0.7345151918    -1.3227549115
   17      O      -1.8342001299    -0.8052767161     1.7501012110
   18      C      -1.2303873885    -0.9031131688    -2.1853627321
   19      C      -4.7950644264    -0.7849780790     1.3881321903
   20      C      -6.3121562267    -0.3485824768     1.4186032036
   21      C      -6.5939594374    -0.1301297333    -0.1151157517
   22      C      -5.1900273068    -0.4983772777    -0.7414349460
   23      O      -4.6893481580    -1.5769974076     0.1404802159
   24      H      -4.2461117616     1.3774233670     1.6673957568
   25      H      -4.6545499785     1.6846275322    -0.6595715427
   26      H      -4.4465259733    -1.3821254496     2.2528170602
   27      H      -6.9367940765    -1.1562324602     1.8320539862
   28      H      -6.4724477350     0.5635463800     2.0155766289
   29      H      -7.3716088459    -0.8175427619    -0.4846158351
   30      H      -6.8967142058     0.9030617041    -0.3493666124
   31      H      -5.2185992204    -0.8414029365    -1.7937291324
   32      O       1.3919849331     0.4626362782    -1.7859884641
   33      C       2.1731791423    -3.5204623159     1.2259005222
   34      C       5.2469062322    -0.4089216896     0.6443976009
   35      C       6.5347624523     0.1444630562    -0.0848501466
   36      C       6.0756861935     1.6043138279    -0.4539127213
   37      C       4.5824666565     1.5877610962     0.0554711039
   38      O       4.6609530628     0.7836417955     1.2987526377
   39      H       4.5450534588    -1.4085537302    -1.2539415767
   40      H       4.0782305361     0.8267337214    -1.9840361022
   41      H       1.2630068685    -3.5435663643     0.5926172382
   42      H       5.4297204362    -1.2132664832     1.3833491146
   43      H       7.3948658494     0.1498184412     0.6032972190
   44      H       6.7957947351    -0.4563872630    -0.9709830379
   45      H       6.6593601776     2.3597260215     0.0959477244
   46      H       6.1490109635     1.8159988662    -1.5325328210
   47      H       4.1308034086     2.5765153825     0.2614513553
   48      H       1.9233289327    -3.0218656225     2.1843014386
   49      H       2.5182692505    -4.5523855238     1.4204473136
   50      H      -0.9834303896    -1.9791399639    -2.1349633398
   51      H      -0.3509093673    -0.3044259245    -1.8488770491
   52      H      -1.4589508437    -0.6310976842    -3.2357158433
   53      H       0.0311640086     0.2614402248     1.1753927840
   54      H       0.0899569521     1.7428447527     2.2065850924
   55      H      -0.0599132523     1.8031488493    -0.9189185467
   56      H       0.2320564563     3.2219439651     0.1768334056
 ----------------------------------------------------------------

    9   -1510.2927901750      2.52E-09 Convergence criterion met
 Total energy in the final basis set = -1510.29279018
 Final energy is   -1510.29279017501
 **  OPTIMIZATION CONVERGED  **

                    Orbital Energies (a.u.)
 --------------------------------------------------------------

 Alpha MOs
 -- Occupied --
-18.948 -18.930 -18.922 -18.920 -18.890 -18.890 -18.881 -18.871
-18.865 -18.860 -10.110 -10.101 -10.092 -10.087 -10.069 -10.064
-10.060 -10.059 -10.055 -10.054 -10.052 -10.044 -10.038 -10.035
-10.031 -10.029 -10.023 -10.021 -10.015 -10.014  -1.023  -1.008
 -1.004  -0.995  -0.973  -0.962  -0.947  -0.933  -0.929  -0.922
 -0.766  -0.757  -0.727  -0.720  -0.712  -0.700  -0.688  -0.668
 -0.643  -0.610  -0.593  -0.574  -0.548  -0.540  -0.539  -0.531
 -0.515  -0.503  -0.484  -0.470  -0.465  -0.459  -0.453  -0.438
 -0.434  -0.427  -0.423  -0.416  -0.411  -0.403  -0.396  -0.392
 -0.390  -0.380  -0.369  -0.364  -0.358  -0.356  -0.351  -0.343
 -0.340  -0.338  -0.332  -0.328  -0.323  -0.320  -0.318  -0.314
 -0.307  -0.303  -0.301  -0.299  -0.286  -0.283  -0.280  -0.278
 -0.267  -0.264  -0.247  -0.239  -0.237  -0.233  -0.227  -0.189
 -0.178  -0.166  -0.162  -0.160  -0.152  -0.150  -0.144  -0.139
 -0.136

          Ground-State Mulliken Net Atomic Charges

     Atom                 Charge (a.u.)
  ----------------------------------------
      1 O                    -0.206691
      2 C                     0.217950
      3 C                    -0.077653
      4 C                    -0.080822
      5 C                     0.221749
      6 O                    -0.170491
      7 C                    -0.053386
      8 C                    -0.056874
      9 O                    -0.178159
     10 C                     0.211879
     11 C                    -0.077914
     12 C                    -0.078123
     13 C                     0.205073
     14 O                    -0.218321
     15 O                    -0.166366
     16 O                    -0.168439
     17 O                    -0.208053
     18 C                    -0.142551
     19 C                     0.024701
     20 C                    -0.144078
     21 C                    -0.144175
     22 C                     0.026194
     23 O                    -0.184672
     24 H                     0.084517
     25 H                     0.082922
     26 H                     0.087211
     27 H                     0.076903
     28 H                     0.072206
     29 H                     0.076650
     30 H                     0.072672
     31 H                     0.082839
     32 O                    -0.227897
     33 C                    -0.128292
     34 C                     0.024668
     35 C                    -0.144215
     36 C                    -0.143373
     37 C                     0.024311
     38 O                    -0.189861
     39 H                     0.088736
     40 H                     0.085162
     41 H                     0.095360
     42 H                     0.085215
     43 H                     0.078838
     44 H                     0.074332
     45 H                     0.078543
     46 H                     0.073934
     47 H                     0.092768
     48 H                     0.094435
     49 H                     0.093148
     50 H                     0.083247
     51 H                     0.109967
     52 H                     0.079467
     53 H                     0.110249
     54 H                     0.081572
     55 H                     0.106566
     56 H                     0.086420
  ----------------------------------------
  Sum of atomic charges =    -0.000000

                    Cartesian Multipole Moments
 -----------------------------------------------------------------
    Charge (ESU x 10^10)
                 0.0000
    Dipole Moment (Debye)
         X       1.5833      Y      -0.0739      Z       0.0922
       Tot       1.5877
    Quadrupole Moments (Debye-Ang)
        XX    -135.0431     XY      -6.2790     YY    -158.1124
        XZ      -6.9398     YZ       0.8339     ZZ    -159.9884

 Total job time:  58.81s(wall), 2800.23s(cpu)
        *  Thank you very much for using Q-Chem.  Have a nice day.  *
