 Q-Chem 5.0, Q-Chem, Inc., Pleasanton, CA (2017)
 Q-Chem 5.0.1 for Intel X86 EM64T Linux

User input:
--------------------------------------------------------------
$molecule
0  1
O 1.8448511985 -0.9700295538 0.5596881424
C 2.9452560937 -1.4877427107 0.2551696775
C 4.1473199094 -0.7689772672 -0.4463773164
C 3.7447758825 0.681160158 -0.940685443
C 2.1886492033 0.914413828 -0.9286353512
O 1.8464734026 1.8877342469 0.0628213995
C 0.3846409539 2.1316347993 0.0454478573
C -0.2583667834 1.3340271425 1.2339756826
O -1.7268176763 1.488285751 1.1242431851
C -2.3951063011 0.2462922485 1.3787509557
C -3.9146320686 0.4957901088 1.0899739051
C -4.18805774 0.7026706653 -0.4657542319
C -2.8807625509 0.6174239796 -1.337227963
O -2.302435539 1.5549463667 -1.9313237871
O 3.2962478255 -2.838834965 0.5359013014
O -2.4251913039 -0.7345151918 -1.3227549115
O -1.8342001299 -0.8052767161 1.750101211
C -1.2303873885 -0.9031131688 -2.1853627321
C -4.7950644264 -0.784978079 1.3881321903
C -6.3121562267 -0.3485824768 1.4186032036
C -6.5939594374 -0.1301297333 -0.1151157517
C -5.1900273068 -0.4983772777 -0.741434946
O -4.689348158 -1.5769974076 0.1404802159
H -4.2461117616 1.377423367 1.6673957568
H -4.6545499785 1.6846275322 -0.6595715427
H -4.4465259733 -1.3821254496 2.2528170602
H -6.9367940765 -1.1562324602 1.8320539862
H -6.472447735 0.56354638 2.0155766289
H -7.3716088459 -0.8175427619 -0.4846158351
H -6.8967142058 0.9030617041 -0.3493666124
H -5.2185992204 -0.8414029365 -1.7937291324
O 1.3919849331 0.4626362782 -1.7859884641
C 2.1731791423 -3.5204623159 1.2259005222
C 5.2469062322 -0.4089216896 0.6443976009
C 6.5347624523 0.1444630562 -0.0848501466
C 6.0756861935 1.6043138279 -0.4539127213
C 4.5824666565 1.5877610962 0.0554711039
O 4.6609530628 0.7836417955 1.2987526377
H 4.5450534588 -1.4085537302 -1.2539415767
H 4.0782305361 0.8267337214 -1.9840361022
H 1.2630068685 -3.5435663643 0.5926172382
H 5.4297204362 -1.2132664832 1.3833491146
H 7.3948658494 0.1498184412 0.603297219
H 6.7957947351 -0.456387263 -0.9709830379
H 6.6593601776 2.3597260215 0.0959477244
H 6.1490109635 1.8159988662 -1.532532821
H 4.1308034086 2.5765153825 0.2614513553
H 1.9233289327 -3.0218656225 2.1843014386
H 2.5182692505 -4.5523855238 1.4204473136
H -0.9834303896 -1.9791399639 -2.1349633398
H -0.3509093673 -0.3044259245 -1.8488770491
H -1.4589508437 -0.6310976842 -3.2357158433
H 0.0311640086 0.2614402248 1.175392784
H 0.0899569521 1.7428447527 2.2065850924
H -0.0599132523 1.8031488493 -0.9189185467
H 0.2320564563 3.2219439651 0.1768334056
$end

$rem
JOBTYPE                   OPT
METHOD                    B3LYP
DFT_D                     d3_op
BASIS                     STO-3G
GEOM_OPT_MAX_CYCLES       100
GEOM_OPT_TOL_GRADIENT     300
GEOM_OPT_TOL_DISPLACEMENT 1200
GEOM_OPT_TOL_ENERGY       100
SYMMETRY                  False
THRESH                    12
SCF_CONVERGENCE           8
MAX_SUB_FILE_NUM          128
MEM_STATIC                400
MEM_TOTAL                 4000
$end
--------------------------------------------------------------

   16   -1510.2927833480      6.05E-09 Convergence criterion met
 Total energy in the final basis set = -1510.29278335
   15   -1510.2736432883      3.36E-09 Convergence criterion met
 Total energy in the final basis set = -1510.27364329
   14   -1510.2911549412      3.24E-09 Convergence criterion met
 Total energy in the final basis set = -1510.29115494
   14   -1510.2919416001      2.24E-09 Convergence criterion met
 Total energy in the final basis set = -1510.29194160
   13   -1510.2923206277      6.05E-09 Convergence criterion met
 Total energy in the final basis set = -1510.29232063
   14   -1510.2931232061      3.12E-09 Convergence criterion met
 Total energy in the final basis set = -1510.29312321
   14   -1510.2934736171      3.60E-09 Convergence criterion met
 Total energy in the final basis set = -1510.29347362
   13   -1510.2941815817      8.97E-09 Convergence criterion met
   10   -1510.2980406239      3.10E-09 Convergence criterion met
 Total energy in the final basis set = -1510.29804062
   10   -1510.2980346390      7.51E-09 Convergence criterion met
 Total energy in the final basis set = -1510.29803464
   11   -1510.2980227555      7.73E-09 Convergence criterion met
 Total energy in the final basis set = -1510.29802276
   11   -1510.2980156764      6.30E-09 Convergence criterion met
 Total energy in the final basis set = -1510.29801568
   10   -1510.2980140937      8.65E-09 Convergence criterion met
 Total energy in the final basis set = -1510.29801409
   10   -1510.2980140407      7.64E-09 Convergence criterion met
 Total energy in the final basis set = -1510.29801404

             Standard Nuclear Orientation (Angstroms)
    I     Atom           X                Y                Z
 ----------------------------------------------------------------
    1      O      -1.1795632478     0.6784789585    -0.5575168068
    2      C      -2.2836924630     1.2263182018    -0.3187384611
    3      C      -3.6894224791     0.6265235458    -0.6693882383
    4      C      -3.6606170262    -0.9502489752    -0.8705348592
    5      C      -2.2522229576    -1.6048532145    -0.6211976080
    6      O      -2.0542432681    -1.7431560400     0.7900858318
    7      C      -0.6477730913    -2.1148931336     1.0935529746
    8      C       0.0560205667    -0.8024213375     1.5807198848
    9      O       1.5262791259    -0.9333526941     1.4476692014
   10      C       2.1051681587     0.3540231426     1.2095867728
   11      C       3.6512707148     0.1496974000     1.0502617457
   12      C       4.0353773625    -0.8271368151    -0.1393525611
   13      C       2.8084859388    -1.3394859690    -0.9738943674
   14      O       2.5429220956    -2.5221165310    -1.2810379585
   15      O      -2.4264344777     2.4887909325     0.3113110208
   16      O       2.0561091759    -0.2008801593    -1.3944917267
   17      O       1.4697019731     1.4315069577     1.1799592226
   18      C       0.9883603863    -0.5956688116    -2.3442737629
   19      C       4.3786921489     1.4838771080     0.6077637132
   20      C       5.9241445773     1.3205365626     0.8848329517
   21      C       6.3336298201     0.3315710529    -0.2698320383
   22      C       4.9516477851     0.1378053765    -1.0127201219
   23      O       4.2907428276     1.4539588994    -0.8710718852
   24      H       4.0445283798    -0.2343024434     2.0097825259
   25      H       4.5928673447    -1.7083294662     0.2225210664
   26      H       3.9072916513     2.4043272267     1.0037846630
   27      H       6.4383016405     2.2899505332     0.7866458180
   28      H       6.1278727405     0.9127147724     1.8877392533
   29      H       7.0746901609     0.7852117833    -0.9469475926
   30      H       6.7373669005    -0.6210472351     0.1086983843
   31      H       5.0277554907    -0.1452623275    -2.0805054440
   32      O      -1.4663343194    -2.0419241031    -1.4947781082
   33      C      -1.0969136958     3.0981253339     0.5893335765
   34      C      -4.7457645630     0.7689927719     0.5080921008
   35      C      -6.1880170904     0.5393460806    -0.0921689340
   36      C      -6.1724879067    -1.0168229368    -0.3255587426
   37      C      -4.7351816346    -1.3950765785     0.2124116685
   38      O      -4.5161181975    -0.4428953707     1.3256500977
   39      H      -4.0503198771     1.1326081964    -1.5845941892
   40      H      -3.9727967788    -1.2186869316    -1.8951932534
   41      H      -0.7585990649     3.6761624819    -0.2945221680
   42      H      -4.6176874841     1.6851724241     1.1166761694
   43      H      -6.9577417277     0.8298616369     0.6404984550
   44      H      -6.3509995208     1.1087266507    -1.0212822025
   45      H      -6.9506516238    -1.5226628503     0.2676574458
   46      H      -6.3025996211    -1.2908939613    -1.3847203693
   47      H      -4.6230782802    -2.4376349076     0.5669577302
   48      H      -0.3169503441     2.3433470708     0.8404458662
   49      H      -1.2502493620     3.7897739359     1.4378726663
   50      H       0.5489276003     0.3528073424    -2.7023617800
   51      H       0.1862586576    -1.2105552503    -1.8724863795
   52      H       1.4105424023    -1.1560215829    -3.2028299706
   53      H      -0.3012907248     0.0240517193     0.9240944183
   54      H      -0.2145833420    -0.5797050346     2.6350112306
   55      H      -0.1530205381    -2.5072292614     0.1785980701
   56      H      -0.6681478265    -2.8980674128     1.8776145322
 ----------------------------------------------------------------

    9   -1510.2980142510      6.41E-09 Convergence criterion met
 Total energy in the final basis set = -1510.29801425
 Final energy is   -1510.29801425104
 **  OPTIMIZATION CONVERGED  **

                    Orbital Energies (a.u.)
 --------------------------------------------------------------

 Alpha MOs
 -- Occupied --
-18.948 -18.928 -18.928 -18.918 -18.890 -18.888 -18.883 -18.875
-18.874 -18.859 -10.112 -10.102 -10.099 -10.085 -10.063 -10.063
-10.062 -10.055 -10.055 -10.054 -10.052 -10.045 -10.039 -10.033
-10.033 -10.029 -10.023 -10.022 -10.017 -10.016  -1.023  -1.010
 -1.006  -0.994  -0.972  -0.964  -0.946  -0.936  -0.932  -0.920
 -0.766  -0.758  -0.727  -0.720  -0.713  -0.701  -0.691  -0.661
 -0.640  -0.611  -0.595  -0.576  -0.548  -0.541  -0.539  -0.532
 -0.516  -0.504  -0.485  -0.471  -0.465  -0.460  -0.449  -0.438
 -0.436  -0.431  -0.425  -0.417  -0.406  -0.402  -0.397  -0.396
 -0.393  -0.381  -0.371  -0.364  -0.356  -0.354  -0.352  -0.343
 -0.342  -0.334  -0.333  -0.326  -0.325  -0.323  -0.317  -0.315
 -0.307  -0.304  -0.301  -0.299  -0.287  -0.285  -0.283  -0.281
 -0.266  -0.263  -0.245  -0.239  -0.236  -0.233  -0.229  -0.189
 -0.177  -0.167  -0.165  -0.160  -0.153  -0.151  -0.146  -0.138
 -0.137

          Ground-State Mulliken Net Atomic Charges

     Atom                 Charge (a.u.)
  ----------------------------------------
      1 O                    -0.214363
      2 C                     0.219055
      3 C                    -0.077895
      4 C                    -0.079863
      5 C                     0.218846
      6 O                    -0.172134
      7 C                    -0.053280
      8 C                    -0.063702
      9 O                    -0.175447
     10 C                     0.222583
     11 C                    -0.077980
     12 C                    -0.078456
     13 C                     0.208267
     14 O                    -0.216770
     15 O                    -0.165838
     16 O                    -0.170717
     17 O                    -0.216822
     18 C                    -0.138456
     19 C                     0.024676
     20 C                    -0.143953
     21 C                    -0.144228
     22 C                     0.026006
     23 O                    -0.185608
     24 H                     0.083670
     25 H                     0.083417
     26 H                     0.087874
     27 H                     0.077038
     28 H                     0.072289
     29 H                     0.077082
     30 H                     0.073353
     31 H                     0.082072
     32 O                    -0.217040
     33 C                    -0.140710
     34 C                     0.024271
     35 C                    -0.143622
     36 C                    -0.144448
     37 C                     0.026761
     38 O                    -0.186770
     39 H                     0.087171
     40 H                     0.085025
     41 H                     0.085775
     42 H                     0.090880
     43 H                     0.078795
     44 H                     0.073627
     45 H                     0.078473
     46 H                     0.073924
     47 H                     0.086522
     48 H                     0.119428
     49 H                     0.088592
     50 H                     0.085396
     51 H                     0.108091
     52 H                     0.079380
     53 H                     0.109969
     54 H                     0.078203
     55 H                     0.104948
     56 H                     0.086639
  ----------------------------------------
  Sum of atomic charges =     0.000000

                    Cartesian Multipole Moments
 -----------------------------------------------------------------
    Charge (ESU x 10^10)
                 0.0000
    Dipole Moment (Debye)
         X      -1.2282      Y       1.1800      Z       0.7135
       Tot       1.8466
    Quadrupole Moments (Debye-Ang)
        XX    -136.7102     XY      -0.2805     YY    -163.5634
        XZ      10.8507     YZ      -2.0027     ZZ    -158.7870

 Total job time:  149.21s(wall), 7121.31s(cpu)
        *  Thank you very much for using Q-Chem.  Have a nice day.  *
