 Q-Chem 5.0, Q-Chem, Inc., Pleasanton, CA (2017)
 Q-Chem 5.0.1 for Intel X86 EM64T Linux

User input:
--------------------------------------------------------------
$molecule
0  1
O -3.94934 -3.66094 2.70899
C -3.26408 -4.56952 2.26188
C -3.36658 -6.02376 2.66595
C -4.17061 -6.34499 3.93646
C -4.93063 -5.19646 4.56201
O -6.27433 -5.4187 4.45951
C -7.06364 -4.37428 5.03867
C -7.61834 -3.46685 3.9455
O -8.11912 -2.25196 4.52526
C -7.87222 -1.12252 3.81635
C -8.22574 0.13593 4.57265
C -7.26768 0.49334 5.71836
C -5.93547 -0.2291 5.71539
O -5.58378 -1.0708 6.52928
O -2.4212 -4.30151 1.23032
O -5.12118 0.00511 4.65004
O -7.50208 -1.11279 2.64811
C -3.88015 -0.56912 4.47478
C -8.14609 1.4487 3.75378
C -9.05838 2.49993 4.38682
C -8.29677 2.80666 5.66227
C -7.0257 1.98215 5.42634
O -6.87278 1.98126 4.0269
H -9.28217 0.01717 4.90536
H -7.7393 0.29119 6.7055
H -8.40449 1.32028 2.6803
H -9.01789 3.39587 3.7261
H -10.11991 2.20343 4.52832
H -8.07282 3.89615 5.68421
H -8.80345 2.50006 6.60308
H -6.17205 2.38873 6.01243
O -4.38874 -4.27695 5.16617
C -2.23093 -3.0468 0.69006
C -4.08221 -6.88611 1.61466
C -3.61772 -8.33432 1.73621
C -4.27921 -8.73105 3.03805
C -5.08064 -7.45853 3.34491
O -5.40967 -6.95236 2.07399
H -2.31325 -6.36129 2.79736
H -3.53883 -6.76977 4.74788
H -1.84296 -2.35157 1.46522
H -3.94093 -6.52099 0.57377
H -4.0956 -8.90289 0.90632
H -2.51717 -8.48364 1.69783
H -4.96456 -9.58399 2.83472
H -3.58429 -8.99233 3.86514
H -5.9329 -7.72589 4.0069
H -3.18749 -2.65671 0.2811
H -1.4909 -3.11356 -0.13354
H -3.44349 -0.20958 3.52059
H -3.97342 -1.67292 4.43297
H -3.20573 -0.28262 5.30967
H -6.76643 -3.26212 3.25642
H -8.41238 -3.99792 3.37861
H -6.49891 -3.72855 5.74741
H -7.88743 -4.80689 5.64441
$end

$opt
CONSTRAINT
tors           1           2           3           4     -13.804
tors           3           4           5           6    +113.448
tors           4           5           6           7    +179.651
tors           5           6           7           8    +101.985
tors           6           7           8           9    -165.712
tors           7           8           9          10    +140.765
tors           8           9          10          11    -170.937
tors           9          10          11          12     +72.811
tors          11          12          13          14    -111.030
ENDCONSTRAINT
$end

$rem
JOBTYPE                   OPT
METHOD                    B3LYP
DFT_D                     d3_op
BASIS                     STO-3G
GEOM_OPT_MAX_CYCLES       100
GEOM_OPT_TOL_GRADIENT     300
GEOM_OPT_TOL_DISPLACEMENT 1200
GEOM_OPT_TOL_ENERGY       100
SYMMETRY                  False
THRESH                    12
SCF_CONVERGENCE           8
MAX_SUB_FILE_NUM          128
MEM_STATIC                400
MEM_TOTAL                 4000
$end
--------------------------------------------------------------

   15   -1510.1563250874      7.18E-09 Convergence criterion met
 Total energy in the final basis set = -1510.15632509
   14   -1510.2256770745      1.94E-09 Convergence criterion met
 Total energy in the final basis set = -1510.22567707
   14   -1510.2628681227      9.56E-09 Convergence criterion met
 Total energy in the final basis set = -1510.26286812
   14   -1510.2777738091      9.08E-09 Convergence criterion met
 Total energy in the final basis set = -1510.27777381
   15   -1510.2846631992      2.42E-09 Convergence criterion met
 Total energy in the final basis set = -1510.28466320
   13   -1510.2870847580      5.07E-09 Convergence criterion met
 Total energy in the final basis set = -1510.28708476
   13   -1510.2897416130      2.80E-09 Convergence criterion met
 Total energy in the final basis set = -1510.28974161
   13   -1510.2912845956      2.89E-09 Convergence criterion met
   11   -1510.2933772203      6.25E-09 Convergence criterion met
 Total energy in the final basis set = -1510.29337722
   12   -1510.2934677519      4.38E-09 Convergence criterion met
 Total energy in the final basis set = -1510.29346775
   11   -1510.2935275598      5.92E-09 Convergence criterion met
 Total energy in the final basis set = -1510.29352756
   11   -1510.2935772825      3.41E-09 Convergence criterion met
 Total energy in the final basis set = -1510.29357728
   10   -1510.2935914349      6.00E-09 Convergence criterion met
 Total energy in the final basis set = -1510.29359143
   10   -1510.2935969110      7.68E-09 Convergence criterion met
 Total energy in the final basis set = -1510.29359691

             Standard Nuclear Orientation (Angstroms)
    I     Atom           X                Y                Z
 ----------------------------------------------------------------
    1      O       1.6103527970    -0.7441472152     0.6550838218
    2      C       2.6279554470    -1.4188947339     0.3691389169
    3      C       3.9188546287    -0.8864730445    -0.3398360250
    4      C       3.6769304160     0.5411535130    -0.9833115944
    5      C       2.1519803132     0.9228078703    -1.0418610134
    6      O       1.8881064122     2.0248536829    -0.1732741278
    7      C       0.4521040245     2.3921653081    -0.2330137693
    8      C      -0.2529265016     1.8114327920     1.0446254470
    9      O      -1.7151573383     1.8736708856     0.8121022154
   10      C      -2.3758752935     0.7096487597     1.3225220941
   11      C      -3.8565038732     0.7876258195     0.8103038317
   12      C      -3.9654848616     0.4776981547    -0.7471947596
   13      C      -2.5782269841     0.1667594548    -1.4166521756
   14      O      -1.9607076291     0.8760017352    -2.2421952019
   15      O       2.7962513243    -2.7922542942     0.7036949026
   16      O      -2.1140057294    -1.0829153637    -0.9091277224
   17      O      -1.8339879528    -0.1743663351     2.0173835864
   18      C      -0.8454311523    -1.4833839126    -1.5629438041
   19      C      -4.7591820842    -0.3660585494     1.4131940521
   20      C      -6.2730111562     0.0015603570     1.1525285177
   21      C      -6.3919868047    -0.2870474763    -0.3909709587
   22      C      -4.9285544706    -0.7849619285    -0.7236913855
   23      O      -4.5210205750    -1.5085368844     0.5012752279
   24      H      -4.2559541804     1.7923042598     1.0369773412
   25      H      -4.4141531954     1.3288397131    -1.2890375801
   26      H      -4.5042820218    -0.6457678195     2.4537256259
   27      H      -6.9355417497    -0.6554967576     1.7383057362
   28      H      -6.4976003098     1.0492542017     1.4087633839
   29      H      -7.1259185873    -1.0819714242    -0.5982659791
   30      H      -6.6673241897     0.6081852442    -0.9710517930
   31      H      -4.8434704603    -1.4436490623    -1.6093392226
   32      O       1.3271595141     0.4570540469    -1.8651166998
   33      C       1.6031613593    -3.2868744290     1.4346247816
   34      C       5.0094031609    -0.5279635792     0.7616022870
   35      C       6.3719312183    -0.1838809823     0.0401358879
   36      C       6.0774627613     1.2647673720    -0.4989352187
   37      C       4.5757813226     1.4545935347    -0.0489594238
   38      O       4.5303700764     0.7775309798     1.2692203735
   39      H       4.2835443380    -1.6341163249    -1.0663073268
   40      H       4.0473712216     0.5533595992    -2.0247078558
   41      H       0.6904358009    -3.2306203538     0.8071111034
   42      H       5.0825551014    -1.2668413238     1.5832871625
   43      H       7.2023460116    -0.1882507780     0.7639130491
   44      H       6.6031739444    -0.8985299339    -0.7661214377
   45      H       6.7216032344     2.0140681481    -0.0119109780
   46      H       6.1998313197     1.3483059715    -1.5905080670
   47      H       4.2264347703     2.5005627760     0.0399396800
   48      H       1.4264793696    -2.7074716693     2.3634812740
   49      H       1.8172238481    -4.3417349722     1.6859828745
   50      H      -0.4530684489    -2.3229907340    -0.9611151424
   51      H      -0.0953607171    -0.6570986443    -1.6019503789
   52      H      -1.0365717408    -1.8374840806    -2.5967514931
   53      H       0.0756830719     0.7592884597     1.1999939664
   54      H       0.0137136179     2.4036578738     1.9460894593
   55      H      -0.0141077882     1.9541464209    -1.1446458679
   56      H       0.3916306243     3.4983796893    -0.2635496691
 ----------------------------------------------------------------

    9   -1510.2935968582      3.41E-09 Convergence criterion met
 Total energy in the final basis set = -1510.29359686
 Final energy is   -1510.29359685818
 **  OPTIMIZATION CONVERGED  **

                    Orbital Energies (a.u.)
 --------------------------------------------------------------

 Alpha MOs
 -- Occupied --
-18.949 -18.931 -18.921 -18.919 -18.890 -18.890 -18.880 -18.870
-18.868 -18.860 -10.111 -10.102 -10.092 -10.086 -10.069 -10.065
-10.060 -10.059 -10.055 -10.053 -10.052 -10.044 -10.039 -10.034
-10.030 -10.028 -10.024 -10.022 -10.015 -10.014  -1.024  -1.009
 -1.003  -0.995  -0.973  -0.962  -0.947  -0.934  -0.928  -0.921
 -0.767  -0.756  -0.727  -0.719  -0.713  -0.700  -0.689  -0.668
 -0.643  -0.611  -0.594  -0.574  -0.549  -0.540  -0.539  -0.530
 -0.516  -0.503  -0.484  -0.470  -0.465  -0.457  -0.454  -0.439
 -0.435  -0.428  -0.423  -0.417  -0.412  -0.406  -0.396  -0.394
 -0.390  -0.380  -0.369  -0.364  -0.358  -0.355  -0.353  -0.345
 -0.341  -0.337  -0.333  -0.328  -0.323  -0.320  -0.318  -0.315
 -0.307  -0.303  -0.301  -0.299  -0.287  -0.284  -0.280  -0.276
 -0.266  -0.264  -0.248  -0.239  -0.237  -0.231  -0.227  -0.189
 -0.178  -0.165  -0.162  -0.159  -0.153  -0.149  -0.146  -0.138
 -0.136

          Ground-State Mulliken Net Atomic Charges

     Atom                 Charge (a.u.)
  ----------------------------------------
      1 O                    -0.207561
      2 C                     0.217519
      3 C                    -0.077823
      4 C                    -0.080451
      5 C                     0.222583
      6 O                    -0.169981
      7 C                    -0.054255
      8 C                    -0.057025
      9 O                    -0.179046
     10 C                     0.211645
     11 C                    -0.077818
     12 C                    -0.078469
     13 C                     0.205077
     14 O                    -0.216366
     15 O                    -0.165965
     16 O                    -0.168565
     17 O                    -0.207534
     18 C                    -0.143650
     19 C                     0.024901
     20 C                    -0.144070
     21 C                    -0.144246
     22 C                     0.026328
     23 O                    -0.184851
     24 H                     0.084264
     25 H                     0.082851
     26 H                     0.086653
     27 H                     0.076722
     28 H                     0.072182
     29 H                     0.076554
     30 H                     0.072698
     31 H                     0.082648
     32 O                    -0.225940
     33 C                    -0.127981
     34 C                     0.025038
     35 C                    -0.144082
     36 C                    -0.143485
     37 C                     0.024510
     38 O                    -0.189214
     39 H                     0.088697
     40 H                     0.085480
     41 H                     0.093500
     42 H                     0.084918
     43 H                     0.079035
     44 H                     0.074509
     45 H                     0.078610
     46 H                     0.073957
     47 H                     0.092888
     48 H                     0.095871
     49 H                     0.093606
     50 H                     0.077132
     51 H                     0.114881
     52 H                     0.076566
     53 H                     0.110849
     54 H                     0.080794
     55 H                     0.109337
     56 H                     0.085576
  ----------------------------------------
  Sum of atomic charges =     0.000000

                    Cartesian Multipole Moments
 -----------------------------------------------------------------
    Charge (ESU x 10^10)
                 0.0000
    Dipole Moment (Debye)
         X       1.5344      Y      -0.1093      Z      -0.1859
       Tot       1.5495
    Quadrupole Moments (Debye-Ang)
        XX    -135.2767     XY      -6.8047     YY    -155.6603
        XZ      -4.3535     YZ       1.2813     ZZ    -163.3707

 Total job time:  56.31s(wall), 2680.36s(cpu)
        *  Thank you very much for using Q-Chem.  Have a nice day.  *
