 Q-Chem 5.0, Q-Chem, Inc., Pleasanton, CA (2017)
 Q-Chem 5.0.1 for Intel X86 EM64T Linux

User input:
--------------------------------------------------------------
$molecule
0  1
O 1.610352797 -0.7441472152 0.6550838218
C 2.627955447 -1.4188947339 0.3691389169
C 3.9188546287 -0.8864730445 -0.339836025
C 3.676930416 0.541153513 -0.9833115944
C 2.1519803132 0.9228078703 -1.0418610134
O 1.8881064122 2.0248536829 -0.1732741278
C 0.4521040245 2.3921653081 -0.2330137693
C -0.2529265016 1.811432792 1.044625447
O -1.7151573383 1.8736708856 0.8121022154
C -2.3758752935 0.7096487597 1.3225220941
C -3.8565038732 0.7876258195 0.8103038317
C -3.9654848616 0.4776981547 -0.7471947596
C -2.5782269841 0.1667594548 -1.4166521756
O -1.9607076291 0.8760017352 -2.2421952019
O 2.7962513243 -2.7922542942 0.7036949026
O -2.1140057294 -1.0829153637 -0.9091277224
O -1.8339879528 -0.1743663351 2.0173835864
C -0.8454311523 -1.4833839126 -1.5629438041
C -4.7591820842 -0.3660585494 1.4131940521
C -6.2730111562 0.001560357 1.1525285177
C -6.3919868047 -0.2870474763 -0.3909709587
C -4.9285544706 -0.7849619285 -0.7236913855
O -4.521020575 -1.5085368844 0.5012752279
H -4.2559541804 1.7923042598 1.0369773412
H -4.4141531954 1.3288397131 -1.2890375801
H -4.5042820218 -0.6457678195 2.4537256259
H -6.9355417497 -0.6554967576 1.7383057362
H -6.4976003098 1.0492542017 1.4087633839
H -7.1259185873 -1.0819714242 -0.5982659791
H -6.6673241897 0.6081852442 -0.971051793
H -4.8434704603 -1.4436490623 -1.6093392226
O 1.3271595141 0.4570540469 -1.8651166998
C 1.6031613593 -3.286874429 1.4346247816
C 5.0094031609 -0.5279635792 0.761602287
C 6.3719312183 -0.1838809823 0.0401358879
C 6.0774627613 1.264767372 -0.4989352187
C 4.5757813226 1.4545935347 -0.0489594238
O 4.5303700764 0.7775309798 1.2692203735
H 4.283544338 -1.6341163249 -1.0663073268
H 4.0473712216 0.5533595992 -2.0247078558
H 0.6904358009 -3.2306203538 0.8071111034
H 5.0825551014 -1.2668413238 1.5832871625
H 7.2023460116 -0.188250778 0.7639130491
H 6.6031739444 -0.8985299339 -0.7661214377
H 6.7216032344 2.0140681481 -0.011910978
H 6.1998313197 1.3483059715 -1.590508067
H 4.2264347703 2.500562776 0.03993968
H 1.4264793696 -2.7074716693 2.363481274
H 1.8172238481 -4.3417349722 1.6859828745
H -0.4530684489 -2.322990734 -0.9611151424
H -0.0953607171 -0.6570986443 -1.6019503789
H -1.0365717408 -1.8374840806 -2.5967514931
H 0.0756830719 0.7592884597 1.1999939664
H 0.0137136179 2.4036578738 1.9460894593
H -0.0141077882 1.9541464209 -1.1446458679
H 0.3916306243 3.4983796893 -0.2635496691
$end

$rem
JOBTYPE                   OPT
METHOD                    B3LYP
DFT_D                     d3_op
BASIS                     STO-3G
GEOM_OPT_MAX_CYCLES       100
GEOM_OPT_TOL_GRADIENT     300
GEOM_OPT_TOL_DISPLACEMENT 1200
GEOM_OPT_TOL_ENERGY       100
SYMMETRY                  False
THRESH                    12
SCF_CONVERGENCE           8
MAX_SUB_FILE_NUM          128
MEM_STATIC                400
MEM_TOTAL                 4000
$end
--------------------------------------------------------------

   16   -1510.2934654832      6.96E-09 Convergence criterion met
 Total energy in the final basis set = -1510.29346548
   15   -1510.2796393722      4.48E-09 Convergence criterion met
 Total energy in the final basis set = -1510.27963937
   14   -1510.2854314459      3.41E-09 Convergence criterion met
 Total energy in the final basis set = -1510.28543145
   14   -1510.2883012504      4.55E-09 Convergence criterion met
 Total energy in the final basis set = -1510.28830125
   14   -1510.2876437987      3.66E-09 Convergence criterion met
 Total energy in the final basis set = -1510.28764380
   14   -1510.2872972922      4.37E-09 Convergence criterion met
 Total energy in the final basis set = -1510.28729729
   13   -1510.2925068229      9.45E-09 Convergence criterion met
 Total energy in the final basis set = -1510.29250682
   13   -1510.2935669327      6.89E-09 Convergence criterion met
   11   -1510.2981110704      5.92E-09 Convergence criterion met
 Total energy in the final basis set = -1510.29811107
   12   -1510.2981120668      1.88E-09 Convergence criterion met
 Total energy in the final basis set = -1510.29811207
   12   -1510.2981145560      1.50E-09 Convergence criterion met
 Total energy in the final basis set = -1510.29811456
   11   -1510.2981167191      9.26E-09 Convergence criterion met
 Total energy in the final basis set = -1510.29811672
   10   -1510.2981184017      6.04E-09 Convergence criterion met
 Total energy in the final basis set = -1510.29811840
   10   -1510.2981157397      5.86E-09 Convergence criterion met
 Total energy in the final basis set = -1510.29811574

             Standard Nuclear Orientation (Angstroms)
    I     Atom           X                Y                Z
 ----------------------------------------------------------------
    1      O      -1.1215868293     0.6625312041    -0.2587667295
    2      C      -2.1705677816     1.3158666324    -0.0419035340
    3      C      -3.6168514217     0.8894192214    -0.4676046313
    4      C      -3.6866221859    -0.6097117927    -0.9862964282
    5      C      -2.3028545086    -1.3608367839    -0.9670851981
    6      O      -2.0915536300    -1.9085368241     0.3396799239
    7      C      -0.7001136880    -2.4063058368     0.4811696374
    8      C       0.0483091236    -1.4017906870     1.4261880468
    9      O       1.5060402724    -1.4411659907     1.1557302986
   10      C       2.0559373182    -0.1209138256     1.2206562271
   11      C       3.5977544501    -0.2416364648     0.9693869372
   12      C       3.9750764908    -0.8187461773    -0.4595989756
   13      C       2.7479919409    -1.0723876509    -1.4031055329
   14      O       2.5085560153    -2.1064614876    -2.0646704537
   15      O      -2.2087345046     2.5568982119     0.6443527590
   16      O       1.9615192847     0.1183330878    -1.4428720378
   17      O       1.4078247055     0.9149604154     1.4889039664
   18      C       0.8909913853     0.0068646039    -2.4631309053
   19      C       4.2999164210     1.1760533895     0.9304987537
   20      C       5.8479744662     0.9595062569     1.1468944745
   21      C       6.2618697525     0.3513253294    -0.2449547240
   22      C       4.8801101223     0.3689196903    -1.0131313933
   23      O       4.2044795461     1.5780038111    -0.4922990763
   24      H       4.0220237988    -0.8810480961     1.7649645415
   25      H       4.5408245057    -1.7632984883    -0.3790145851
   26      H       3.8185653634     1.9340250374     1.5784017508
   27      H       6.3510767890     1.9218515578     1.3322955499
   28      H       6.0594994187     0.2805027441     1.9883913473
   29      H       6.9975328638     0.9871605923    -0.7625738175
   30      H       6.6745474846    -0.6666882803    -0.1584690361
   31      H       4.9561598170     0.4113736916    -2.1170289046
   32      O      -1.5630583090    -1.5780132503    -1.9562697863
   33      C      -0.8360887428     2.9915815439     1.0203548823
   34      C      -4.6185237062     0.8375462285     0.7654016102
   35      C      -6.0935355525     0.7929998767     0.2053129402
   36      C      -6.1697838308    -0.6862385168    -0.3252703999
   37      C      -4.7292610460    -1.2214690108     0.0446562392
   38      O      -4.4128608442    -0.5222868458     1.3124569942
   39      H      -3.9731995660     1.5980687919    -1.2380943011
   40      H      -4.0648303737    -0.6447096880    -2.0234256754
   41      H      -0.4116710725     3.6226053737     0.2133565590
   42      H      -4.4207864051     1.6082051819     1.5353584687
   43      H      -6.8171767745     0.9691198705     1.0170007211
   44      H      -6.2615052078     1.5412022493    -0.5856676132
   45      H      -6.9428687814    -1.2657484404     0.2038985581
   46      H      -6.3666295903    -0.7409146029    -1.4078117497
   47      H      -4.6520580490    -2.3174375780     0.1782691653
   48      H      -0.1533164837     2.1297349588     1.1984266337
   49      H      -0.9431309605     3.5989867157     1.9378377773
   50      H       0.4591816359     1.0206000550    -2.5472087508
   51      H       0.0851029284    -0.7073743998    -2.1717334070
   52      H       1.3081584984    -0.3014449593    -3.4428250640
   53      H      -0.3294337927    -0.3793370522     1.2043433090
   54      H      -0.1389593166    -1.6456841262     2.4934424410
   55      H      -0.2125741006    -2.4399374943    -0.5173589284
   56      H      -0.7419606374    -3.4272641309     0.9113536143
 ----------------------------------------------------------------

    9   -1510.2981150889      3.13E-09 Convergence criterion met
 Total energy in the final basis set = -1510.29811509
 Final energy is   -1510.29811508887
 **  OPTIMIZATION CONVERGED  **

                    Orbital Energies (a.u.)
 --------------------------------------------------------------

 Alpha MOs
 -- Occupied --
-18.945 -18.928 -18.926 -18.919 -18.890 -18.887 -18.883 -18.876
-18.869 -18.859 -10.110 -10.101 -10.100 -10.086 -10.063 -10.061
-10.061 -10.056 -10.055 -10.054 -10.052 -10.044 -10.038 -10.034
-10.033 -10.030 -10.022 -10.021 -10.017 -10.016  -1.022  -1.009
 -1.004  -0.995  -0.972  -0.965  -0.944  -0.936  -0.930  -0.921
 -0.765  -0.759  -0.726  -0.721  -0.712  -0.702  -0.690  -0.660
 -0.641  -0.610  -0.595  -0.576  -0.547  -0.540  -0.538  -0.533
 -0.515  -0.505  -0.484  -0.471  -0.464  -0.460  -0.449  -0.439
 -0.435  -0.431  -0.425  -0.416  -0.406  -0.402  -0.398  -0.397
 -0.392  -0.379  -0.371  -0.364  -0.356  -0.354  -0.351  -0.342
 -0.341  -0.334  -0.333  -0.327  -0.325  -0.323  -0.317  -0.316
 -0.307  -0.305  -0.301  -0.300  -0.287  -0.284  -0.282  -0.281
 -0.264  -0.262  -0.244  -0.238  -0.236  -0.233  -0.230  -0.188
 -0.177  -0.166  -0.163  -0.160  -0.153  -0.151  -0.145  -0.139
 -0.138

          Ground-State Mulliken Net Atomic Charges

     Atom                 Charge (a.u.)
  ----------------------------------------
      1 O                    -0.212076
      2 C                     0.218072
      3 C                    -0.078124
      4 C                    -0.080666
      5 C                     0.221277
      6 O                    -0.172952
      7 C                    -0.052794
      8 C                    -0.059729
      9 O                    -0.175025
     10 C                     0.223749
     11 C                    -0.078036
     12 C                    -0.078259
     13 C                     0.207240
     14 O                    -0.216299
     15 O                    -0.167339
     16 O                    -0.169674
     17 O                    -0.216548
     18 C                    -0.138826
     19 C                     0.024667
     20 C                    -0.143870
     21 C                    -0.144209
     22 C                     0.025922
     23 O                    -0.185793
     24 H                     0.084011
     25 H                     0.083834
     26 H                     0.087724
     27 H                     0.077093
     28 H                     0.072372
     29 H                     0.077177
     30 H                     0.073494
     31 H                     0.082199
     32 O                    -0.221750
     33 C                    -0.142132
     34 C                     0.024548
     35 C                    -0.143672
     36 C                    -0.144394
     37 C                     0.026630
     38 O                    -0.187274
     39 H                     0.087297
     40 H                     0.084523
     41 H                     0.085029
     42 H                     0.089149
     43 H                     0.078752
     44 H                     0.073909
     45 H                     0.078358
     46 H                     0.073895
     47 H                     0.087328
     48 H                     0.121299
     49 H                     0.087401
     50 H                     0.083323
     51 H                     0.109077
     52 H                     0.080320
     53 H                     0.110087
     54 H                     0.079506
     55 H                     0.105019
     56 H                     0.085160
  ----------------------------------------
  Sum of atomic charges =    -0.000000

                    Cartesian Multipole Moments
 -----------------------------------------------------------------
    Charge (ESU x 10^10)
                -0.0000
    Dipole Moment (Debye)
         X      -0.9849      Y       0.9984      Z       1.0065
       Tot       1.7262
    Quadrupole Moments (Debye-Ang)
        XX    -136.5387     XY      -2.6087     YY    -161.8929
        XZ       9.6076     YZ      -4.0589     ZZ    -160.9132

 Total job time:  166.77s(wall), 7955.49s(cpu)
        *  Thank you very much for using Q-Chem.  Have a nice day.  *
