 Q-Chem 5.0, Q-Chem, Inc., Pleasanton, CA (2017)
 Q-Chem 5.0.1 for Intel X86 EM64T Linux

User input:
--------------------------------------------------------------
$molecule
0  1
O -3.94934 -3.66094 2.70899
C -3.26408 -4.56952 2.26188
C -3.36658 -6.02376 2.66595
C -4.242 -6.35399 3.88597
C -5.05867 -5.21639 4.4578
O -6.38302 -5.41531 4.18954
C -7.22473 -4.38165 4.71139
C -7.64829 -3.43432 3.59368
O -8.24726 -2.25465 4.15269
C -7.88198 -1.08443 3.57277
C -8.3852 0.12606 4.32254
C -7.77472 0.32322 5.71779
C -6.52411 -0.48079 6.01149
O -6.43997 -1.38828 6.82632
O -2.40033 -4.297 1.24887
O -5.4355 -0.19549 5.24571
O -7.24925 -0.99815 2.52683
C -4.19951 -0.78829 5.37866
C -8.0469 1.49759 3.69089
C -9.0642 2.53872 4.15876
C -8.6675 2.69083 5.61513
C -7.40964 1.81471 5.64971
O -6.87992 1.92724 4.34956
H -9.49439 0.02934 4.35474
H -8.5114 0.07031 6.51235
H -8.00606 1.47871 2.58029
H -8.82089 3.48561 3.6249
H -10.13223 2.28801 3.98205
H -8.41779 3.75886 5.80124
H -9.42217 2.33965 6.35198
H -6.73608 2.11759 6.4816
O -4.5779 -4.31625 5.13468
C -2.20372 -3.0415 0.71297
C -4.00287 -6.89973 1.57518
C -3.52872 -8.34161 1.73229
C -4.26938 -8.74323 2.98899
C -5.10108 -7.47825 3.24001
O -5.35543 -6.98024 1.94907
H -2.31749 -6.34356 2.8596
H -3.66495 -6.77831 4.73737
H -1.83441 -2.34491 1.49583
H -3.80025 -6.53743 0.5435
H -3.9427 -8.9197 0.87511
H -2.42603 -8.47515 1.76749
H -4.93326 -9.60189 2.74292
H -3.62732 -8.99829 3.85958
H -5.99083 -7.74965 3.84933
H -3.15319 -2.65535 0.28416
H -1.44666 -3.10533 -0.09525
H -3.50576 -0.35327 4.63049
H -4.27839 -1.87507 5.19557
H -3.7937 -0.60366 6.39607
H -6.72656 -3.20186 3.01366
H -8.36228 -3.95621 2.92163
H -6.73918 -3.76555 5.49967
H -8.11408 -4.82715 5.20476
$end

$opt
CONSTRAINT
tors           1           2           3           4     -10.120
tors           3           4           5           6    +109.142
tors           4           5           6           7    +179.487
tors           5           6           7           8    +102.526
tors           6           7           8           9    -167.829
tors           7           8           9          10    +137.724
tors           8           9          10          11    -171.809
tors           9          10          11          12     +66.361
tors          11          12          13          14    -112.858
ENDCONSTRAINT
$end

$rem
JOBTYPE                   OPT
METHOD                    B3LYP
DFT_D                     d3_op
BASIS                     STO-3G
GEOM_OPT_MAX_CYCLES       100
GEOM_OPT_TOL_GRADIENT     300
GEOM_OPT_TOL_DISPLACEMENT 1200
GEOM_OPT_TOL_ENERGY       100
SYMMETRY                  False
THRESH                    12
SCF_CONVERGENCE           8
MAX_SUB_FILE_NUM          128
MEM_STATIC                400
MEM_TOTAL                 4000
$end
--------------------------------------------------------------

   15   -1510.1592011968      7.13E-09 Convergence criterion met
 Total energy in the final basis set = -1510.15920120
   14   -1510.2287444856      5.43E-09 Convergence criterion met
 Total energy in the final basis set = -1510.22874449
   14   -1510.2654634265      4.53E-09 Convergence criterion met
 Total energy in the final basis set = -1510.26546343
   14   -1510.2795001215      9.47E-09 Convergence criterion met
 Total energy in the final basis set = -1510.27950012
   14   -1510.2877063008      6.01E-09 Convergence criterion met
 Total energy in the final basis set = -1510.28770630
    2   -1510.2877063007      5.93E-09 Convergence criterion met
 Total energy in the final basis set = -1510.28770630
   13   -1510.2897438384      3.79E-09 Convergence criterion met
 Total energy in the final basis set = -1510.28974384
   13   -1510.2915399318      3.43E-09 Convergence criterion met
   12   -1510.2936757759      4.75E-09 Convergence criterion met
 Total energy in the final basis set = -1510.29367578
   11   -1510.2937285054      9.71E-09 Convergence criterion met
 Total energy in the final basis set = -1510.29372851
   11   -1510.2937701181      5.87E-09 Convergence criterion met
 Total energy in the final basis set = -1510.29377012
   11   -1510.2937924267      5.38E-09 Convergence criterion met
 Total energy in the final basis set = -1510.29379243
   11   -1510.2938027974      4.57E-09 Convergence criterion met
 Total energy in the final basis set = -1510.29380280
   10   -1510.2938092140      8.46E-09 Convergence criterion met
 Total energy in the final basis set = -1510.29380921

             Standard Nuclear Orientation (Angstroms)
    I     Atom           X                Y                Z
 ----------------------------------------------------------------
    1      O       1.6651625026    -0.9066569154     0.4842723683
    2      C       2.7411098685    -1.4699823643     0.1718319799
    3      C       3.9904518827    -0.7874803849    -0.4796479683
    4      C       3.6659469344     0.6905286128    -0.9529118553
    5      C       2.1263169366     1.0123286912    -0.9076403392
    6      O       1.8471950244     1.9275832941     0.1523021133
    7      C       0.3993033541     2.2455736907     0.1938318835
    8      C      -0.2472400668     1.4265886821     1.3696317141
    9      O      -1.7175058962     1.5170058954     1.2174081783
   10      C      -2.3554207481     0.2563164773     1.4576162148
   11      C      -3.8574456070     0.4579644368     1.0545206789
   12      C      -4.0156670759     0.7097715464    -0.5095811021
   13      C      -2.6549246602     0.5626773255    -1.2861967656
   14      O      -2.0065533516     1.4618522000    -1.8677249749
   15      O       3.0087151802    -2.8504694920     0.3915592067
   16      O      -2.2535477421    -0.8023284842    -1.1904150787
   17      O      -1.7857164494    -0.7668143343     1.8892177522
   18      C      -1.0193073005    -1.0625548918    -1.9681448082
   19      C      -4.7484953278    -0.8356442172     1.2522526577
   20      C      -6.2624231547    -0.3873910709     1.2286512280
   21      C      -6.4594581635    -0.0769680416    -0.3026907019
   22      C      -5.0352334494    -0.4502745087    -0.8794310491
   23      O      -4.5956509985    -1.5748906434    -0.0219976340
   24      H      -4.2546373996     1.3171651994     1.6249929589
   25      H      -4.4240798222     1.7139753016    -0.7184455041
   26      H      -4.4459251942    -1.4726577021     2.1059103717
   27      H      -6.9131143202    -1.2128916410     1.5587631281
   28      H      -6.4508986204     0.4888167279     1.8692828168
   29      H      -7.2358341054    -0.7182818602    -0.7490873795
   30      H      -6.7204546652     0.9765735552    -0.4921469590
   31      H      -5.0228058537    -0.7497856474    -1.9452495688
   32      O       1.3047916643     0.6777278918    -1.7951338937
   33      C       1.8390639172    -3.4946054781     1.0398948593
   34      C       5.0923838162    -0.5047623286     0.6316075637
   35      C       6.4217841939    -0.0319902604    -0.0784084838
   36      C       6.0555713144     1.4501164501    -0.4595838444
   37      C       4.5628879327     1.5334082170     0.0476675454
   38      O       4.5802680607     0.7200299361     1.2873594093
   39      H       4.3748006174    -1.4263918679    -1.2944172425
   40      H       3.9923489466     0.8319718452    -1.9988430674
   41      H       0.9294823952    -3.4106869662     0.4108948020
   42      H       5.2145646017    -1.3233444708     1.3675278051
   43      H       7.2686191011    -0.0736316141     0.6248792955
   44      H       6.6633458713    -0.6504883294    -0.9578986571
   45      H       6.6860147229     2.1727387669     0.0825354197
   46      H       6.1404889048     1.6465755361    -1.5402414854
   47      H       4.1814874579     2.5505365608     0.2576437753
   48      H       1.6248565985    -3.0434030067     2.0299423532
   49      H       2.1100565096    -4.5588484925     1.1651858063
   50      H      -0.6846415483    -2.0703190596    -1.6613868134
   51      H      -0.2112340681    -0.3163789974    -1.7758237638
   52      H      -1.2408569005    -1.0708975344    -3.0550144557
   53      H       0.0892628042     0.3671484497     1.3113697099
   54      H       0.0561574066     1.8442856044     2.3533689467
   55      H      -0.0935656182     1.9683902620    -0.7663004853
   56      H       0.3054653516     3.3363510900     0.3672547152
 ----------------------------------------------------------------

    9   -1510.2938085003      6.03E-09 Convergence criterion met
 Total energy in the final basis set = -1510.29380850
 Final energy is   -1510.29380850029
 **  OPTIMIZATION CONVERGED  **

                    Orbital Energies (a.u.)
 --------------------------------------------------------------

 Alpha MOs
 -- Occupied --
-18.950 -18.929 -18.921 -18.919 -18.892 -18.890 -18.880 -18.871
-18.866 -18.860 -10.112 -10.101 -10.092 -10.086 -10.070 -10.065
-10.060 -10.056 -10.054 -10.053 -10.052 -10.044 -10.038 -10.031
-10.030 -10.028 -10.024 -10.022 -10.015 -10.014  -1.025  -1.007
 -1.003  -0.994  -0.973  -0.962  -0.948  -0.933  -0.928  -0.921
 -0.767  -0.756  -0.727  -0.719  -0.712  -0.700  -0.687  -0.668
 -0.642  -0.610  -0.593  -0.573  -0.549  -0.540  -0.538  -0.530
 -0.516  -0.502  -0.484  -0.471  -0.465  -0.458  -0.453  -0.438
 -0.434  -0.427  -0.423  -0.417  -0.412  -0.406  -0.394  -0.393
 -0.390  -0.381  -0.369  -0.363  -0.358  -0.355  -0.352  -0.344
 -0.342  -0.336  -0.333  -0.328  -0.323  -0.318  -0.317  -0.315
 -0.307  -0.303  -0.301  -0.299  -0.286  -0.284  -0.280  -0.277
 -0.267  -0.265  -0.247  -0.238  -0.236  -0.228  -0.227  -0.190
 -0.178  -0.166  -0.161  -0.159  -0.152  -0.149  -0.145  -0.138
 -0.135

          Ground-State Mulliken Net Atomic Charges

     Atom                 Charge (a.u.)
  ----------------------------------------
      1 O                    -0.206773
      2 C                     0.218234
      3 C                    -0.077960
      4 C                    -0.080791
      5 C                     0.223178
      6 O                    -0.170573
      7 C                    -0.055362
      8 C                    -0.057539
      9 O                    -0.179436
     10 C                     0.212251
     11 C                    -0.077715
     12 C                    -0.077642
     13 C                     0.206646
     14 O                    -0.217952
     15 O                    -0.165670
     16 O                    -0.168383
     17 O                    -0.208736
     18 C                    -0.145415
     19 C                     0.024524
     20 C                    -0.143599
     21 C                    -0.144573
     22 C                     0.026183
     23 O                    -0.184495
     24 H                     0.083853
     25 H                     0.083127
     26 H                     0.087188
     27 H                     0.076641
     28 H                     0.072042
     29 H                     0.076612
     30 H                     0.072673
     31 H                     0.082179
     32 O                    -0.226948
     33 C                    -0.128207
     34 C                     0.024921
     35 C                    -0.143997
     36 C                    -0.143603
     37 C                     0.024803
     38 O                    -0.189049
     39 H                     0.088723
     40 H                     0.085586
     41 H                     0.095527
     42 H                     0.085114
     43 H                     0.078957
     44 H                     0.074422
     45 H                     0.078575
     46 H                     0.074007
     47 H                     0.092270
     48 H                     0.095085
     49 H                     0.093540
     50 H                     0.079440
     51 H                     0.115712
     52 H                     0.076140
     53 H                     0.110389
     54 H                     0.080387
     55 H                     0.110565
     56 H                     0.084922
  ----------------------------------------
  Sum of atomic charges =    -0.000000

                    Cartesian Multipole Moments
 -----------------------------------------------------------------
    Charge (ESU x 10^10)
                -0.0000
    Dipole Moment (Debye)
         X       1.5618      Y      -0.1982      Z       0.0572
       Tot       1.5754
    Quadrupole Moments (Debye-Ang)
        XX    -135.5282     XY      -6.4169     YY    -157.4317
        XZ      -6.6532     YZ       1.2086     ZZ    -161.0390

 Total job time:  55.76s(wall), 2653.29s(cpu)
        *  Thank you very much for using Q-Chem.  Have a nice day.  *
