 Q-Chem 5.0, Q-Chem, Inc., Pleasanton, CA (2017)
 Q-Chem 5.0.1 for Intel X86 EM64T Linux

User input:
--------------------------------------------------------------
$molecule
0  1
O 1.6651625026 -0.9066569154 0.4842723683
C 2.7411098685 -1.4699823643 0.1718319799
C 3.9904518827 -0.7874803849 -0.4796479683
C 3.6659469344 0.6905286128 -0.9529118553
C 2.1263169366 1.0123286912 -0.9076403392
O 1.8471950244 1.9275832941 0.1523021133
C 0.3993033541 2.2455736907 0.1938318835
C -0.2472400668 1.4265886821 1.3696317141
O -1.7175058962 1.5170058954 1.2174081783
C -2.3554207481 0.2563164773 1.4576162148
C -3.857445607 0.4579644368 1.0545206789
C -4.0156670759 0.7097715464 -0.5095811021
C -2.6549246602 0.5626773255 -1.2861967656
O -2.0065533516 1.4618522 -1.8677249749
O 3.0087151802 -2.850469492 0.3915592067
O -2.2535477421 -0.8023284842 -1.1904150787
O -1.7857164494 -0.7668143343 1.8892177522
C -1.0193073005 -1.0625548918 -1.9681448082
C -4.7484953278 -0.8356442172 1.2522526577
C -6.2624231547 -0.3873910709 1.228651228
C -6.4594581635 -0.0769680416 -0.3026907019
C -5.0352334494 -0.4502745087 -0.8794310491
O -4.5956509985 -1.5748906434 -0.021997634
H -4.2546373996 1.3171651994 1.6249929589
H -4.4240798222 1.7139753016 -0.7184455041
H -4.4459251942 -1.4726577021 2.1059103717
H -6.9131143202 -1.212891641 1.5587631281
H -6.4508986204 0.4888167279 1.8692828168
H -7.2358341054 -0.7182818602 -0.7490873795
H -6.7204546652 0.9765735552 -0.492146959
H -5.0228058537 -0.7497856474 -1.9452495688
O 1.3047916643 0.6777278918 -1.7951338937
C 1.8390639172 -3.4946054781 1.0398948593
C 5.0923838162 -0.5047623286 0.6316075637
C 6.4217841939 -0.0319902604 -0.0784084838
C 6.0555713144 1.4501164501 -0.4595838444
C 4.5628879327 1.533408217 0.0476675454
O 4.5802680607 0.7200299361 1.2873594093
H 4.3748006174 -1.4263918679 -1.2944172425
H 3.9923489466 0.8319718452 -1.9988430674
H 0.9294823952 -3.4106869662 0.410894802
H 5.2145646017 -1.3233444708 1.3675278051
H 7.2686191011 -0.0736316141 0.6248792955
H 6.6633458713 -0.6504883294 -0.9578986571
H 6.6860147229 2.1727387669 0.0825354197
H 6.1404889048 1.6465755361 -1.5402414854
H 4.1814874579 2.5505365608 0.2576437753
H 1.6248565985 -3.0434030067 2.0299423532
H 2.1100565096 -4.5588484925 1.1651858063
H -0.6846415483 -2.0703190596 -1.6613868134
H -0.2112340681 -0.3163789974 -1.7758237638
H -1.2408569005 -1.0708975344 -3.0550144557
H 0.0892628042 0.3671484497 1.3113697099
H 0.0561574066 1.8442856044 2.3533689467
H -0.0935656182 1.968390262 -0.7663004853
H 0.3054653516 3.33635109 0.3672547152
$end

$rem
JOBTYPE                   OPT
METHOD                    B3LYP
DFT_D                     d3_op
BASIS                     STO-3G
GEOM_OPT_MAX_CYCLES       100
GEOM_OPT_TOL_GRADIENT     300
GEOM_OPT_TOL_DISPLACEMENT 1200
GEOM_OPT_TOL_ENERGY       100
SYMMETRY                  False
THRESH                    12
SCF_CONVERGENCE           8
MAX_SUB_FILE_NUM          128
MEM_STATIC                400
MEM_TOTAL                 4000
$end
--------------------------------------------------------------

   15   -1510.2939024641      9.57E-09 Convergence criterion met
 Total energy in the final basis set = -1510.29390246
   14   -1510.2889182107      3.06E-09 Convergence criterion met
 Total energy in the final basis set = -1510.28891821
   14   -1510.2911883220      8.00E-09 Convergence criterion met
 Total energy in the final basis set = -1510.29118832
   14   -1510.2873971606      4.03E-09 Convergence criterion met
 Total energy in the final basis set = -1510.28739716
   14   -1510.2821635694      5.38E-09 Convergence criterion met
 Total energy in the final basis set = -1510.28216357
   14   -1510.2902100449      2.55E-09 Convergence criterion met
 Total energy in the final basis set = -1510.29021004
   14   -1510.2920073480      2.83E-09 Convergence criterion met
 Total energy in the final basis set = -1510.29200735
   14   -1510.2934166642      2.02E-09 Convergence criterion met
   10   -1510.2981901974      6.60E-09 Convergence criterion met
 Total energy in the final basis set = -1510.29819020
   12   -1510.2981851898      3.90E-09 Convergence criterion met
 Total energy in the final basis set = -1510.29818519
   11   -1510.2981768277      4.64E-09 Convergence criterion met
 Total energy in the final basis set = -1510.29817683
    9   -1510.2981792432      7.97E-09 Convergence criterion met
 Total energy in the final basis set = -1510.29817924
   10   -1510.2981773308      7.24E-09 Convergence criterion met
 Total energy in the final basis set = -1510.29817733
    9   -1510.2981760242      3.44E-09 Convergence criterion met
 Total energy in the final basis set = -1510.29817602

             Standard Nuclear Orientation (Angstroms)
    I     Atom           X                Y                Z
 ----------------------------------------------------------------
    1      O      -1.1432667621     0.6901367464    -0.3790829809
    2      C      -2.2219198949     1.3017910681    -0.1850560454
    3      C      -3.6462532813     0.7854070516    -0.5867560440
    4      C      -3.6640560180    -0.7653185184    -0.9296701962
    5      C      -2.2675862830    -1.4741907701    -0.7730184123
    6      O      -2.0655495634    -1.7952204136     0.6079912064
    7      C      -0.6690072864    -2.2402434859     0.8474357248
    8      C       0.0573610909    -1.0628861428     1.5875974233
    9      O       1.5199800283    -1.1549188335     1.3653121872
   10      C       2.0849071588     0.1541920808     1.2331368292
   11      C       3.6256325787    -0.0305360449     1.0116700524
   12      C       3.9810655127    -0.8917783876    -0.2721350263
   13      C       2.7402925510    -1.2692407265    -1.1559827243
   14      O       2.4487193559    -2.3975939748    -1.6093185223
   15      O      -2.3181574755     2.5705685543     0.4416932615
   16      O       2.0095423119    -0.0717582177    -1.4209163213
   17      O       1.4479893844     1.2262101806     1.3325485297
   18      C       0.9366841803    -0.3173354326    -2.4144386362
   19      C       4.3573277052     1.3363270400     0.6875247251
   20      C       5.9006006346     1.1417417133     0.9539066721
   21      C       6.3011682212     0.2308307561    -0.2661189159
   22      C       4.9263448612     0.1308570340    -1.0413585396
   23      O       4.2812633818     1.4384871753    -0.7885017293
   24      H       4.0410850006    -0.5060679400     1.9193734011
   25      H       4.5089037047    -1.8235799360    -0.0048006126
   26      H       3.8883933516     2.2208358107     1.1610398590
   27      H       6.4213141324     2.1120377959     0.9190765223
   28      H       6.1031100073     0.6669482377     1.9271980550
   29      H       7.0666182862     0.7109729396    -0.8961047012
   30      H       6.6709658340    -0.7588754766     0.0464066159
   31      H       5.0129224743    -0.0549838914    -2.1295394116
   32      O      -1.5046545980    -1.8282592517    -1.7031301870
   33      C      -0.9686142579     3.0964690250     0.7841826879
   34      C      -4.6850107797     0.8485418354     0.6141882450
   35      C      -6.1401289741     0.7043499382     0.0186744571
   36      C      -6.1670437954    -0.8266931842    -0.3440910619
   37      C      -4.7291632624    -1.2809895938     0.1306131373
   38      O      -4.4708317639    -0.4348320729     1.3187117397
   39      H      -3.9977831741     1.3878402458    -1.4450295471
   40      H      -4.0028095319    -0.9316154899    -1.9674124202
   41      H      -0.5871715182     3.7137828914    -0.0542620801
   42      H      -4.5278308842     1.7058660056     1.2970498240
   43      H      -6.8927308701     0.9511139844     0.7843811038
   44      H      -6.3001403686     1.3540597815    -0.8564714262
   45      H      -6.9456909913    -1.3623980046     0.2217778789
   46      H      -6.3249221420    -1.0073688930    -1.4193672539
   47      H      -4.6343454326    -2.3525804609     0.3908901648
   48      H      -0.2349638592     2.2851682113     0.9945258268
   49      H      -1.1027320187     3.7375834126     1.6747917200
   50      H       0.5138925793     0.6780755814    -2.6412147033
   51      H       0.1250713575    -0.9779961904    -2.0276091022
   52      H       1.3511823046    -0.7631650112    -3.3410414878
   53      H      -0.3172414325    -0.1104715510     1.1503684281
   54      H      -0.1601909384    -1.0844721849     2.6766438662
   55      H      -0.1707214402    -2.4558623783    -0.1225988989
   56      H      -0.7052132989    -3.1608187597     1.4639328025
 ----------------------------------------------------------------

    9   -1510.2981713858      3.33E-09 Convergence criterion met
 Total energy in the final basis set = -1510.29817139
 Final energy is   -1510.29817138578
 **  OPTIMIZATION CONVERGED  **

                    Orbital Energies (a.u.)
 --------------------------------------------------------------

 Alpha MOs
 -- Occupied --
-18.947 -18.928 -18.926 -18.918 -18.890 -18.888 -18.883 -18.876
-18.871 -18.859 -10.112 -10.101 -10.100 -10.085 -10.063 -10.062
-10.062 -10.055 -10.054 -10.054 -10.053 -10.044 -10.039 -10.034
-10.032 -10.030 -10.023 -10.021 -10.017 -10.016  -1.023  -1.010
 -1.005  -0.994  -0.972  -0.965  -0.945  -0.936  -0.931  -0.920
 -0.766  -0.758  -0.727  -0.720  -0.712  -0.702  -0.690  -0.661
 -0.641  -0.610  -0.595  -0.576  -0.548  -0.541  -0.539  -0.533
 -0.516  -0.504  -0.484  -0.471  -0.465  -0.460  -0.449  -0.438
 -0.435  -0.431  -0.425  -0.416  -0.406  -0.402  -0.398  -0.396
 -0.392  -0.380  -0.371  -0.364  -0.356  -0.354  -0.351  -0.342
 -0.342  -0.334  -0.333  -0.327  -0.325  -0.322  -0.317  -0.316
 -0.307  -0.304  -0.301  -0.299  -0.287  -0.285  -0.283  -0.282
 -0.265  -0.263  -0.244  -0.239  -0.236  -0.233  -0.229  -0.188
 -0.177  -0.167  -0.164  -0.159  -0.153  -0.151  -0.146  -0.138
 -0.137

          Ground-State Mulliken Net Atomic Charges

     Atom                 Charge (a.u.)
  ----------------------------------------
      1 O                    -0.212870
      2 C                     0.218617
      3 C                    -0.078013
      4 C                    -0.080440
      5 C                     0.220679
      6 O                    -0.172746
      7 C                    -0.053178
      8 C                    -0.060994
      9 O                    -0.175512
     10 C                     0.223468
     11 C                    -0.077942
     12 C                    -0.078061
     13 C                     0.207914
     14 O                    -0.216602
     15 O                    -0.166743
     16 O                    -0.170155
     17 O                    -0.216700
     18 C                    -0.139179
     19 C                     0.024715
     20 C                    -0.143669
     21 C                    -0.144412
     22 C                     0.025820
     23 O                    -0.185588
     24 H                     0.083727
     25 H                     0.083666
     26 H                     0.087803
     27 H                     0.077107
     28 H                     0.072308
     29 H                     0.077057
     30 H                     0.073344
     31 H                     0.081987
     32 O                    -0.219892
     33 C                    -0.141691
     34 C                     0.024550
     35 C                    -0.143672
     36 C                    -0.144392
     37 C                     0.026823
     38 O                    -0.187121
     39 H                     0.087301
     40 H                     0.084827
     41 H                     0.085283
     42 H                     0.089891
     43 H                     0.078755
     44 H                     0.073794
     45 H                     0.078407
     46 H                     0.073924
     47 H                     0.086921
     48 H                     0.120570
     49 H                     0.087913
     50 H                     0.083935
     51 H                     0.109403
     52 H                     0.079152
     53 H                     0.109577
     54 H                     0.079019
     55 H                     0.105624
     56 H                     0.085693
  ----------------------------------------
  Sum of atomic charges =     0.000000

                    Cartesian Multipole Moments
 -----------------------------------------------------------------
    Charge (ESU x 10^10)
                 0.0000
    Dipole Moment (Debye)
         X      -1.0904      Y       1.1468      Z       0.8715
       Tot       1.8066
    Quadrupole Moments (Debye-Ang)
        XX    -136.7217     XY      -1.6249     YY    -162.8842
        XZ      10.3474     YZ      -3.0061     ZZ    -159.5363

 Total job time:  154.87s(wall), 7394.35s(cpu)
        *  Thank you very much for using Q-Chem.  Have a nice day.  *
