 Q-Chem 5.0, Q-Chem, Inc., Pleasanton, CA (2017)
 Q-Chem 5.0.1 for Intel X86 EM64T Linux

User input:
--------------------------------------------------------------
$molecule
0  1
O -3.94934 -3.66094 2.70899
C -3.26408 -4.56952 2.26188
C -3.36658 -6.02376 2.66595
C -4.24795 -6.35483 3.88145
C -5.0693 -5.21822 4.44853
O -6.39619 -5.44361 4.21614
C -7.24164 -4.40938 4.73075
C -7.68735 -3.48485 3.60261
O -8.37746 -2.34809 4.1452
C -8.02565 -1.14771 3.62132
C -8.63646 0.01877 4.36084
C -8.13739 0.20502 5.80116
C -6.87547 -0.55067 6.16614
O -6.81639 -1.50635 6.92624
O -2.39799 -4.29667 1.25094
O -5.74355 -0.18378 5.50522
O -7.32333 -1.00393 2.62747
C -4.50269 -0.75087 5.69607
C -8.31827 1.42095 3.78881
C -9.41459 2.40177 4.20592
C -9.1316 2.53146 5.69074
C -7.83946 1.71282 5.79621
O -7.22336 1.88482 4.54139
H -9.73944 -0.12804 4.30975
H -8.91698 -0.10488 6.53203
H -8.19672 1.43441 2.68405
H -9.17833 3.37306 3.71443
H -10.45416 2.10809 3.94545
H -8.94694 3.6042 5.92055
H -9.91988 2.12595 6.36157
H -7.24268 2.02287 6.68229
O -4.59097 -4.30624 5.11198
C -2.19864 -3.04082 0.71694
C -3.99723 -6.90132 1.57285
C -3.51912 -8.34164 1.73116
C -4.26086 -8.7451 2.98662
C -5.09942 -7.48382 3.23406
O -5.35097 -6.98688 1.94222
H -2.31801 -6.34271 2.86394
H -3.66976 -6.77174 4.73574
H -1.82972 -2.34577 1.50132
H -3.79259 -6.53839 0.5418
H -3.93036 -8.92056 0.8732
H -2.41622 -8.4729 1.76808
H -4.91909 -9.60803 2.74031
H -3.61967 -8.99472 3.85943
H -5.98998 -7.76067 3.83953
H -3.14673 -2.6528 0.28679
H -1.44008 -3.10475 -0.08989
H -3.76875 -0.25158 5.031
H -4.53491 -1.82742 5.443
H -4.17997 -0.61967 6.75088
H -6.77263 -3.20625 3.03262
H -8.36024 -4.05003 2.92317
H -6.75921 -3.78064 5.51035
H -8.12378 -4.86265 5.23012
$end

$opt
CONSTRAINT
tors           1           2           3           4      -9.805
tors           3           4           5           6    +111.348
tors           4           5           6           7    +179.753
tors           5           6           7           8    +101.642
tors           6           7           8           9    -171.994
tors           7           8           9          10    +134.979
tors           8           9          10          11    -171.871
tors           9          10          11          12     +66.361
tors          11          12          13          14    -110.038
ENDCONSTRAINT
$end

$rem
JOBTYPE                   OPT
METHOD                    B3LYP
DFT_D                     d3_op
BASIS                     STO-3G
GEOM_OPT_MAX_CYCLES       100
GEOM_OPT_TOL_GRADIENT     300
GEOM_OPT_TOL_DISPLACEMENT 1200
GEOM_OPT_TOL_ENERGY       100
SYMMETRY                  False
THRESH                    12
SCF_CONVERGENCE           8
MAX_SUB_FILE_NUM          128
MEM_STATIC                400
MEM_TOTAL                 4000
$end
--------------------------------------------------------------

   15   -1510.1585675632      7.20E-09 Convergence criterion met
 Total energy in the final basis set = -1510.15856756
   14   -1510.2281905124      6.50E-09 Convergence criterion met
 Total energy in the final basis set = -1510.22819051
   14   -1510.2651517780      3.31E-09 Convergence criterion met
 Total energy in the final basis set = -1510.26515178
   14   -1510.2794710583      5.11E-09 Convergence criterion met
 Total energy in the final basis set = -1510.27947106
   14   -1510.2870671745      2.65E-09 Convergence criterion met
 Total energy in the final basis set = -1510.28706717
   13   -1510.2892940470      3.51E-09 Convergence criterion met
 Total energy in the final basis set = -1510.28929405
   13   -1510.2909785947      2.52E-09 Convergence criterion met
 Total energy in the final basis set = -1510.29097859
   13   -1510.2916608092      2.29E-09 Convergence criterion met
   11   -1510.2932058573      5.85E-09 Convergence criterion met
 Total energy in the final basis set = -1510.29320586
   11   -1510.2932495276      3.95E-09 Convergence criterion met
 Total energy in the final basis set = -1510.29324953
   11   -1510.2932735029      4.78E-09 Convergence criterion met
 Total energy in the final basis set = -1510.29327350
   11   -1510.2932771510      4.00E-09 Convergence criterion met
 Total energy in the final basis set = -1510.29327715
   11   -1510.2932817812      2.15E-09 Convergence criterion met
 Total energy in the final basis set = -1510.29328178
    9   -1510.2932838649      4.25E-09 Convergence criterion met
 Total energy in the final basis set = -1510.29328386

             Standard Nuclear Orientation (Angstroms)
    I     Atom           X                Y                Z
 ----------------------------------------------------------------
    1      O       1.7699560635    -0.9682476965     0.5083613423
    2      C       2.8566841315    -1.4850206022     0.1570375953
    3      C       4.0700267003    -0.7433933799    -0.4986236533
    4      C       3.6917222719     0.7385377587    -0.9130446493
    5      C       2.1406211719     0.9992200696    -0.8690871534
    6      O       1.8231574666     1.8990101183     0.1938545551
    7      C       0.3626482865     2.1522743011     0.2353308797
    8      C      -0.2504127366     1.2856817036     1.3933469151
    9      O      -1.7241263070     1.3966264439     1.2980914049
   10      C      -2.3586392501     0.1194040786     1.4398184600
   11      C      -3.8728576230     0.3529579686     1.1100082269
   12      C      -4.0910694388     0.7499416171    -0.4169677934
   13      C      -2.7621231359     0.6861311213    -1.2583285747
   14      O      -2.1151004894     1.6457404566    -1.7362334219
   15      O       3.1782722694    -2.8609802782     0.3325738800
   16      O      -2.3780584778    -0.6825648480    -1.3630660460
   17      O      -1.7758401179    -0.9418373106     1.7437546785
   18      C      -1.1722180158    -0.8380315832    -2.2116904178
   19      C      -4.7544147365    -0.9585711508     1.2164787446
   20      C      -6.2685467907    -0.5175349367     1.2968698328
   21      C      -6.5256624263    -0.0581081916    -0.1872976671
   22      C      -5.1263989418    -0.3710902708    -0.8546745068
   23      O      -4.6531873723    -1.5710163726    -0.1277703483
   24      H      -4.2512698092     1.1525939880     1.7724409925
   25      H      -4.5058259467     1.7687788083    -0.5118331927
   26      H      -4.4167358878    -1.6734725129     1.9918223596
   27      H      -6.9045414600    -1.3754837343     1.5677637456
   28      H      -6.4331978818     0.2887386236     2.0291990681
   29      H      -7.3209670936    -0.6532708154    -0.6633284886
   30      H      -6.7906354754     1.0086905423    -0.2628852499
   31      H      -5.1576955813    -0.5665510000    -1.9439416182
   32      O       1.3331255159     0.6235850496    -1.7523853577
   33      C       2.0491832030    -3.5650546012     0.9895346180
   34      C       5.1776183970    -0.4623078065     0.6072610031
   35      C       6.4761752361     0.0960377736    -0.0988204062
   36      C       6.0475832820     1.5805180824    -0.3996998909
   37      C       4.5574835535     1.5751858775     0.1197285101
   38      O       4.6226903447     0.7099193461     1.3219396179
   39      H       4.4594669243    -1.3427303812    -1.3403725811
   40      H       4.0167176920     0.9316344829    -1.9512503252
   41      H       1.1158347022    -3.4776530592     0.3970747125
   42      H       5.3439963850    -1.3057973612     1.3054840428
   43      H       7.3365729186     0.0522757845     0.5875814401
   44      H       6.7234863872    -0.4691918519    -1.0117655617
   45      H       6.6521215515     2.2980222777     0.1777322176
   46      H       6.1179077863     1.8377550701    -1.4686272172
   47      H       4.1323614760     2.5639165058     0.3763530777
   48      H       1.8593369401    -3.1653490051     2.0064328983
   49      H       2.3516574827    -4.6260897601     1.0569307153
   50      H      -0.9108798516    -1.9102858117    -2.1552623390
   51      H      -0.3080793708    -0.2193150891    -1.8705166164
   52      H      -1.3987979662    -0.5758678128    -3.2652150481
   53      H       0.0725322333     0.2263869470     1.2827161253
   54      H       0.0891047273     1.6610878865     2.3821814160
   55      H      -0.1214228334     1.8862497343    -0.7313667425
   56      H       0.2240928225     3.2335462679     0.4371248461
 ----------------------------------------------------------------

    9   -1510.2932848336      4.03E-09 Convergence criterion met
 Total energy in the final basis set = -1510.29328483
 Final energy is   -1510.29328483361
 **  OPTIMIZATION CONVERGED  **

                    Orbital Energies (a.u.)
 --------------------------------------------------------------

 Alpha MOs
 -- Occupied --
-18.948 -18.930 -18.922 -18.920 -18.890 -18.890 -18.880 -18.872
-18.866 -18.861 -10.111 -10.101 -10.093 -10.087 -10.069 -10.065
-10.060 -10.056 -10.054 -10.054 -10.052 -10.044 -10.038 -10.032
-10.031 -10.029 -10.023 -10.021 -10.015 -10.014  -1.024  -1.007
 -1.003  -0.995  -0.973  -0.962  -0.947  -0.933  -0.929  -0.921
 -0.766  -0.757  -0.726  -0.720  -0.712  -0.700  -0.687  -0.668
 -0.642  -0.610  -0.593  -0.574  -0.549  -0.540  -0.539  -0.531
 -0.515  -0.503  -0.483  -0.471  -0.465  -0.459  -0.453  -0.438
 -0.433  -0.427  -0.423  -0.416  -0.411  -0.405  -0.394  -0.392
 -0.390  -0.380  -0.369  -0.364  -0.358  -0.356  -0.352  -0.344
 -0.342  -0.337  -0.332  -0.328  -0.323  -0.318  -0.318  -0.314
 -0.307  -0.303  -0.301  -0.299  -0.286  -0.284  -0.280  -0.277
 -0.268  -0.264  -0.247  -0.238  -0.237  -0.230  -0.227  -0.189
 -0.178  -0.165  -0.161  -0.159  -0.152  -0.150  -0.144  -0.138
 -0.136

          Ground-State Mulliken Net Atomic Charges

     Atom                 Charge (a.u.)
  ----------------------------------------
      1 O                    -0.207056
      2 C                     0.218044
      3 C                    -0.077811
      4 C                    -0.080778
      5 C                     0.222921
      6 O                    -0.170361
      7 C                    -0.055063
      8 C                    -0.057783
      9 O                    -0.178626
     10 C                     0.211441
     11 C                    -0.077858
     12 C                    -0.077489
     13 C                     0.206088
     14 O                    -0.218872
     15 O                    -0.166271
     16 O                    -0.167651
     17 O                    -0.208380
     18 C                    -0.144724
     19 C                     0.024619
     20 C                    -0.143613
     21 C                    -0.144613
     22 C                     0.026264
     23 O                    -0.184510
     24 H                     0.084104
     25 H                     0.083272
     26 H                     0.087329
     27 H                     0.076739
     28 H                     0.072101
     29 H                     0.076680
     30 H                     0.072646
     31 H                     0.082511
     32 O                    -0.227497
     33 C                    -0.128374
     34 C                     0.024818
     35 C                    -0.144146
     36 C                    -0.143438
     37 C                     0.024532
     38 O                    -0.189515
     39 H                     0.088737
     40 H                     0.085244
     41 H                     0.096427
     42 H                     0.085015
     43 H                     0.078851
     44 H                     0.074382
     45 H                     0.078502
     46 H                     0.073959
     47 H                     0.092500
     48 H                     0.093742
     49 H                     0.093132
     50 H                     0.081885
     51 H                     0.113770
     52 H                     0.077377
     53 H                     0.110752
     54 H                     0.080992
     55 H                     0.109585
     56 H                     0.085469
  ----------------------------------------
  Sum of atomic charges =    -0.000000

                    Cartesian Multipole Moments
 -----------------------------------------------------------------
    Charge (ESU x 10^10)
                 0.0000
    Dipole Moment (Debye)
         X       1.5082      Y      -0.1281      Z       0.0864
       Tot       1.5161
    Quadrupole Moments (Debye-Ang)
        XX    -135.3907     XY      -6.0085     YY    -158.1229
        XZ      -7.3045     YZ       0.4668     ZZ    -159.9371

 Total job time:  56.98s(wall), 2713.46s(cpu)
        *  Thank you very much for using Q-Chem.  Have a nice day.  *
