 Q-Chem 5.0, Q-Chem, Inc., Pleasanton, CA (2017)
 Q-Chem 5.0.1 for Intel X86 EM64T Linux

User input:
--------------------------------------------------------------
$molecule
0  1
O 1.7699560635 -0.9682476965 0.5083613423
C 2.8566841315 -1.4850206022 0.1570375953
C 4.0700267003 -0.7433933799 -0.4986236533
C 3.6917222719 0.7385377587 -0.9130446493
C 2.1406211719 0.9992200696 -0.8690871534
O 1.8231574666 1.8990101183 0.1938545551
C 0.3626482865 2.1522743011 0.2353308797
C -0.2504127366 1.2856817036 1.3933469151
O -1.724126307 1.3966264439 1.2980914049
C -2.3586392501 0.1194040786 1.43981846
C -3.872857623 0.3529579686 1.1100082269
C -4.0910694388 0.7499416171 -0.4169677934
C -2.7621231359 0.6861311213 -1.2583285747
O -2.1151004894 1.6457404566 -1.7362334219
O 3.1782722694 -2.8609802782 0.33257388
O -2.3780584778 -0.682564848 -1.363066046
O -1.7758401179 -0.9418373106 1.7437546785
C -1.1722180158 -0.8380315832 -2.2116904178
C -4.7544147365 -0.9585711508 1.2164787446
C -6.2685467907 -0.5175349367 1.2968698328
C -6.5256624263 -0.0581081916 -0.1872976671
C -5.1263989418 -0.3710902708 -0.8546745068
O -4.6531873723 -1.5710163726 -0.1277703483
H -4.2512698092 1.152593988 1.7724409925
H -4.5058259467 1.7687788083 -0.5118331927
H -4.4167358878 -1.6734725129 1.9918223596
H -6.90454146 -1.3754837343 1.5677637456
H -6.4331978818 0.2887386236 2.0291990681
H -7.3209670936 -0.6532708154 -0.6633284886
H -6.7906354754 1.0086905423 -0.2628852499
H -5.1576955813 -0.566551 -1.9439416182
O 1.3331255159 0.6235850496 -1.7523853577
C 2.049183203 -3.5650546012 0.989534618
C 5.177618397 -0.4623078065 0.6072610031
C 6.4761752361 0.0960377736 -0.0988204062
C 6.047583282 1.5805180824 -0.3996998909
C 4.5574835535 1.5751858775 0.1197285101
O 4.6226903447 0.7099193461 1.3219396179
H 4.4594669243 -1.3427303812 -1.3403725811
H 4.016717692 0.9316344829 -1.9512503252
H 1.1158347022 -3.4776530592 0.3970747125
H 5.343996385 -1.3057973612 1.3054840428
H 7.3365729186 0.0522757845 0.5875814401
H 6.7234863872 -0.4691918519 -1.0117655617
H 6.6521215515 2.2980222777 0.1777322176
H 6.1179077863 1.8377550701 -1.4686272172
H 4.132361476 2.5639165058 0.3763530777
H 1.8593369401 -3.1653490051 2.0064328983
H 2.3516574827 -4.6260897601 1.0569307153
H -0.9108798516 -1.9102858117 -2.155262339
H -0.3080793708 -0.2193150891 -1.8705166164
H -1.3987979662 -0.5758678128 -3.2652150481
H 0.0725322333 0.226386947 1.2827161253
H 0.0891047273 1.6610878865 2.382181416
H -0.1214228334 1.8862497343 -0.7313667425
H 0.2240928225 3.2335462679 0.4371248461
$end

$rem
JOBTYPE                   OPT
METHOD                    B3LYP
DFT_D                     d3_op
BASIS                     STO-3G
GEOM_OPT_MAX_CYCLES       100
GEOM_OPT_TOL_GRADIENT     300
GEOM_OPT_TOL_DISPLACEMENT 1200
GEOM_OPT_TOL_ENERGY       100
SYMMETRY                  False
THRESH                    12
SCF_CONVERGENCE           8
MAX_SUB_FILE_NUM          128
MEM_STATIC                400
MEM_TOTAL                 4000
$end
--------------------------------------------------------------

   16   -1510.2932692641      6.66E-09 Convergence criterion met
 Total energy in the final basis set = -1510.29326926
   14   -1510.2920659281      4.99E-09 Convergence criterion met
 Total energy in the final basis set = -1510.29206593
   14   -1510.2848290960      4.65E-09 Convergence criterion met
 Total energy in the final basis set = -1510.28482910
   14   -1510.2808231893      4.52E-09 Convergence criterion met
 Total energy in the final basis set = -1510.28082319
   13   -1510.2892564069      8.59E-09 Convergence criterion met
 Total energy in the final basis set = -1510.28925641
   15   -1510.2682852376      6.70E-09 Convergence criterion met
 Total energy in the final basis set = -1510.26828524
   14   -1510.2910805385      5.41E-09 Convergence criterion met
 Total energy in the final basis set = -1510.29108054
   13   -1510.2912654867      7.96E-09 Convergence criterion met
   11   -1510.2980420991      7.57E-09 Convergence criterion met
 Total energy in the final basis set = -1510.29804210
   10   -1510.2980442686      8.17E-09 Convergence criterion met
 Total energy in the final basis set = -1510.29804427
   11   -1510.2980385827      4.14E-09 Convergence criterion met
 Total energy in the final basis set = -1510.29803858
   12   -1510.2980343434      2.75E-09 Convergence criterion met
 Total energy in the final basis set = -1510.29803434
   12   -1510.2980197067      4.92E-09 Convergence criterion met
 Total energy in the final basis set = -1510.29801971
   10   -1510.2980218300      4.00E-09 Convergence criterion met
 Total energy in the final basis set = -1510.29802183

             Standard Nuclear Orientation (Angstroms)
    I     Atom           X                Y                Z
 ----------------------------------------------------------------
    1      O      -1.1711432937     0.6852793165    -0.5624248037
    2      C      -2.2735101468     1.2417778002    -0.3358153284
    3      C      -3.6801845472     0.6482460844    -0.6931812371
    4      C      -3.6581382148    -0.9293709854    -0.8879140860
    5      C      -2.2544604051    -1.5901707740    -0.6282183804
    6      O      -2.0651534309    -1.7249734757     0.7845757918
    7      C      -0.6626257934    -2.1041918049     1.0971581799
    8      C       0.0468212303    -0.7949854223     1.5852713979
    9      O       1.5166770994    -0.9338560980     1.4568021091
   10      C       2.1029991726     0.3489897598     1.2115741151
   11      C       3.6488067599     0.1350723935     1.0615287960
   12      C       4.0340378452    -0.8481713662    -0.1223362023
   13      C       2.8090043280    -1.3541448635    -0.9633367619
   14      O       2.5392262949    -2.5351053315    -1.2731543801
   15      O      -2.4133208525     2.5093905250     0.2843880196
   16      O       2.0640563125    -0.2114247906    -1.3858330023
   17      O       1.4732756599     1.4294550844     1.1718588016
   18      C       0.9976816229    -0.5996341857    -2.3397697771
   19      C       4.3873955894     1.4631193967     0.6189737838
   20      C       5.9299427724     1.2909082113     0.9068777021
   21      C       6.3406832339     0.2951101006    -0.2414678165
   22      C       4.9624619486     0.1077859597    -0.9929401614
   23      O       4.3091074293     1.4285883042    -0.8602776540
   24      H       4.0340417158    -0.2480830096     2.0246315734
   25      H       4.5832477661    -1.7320105265     0.2457234655
   26      H       3.9193345815     2.3880000896     1.0085527845
   27      H       6.4510228287     2.2566249181     0.8085232577
   28      H       6.1245419946     0.8855195076     1.9125830534
   29      H       7.0892590135     0.7414522709    -0.9151586080
   30      H       6.7354647372    -0.6588073041     0.1432302763
   31      H       5.0438129120    -0.1795178463    -2.0592141362
   32      O      -1.4662673251    -2.0345871861    -1.4960068707
   33      C      -1.0823878156     3.1116876001     0.5706204506
   34      C      -4.7430234563     0.8007925257     0.4770491644
   35      C      -6.1826546189     0.5757204687    -0.1312375523
   36      C      -6.1735853221    -0.9815352780    -0.3575136592
   37      C      -4.7413355717    -1.3645145464     0.1904384289
   38      O      -4.5244383048    -0.4087985621     1.3011140247
   39      H      -4.0327162688     1.1525813482    -1.6125646176
   40      H      -3.9657377109    -1.2001818491    -1.9133277010
   41      H      -0.7392335270     3.6933391925    -0.3089624988
   42      H      -4.6142598638     1.7188433384     1.0826684023
   43      H      -6.9555647307     0.8735630374     0.5951078267
   44      H      -6.3366226904     1.1417219237    -1.0639748882
   45      H      -6.9575967916    -1.4808182369     0.2335662389
   46      H      -6.2991256858    -1.2597204963    -1.4161591924
   47      H      -4.6364715926    -2.4061203400     0.5499894212
   48      H      -0.3068727614     2.3517466277     0.8198124059
   49      H      -1.2351707150     3.7991615240     1.4226804175
   50      H       0.5637122682     0.3514676174    -2.6975715895
   51      H       0.1914092021    -1.2117241790    -1.8714213848
   52      H       1.4200546598    -1.1604193674    -3.1979500441
   53      H      -0.3038697235     0.0327804513     0.9267855112
   54      H      -0.2255322846    -0.5697595771     2.6385894798
   55      H      -0.1652303272    -2.5018923353     0.1859305058
   56      H      -0.6921941270    -2.8852696440     1.8829993102
 ----------------------------------------------------------------

   10   -1510.2980208326      5.79E-09 Convergence criterion met
 Total energy in the final basis set = -1510.29802083
 Final energy is   -1510.29802083260
 **  OPTIMIZATION CONVERGED  **

                    Orbital Energies (a.u.)
 --------------------------------------------------------------

 Alpha MOs
 -- Occupied --
-18.948 -18.928 -18.928 -18.918 -18.890 -18.888 -18.883 -18.875
-18.874 -18.859 -10.112 -10.102 -10.099 -10.085 -10.063 -10.063
-10.062 -10.055 -10.055 -10.054 -10.052 -10.045 -10.039 -10.033
-10.033 -10.029 -10.023 -10.022 -10.017 -10.016  -1.023  -1.010
 -1.006  -0.994  -0.972  -0.964  -0.946  -0.936  -0.931  -0.920
 -0.766  -0.758  -0.727  -0.720  -0.713  -0.701  -0.691  -0.661
 -0.641  -0.611  -0.595  -0.576  -0.548  -0.541  -0.539  -0.532
 -0.516  -0.504  -0.485  -0.471  -0.465  -0.460  -0.449  -0.438
 -0.436  -0.431  -0.425  -0.417  -0.406  -0.402  -0.397  -0.396
 -0.393  -0.381  -0.371  -0.364  -0.356  -0.354  -0.352  -0.343
 -0.342  -0.334  -0.333  -0.326  -0.325  -0.323  -0.317  -0.315
 -0.307  -0.304  -0.301  -0.299  -0.287  -0.285  -0.283  -0.281
 -0.266  -0.263  -0.245  -0.239  -0.236  -0.233  -0.229  -0.189
 -0.177  -0.167  -0.165  -0.160  -0.153  -0.151  -0.146  -0.138
 -0.137

          Ground-State Mulliken Net Atomic Charges

     Atom                 Charge (a.u.)
  ----------------------------------------
      1 O                    -0.214305
      2 C                     0.219126
      3 C                    -0.077891
      4 C                    -0.079886
      5 C                     0.218896
      6 O                    -0.172171
      7 C                    -0.053288
      8 C                    -0.063743
      9 O                    -0.175585
     10 C                     0.222634
     11 C                    -0.077972
     12 C                    -0.078440
     13 C                     0.208272
     14 O                    -0.216681
     15 O                    -0.165844
     16 O                    -0.170660
     17 O                    -0.216850
     18 C                    -0.138437
     19 C                     0.024696
     20 C                    -0.143950
     21 C                    -0.144221
     22 C                     0.026000
     23 O                    -0.185613
     24 H                     0.083657
     25 H                     0.083430
     26 H                     0.087857
     27 H                     0.077028
     28 H                     0.072291
     29 H                     0.077087
     30 H                     0.073359
     31 H                     0.082062
     32 O                    -0.217188
     33 C                    -0.140778
     34 C                     0.024267
     35 C                    -0.143610
     36 C                    -0.144445
     37 C                     0.026753
     38 O                    -0.186771
     39 H                     0.087189
     40 H                     0.085018
     41 H                     0.085761
     42 H                     0.090834
     43 H                     0.078795
     44 H                     0.073619
     45 H                     0.078475
     46 H                     0.073929
     47 H                     0.086524
     48 H                     0.119586
     49 H                     0.088566
     50 H                     0.085416
     51 H                     0.108138
     52 H                     0.079411
     53 H                     0.110037
     54 H                     0.078137
     55 H                     0.104890
     56 H                     0.086589
  ----------------------------------------
  Sum of atomic charges =     0.000000

                    Cartesian Multipole Moments
 -----------------------------------------------------------------
    Charge (ESU x 10^10)
                 0.0000
    Dipole Moment (Debye)
         X      -1.2251      Y       1.1907      Z       0.7081
       Tot       1.8493
    Quadrupole Moments (Debye-Ang)
        XX    -136.8570     XY      -0.3868     YY    -163.5567
        XZ      10.9710     YZ      -2.0607     ZZ    -158.6671

 Total job time:  135.15s(wall), 6453.11s(cpu)
        *  Thank you very much for using Q-Chem.  Have a nice day.  *
