 Q-Chem 5.0, Q-Chem, Inc., Pleasanton, CA (2017)
 Q-Chem 5.0.1 for Intel X86 EM64T Linux

User input:
--------------------------------------------------------------
$molecule
0  1
O 1.5816717486 -0.9044533296 0.4135374908
C 2.6860038319 -1.4693175504 0.2304249477
C 3.9530467548 -0.8432002367 -0.4462255319
C 3.6680086004 0.6207548986 -0.9820680452
C 2.1366453387 0.9812002894 -0.991800063
O 1.8467114041 1.8889871247 0.0721255977
C 0.4084163177 2.2484784572 0.069128531
C -0.2726943938 1.519607158 1.2819291163
O -1.7370281709 1.6420844368 1.0962385251
C -2.4211645372 0.4400279112 1.468696065
C -3.8958055579 0.6125235932 0.9626077121
C -3.9759463793 0.6522111806 -0.6267695019
C -2.578307017 0.4386637052 -1.3159140267
O -1.9226247105 1.2720114629 -1.981059873
O 2.9754383292 -2.8006899414 0.6423855061
O -2.1521419874 -0.8900665418 -1.020841293
O -1.8994464903 -0.5304078828 2.0550962022
C -0.8889870248 -1.2267777002 -1.7192626535
C -4.8099627187 -0.6374506524 1.2878101079
C -6.3164619009 -0.1984433446 1.1113451528
C -6.4250424302 -0.118634528 -0.4574461681
C -4.9690553471 -0.559738286 -0.8899145671
O -4.5846367668 -1.5491545469 0.1420736994
H -4.3054253505 1.5437531615 1.3941872073
H -4.386990112 1.61317699 -0.9825533654
H -4.562627328 -1.1460841579 2.2396227356
H -6.9918532637 -0.9653166668 1.5229529158
H -6.5322904671 0.7633338651 1.6034768913
H -7.1733110123 -0.8268021337 -0.8476631191
H -6.6749987466 0.8925764789 -0.8162850532
H -4.8929120874 -1.0056818559 -1.9005140698
O 1.3311580673 0.668150783 -1.9020394374
C 1.791167897 -3.3911724807 1.3143350491
C 5.0534556357 -0.5415376812 0.6606008891
C 6.3960184642 -0.1133925414 -0.052613156
C 6.0602207298 1.3631716838 -0.4799528415
C 4.5623460229 1.4843437487 0.0041457676
O 4.5540827218 0.7124771963 1.2701256066
H 4.324615309 -1.5242028524 -1.2327815249
H 4.0227456481 0.7143709184 -2.0242530072
H 0.9175926582 -3.4344477273 0.6325166153
H 5.1552069494 -1.3376258848 1.4237700737
H 7.237206609 -0.1500887701 0.6576894728
H 6.6323934654 -0.7616195484 -0.9119145664
H 6.6947669714 2.089977922 0.0517314146
H 6.1633009928 1.5287910821 -1.5641327196
H 4.1926895541 2.5130216119 0.175239193
H 1.5060260346 -2.8120355883 2.2159573263
H 2.0874597307 -4.4154190842 1.6058526249
H -0.4767883807 -2.1038469197 -1.1876576658
H -0.1444338648 -0.3947767427 -1.7117895713
H -1.0982979878 -1.5074319445 -2.7720026981
H 0.0355541014 0.4502182927 1.2885454296
H 0.0310867094 1.9838197017 2.2447199168
H -0.0736340343 1.9225868948 -0.8813942121
H 0.3362659128 3.3499617085 0.1730837569
$end

$rem
JOBTYPE                   OPT
METHOD                    B3LYP
DFT_D                     d3_op
BASIS                     STO-3G
GEOM_OPT_MAX_CYCLES       100
GEOM_OPT_TOL_GRADIENT     300
GEOM_OPT_TOL_DISPLACEMENT 1200
GEOM_OPT_TOL_ENERGY       100
SYMMETRY                  False
THRESH                    12
SCF_CONVERGENCE           8
MAX_SUB_FILE_NUM          128
MEM_STATIC                400
MEM_TOTAL                 4000
$end
--------------------------------------------------------------

   16   -1510.2945264825      6.77E-09 Convergence criterion met
 Total energy in the final basis set = -1510.29452648
   14   -1510.2865837069      3.54E-09 Convergence criterion met
 Total energy in the final basis set = -1510.28658371
   14   -1510.2831673725      3.74E-09 Convergence criterion met
 Total energy in the final basis set = -1510.28316737
   14   -1510.2854775444      4.33E-09 Convergence criterion met
 Total energy in the final basis set = -1510.28547754
   13   -1510.2892327248      3.75E-09 Convergence criterion met
 Total energy in the final basis set = -1510.28923272
   13   -1510.2922650865      6.00E-09 Convergence criterion met
 Total energy in the final basis set = -1510.29226509
   14   -1510.2882981156      3.83E-09 Convergence criterion met
 Total energy in the final basis set = -1510.28829812
   14   -1510.2892808484      6.11E-09 Convergence criterion met
   12   -1510.2981654857      3.26E-09 Convergence criterion met
 Total energy in the final basis set = -1510.29816549
   11   -1510.2981570864      5.48E-09 Convergence criterion met
 Total energy in the final basis set = -1510.29815709
   10   -1510.2981581246      9.24E-09 Convergence criterion met
 Total energy in the final basis set = -1510.29815812
    9   -1510.2981563314      6.33E-09 Convergence criterion met
 Total energy in the final basis set = -1510.29815633
    9   -1510.2981547428      4.48E-09 Convergence criterion met
 Total energy in the final basis set = -1510.29815474
    9   -1510.2981530501      8.01E-09 Convergence criterion met
 Total energy in the final basis set = -1510.29815305

             Standard Nuclear Orientation (Angstroms)
    I     Atom           X                Y                Z
 ----------------------------------------------------------------
    1      O      -1.1391037620     0.6756449534    -0.3549981847
    2      C      -2.2139474298     1.2979773572    -0.1746372548
    3      C      -3.6415374212     0.7820372548    -0.5652057515
    4      C      -3.6658721199    -0.7731405125    -0.8863245921
    5      C      -2.2703891973    -1.4837070172    -0.7303642678
    6      O      -2.0594921006    -1.7917408994     0.6522930936
    7      C      -0.6626898729    -2.2397849115     0.8843858649
    8      C       0.0730660191    -1.0650940081     1.6200929661
    9      O       1.5318911662    -1.1524026433     1.3713563060
   10      C       2.0907719155     0.1572663929     1.2211186598
   11      C       3.6284077627    -0.0249409809     0.9765088719
   12      C       3.9658796181    -0.8872556174    -0.3114069273
   13      C       2.7125224916    -1.2725313364    -1.1740618010
   14      O       2.4114043061    -2.4061341650    -1.6077426447
   15      O      -2.3029957704     2.5808991556     0.4238037627
   16      O       1.9829026451    -0.0761461167    -1.4463184430
   17      O       1.4522475756     1.2281492757     1.3218548025
   18      C       0.8996062982    -0.3306046610    -2.4261239744
   19      C       4.3522193597     1.3428073596     0.6391384689
   20      C       5.9002106337     1.1512702812     0.8789695302
   21      C       6.2822665518     0.2426751773    -0.3486457866
   22      C       4.8939780244     0.1373873427    -1.0986171633
   23      O       4.2500242768     1.4436751561    -0.8354177222
   24      H       4.0579453016    -0.4988374477     1.8785396196
   25      H       4.5017985579    -1.8162946552    -0.0504996303
   26      H       3.8901325611     2.2268609359     1.1201510961
   27      H       6.4183203587     2.1226559853     0.8368263720
   28      H       6.1199925074     0.6755650847     1.8480443866
   29      H       7.0338389860     0.7265529515    -0.9923474562
   30      H       6.6621634613    -0.7455762428    -0.0437396896
   31      H       4.9612348372    -0.0493090932    -2.1879824504
   32      O      -1.5151123216    -1.8501734237    -1.6620381673
   33      C      -0.9508274558     3.1059931276     0.7567321526
   34      C      -4.6756872189     0.8650253703     0.6384322197
   35      C      -6.1334897042     0.7143153350     0.0508250904
   36      C      -6.1652081027    -0.8222468643    -0.2871045895
   37      C      -4.7257904295    -1.2714826403     0.1873813910
   38      O      -4.4604857972    -0.4079014696     1.3613246533
   39      H      -3.9935806746     1.3741754688    -1.4303737781
   40      H      -4.0121126963    -0.9523912229    -1.9194456663
   41      H      -0.5714360414     3.7149512839    -0.0886898578
   42      H      -4.5149687006     1.7322200504     1.3079822668
   43      H      -6.8826769821     0.9752701939     0.8151985742
   44      H      -6.2953721686     1.3498824524    -0.8343381700
   45      H      -6.9419209301    -1.3472717721     0.2912613022
   46      H      -6.3288220204    -1.0200249841    -1.3584939472
   47      H      -4.6309594178    -2.3391736495     0.4631552819
   48      H      -0.2193018362     2.2937991444     0.9708378949
   49      H      -1.0789324816     3.7551693608     1.6424087026
   50      H       0.4723467713     0.6624326929    -2.6549102330
   51      H       0.0940680202    -0.9907783488    -2.0257201688
   52      H       1.3049520672    -0.7814421166    -3.3543835201
   53      H      -0.3104618004    -0.1101498670     1.1967995205
   54      H      -0.1239600743    -1.0949013894     2.7128204493
   55      H      -0.1713643912    -2.4569111254    -0.0889359472
   56      H      -0.6971216123    -3.1602392192     1.5011883218
 ----------------------------------------------------------------

    9   -1510.2981528933      2.37E-09 Convergence criterion met
 Total energy in the final basis set = -1510.29815289
 Final energy is   -1510.29815289335
 **  OPTIMIZATION CONVERGED  **

                    Orbital Energies (a.u.)
 --------------------------------------------------------------

 Alpha MOs
 -- Occupied --
-18.946 -18.928 -18.926 -18.918 -18.890 -18.888 -18.883 -18.876
-18.871 -18.859 -10.111 -10.101 -10.101 -10.085 -10.063 -10.062
-10.061 -10.055 -10.054 -10.054 -10.053 -10.044 -10.038 -10.034
-10.032 -10.030 -10.023 -10.021 -10.017 -10.016  -1.023  -1.010
 -1.005  -0.994  -0.972  -0.965  -0.945  -0.936  -0.931  -0.920
 -0.766  -0.758  -0.727  -0.720  -0.712  -0.702  -0.690  -0.660
 -0.641  -0.610  -0.595  -0.576  -0.548  -0.540  -0.539  -0.533
 -0.516  -0.504  -0.484  -0.471  -0.464  -0.460  -0.449  -0.438
 -0.435  -0.431  -0.425  -0.416  -0.406  -0.402  -0.398  -0.396
 -0.392  -0.380  -0.371  -0.364  -0.356  -0.354  -0.351  -0.342
 -0.342  -0.334  -0.333  -0.327  -0.325  -0.322  -0.317  -0.316
 -0.307  -0.304  -0.301  -0.299  -0.287  -0.285  -0.283  -0.281
 -0.265  -0.262  -0.244  -0.239  -0.235  -0.233  -0.229  -0.188
 -0.177  -0.167  -0.164  -0.159  -0.153  -0.151  -0.146  -0.138
 -0.137

          Ground-State Mulliken Net Atomic Charges

     Atom                 Charge (a.u.)
  ----------------------------------------
      1 O                    -0.212729
      2 C                     0.218507
      3 C                    -0.078006
      4 C                    -0.080513
      5 C                     0.220917
      6 O                    -0.172719
      7 C                    -0.053259
      8 C                    -0.060547
      9 O                    -0.175314
     10 C                     0.223378
     11 C                    -0.077881
     12 C                    -0.078079
     13 C                     0.207730
     14 O                    -0.216565
     15 O                    -0.166902
     16 O                    -0.170127
     17 O                    -0.216439
     18 C                    -0.139377
     19 C                     0.024691
     20 C                    -0.143687
     21 C                    -0.144411
     22 C                     0.025854
     23 O                    -0.185500
     24 H                     0.083780
     25 H                     0.083636
     26 H                     0.087737
     27 H                     0.077108
     28 H                     0.072308
     29 H                     0.077050
     30 H                     0.073342
     31 H                     0.081999
     32 O                    -0.220195
     33 C                    -0.141884
     34 C                     0.024603
     35 C                    -0.143673
     36 C                    -0.144382
     37 C                     0.026797
     38 O                    -0.187183
     39 H                     0.087304
     40 H                     0.084810
     41 H                     0.085216
     42 H                     0.089800
     43 H                     0.078750
     44 H                     0.073804
     45 H                     0.078395
     46 H                     0.073925
     47 H                     0.086960
     48 H                     0.120782
     49 H                     0.087758
     50 H                     0.083554
     51 H                     0.109760
     52 H                     0.078861
     53 H                     0.109523
     54 H                     0.079163
     55 H                     0.106000
     56 H                     0.085571
  ----------------------------------------
  Sum of atomic charges =     0.000000

                    Cartesian Multipole Moments
 -----------------------------------------------------------------
    Charge (ESU x 10^10)
                 0.0000
    Dipole Moment (Debye)
         X      -1.0543      Y       1.1451      Z       0.8500
       Tot       1.7735
    Quadrupole Moments (Debye-Ang)
        XX    -136.5577     XY      -1.5118     YY    -162.9786
        XZ      10.0861     YZ      -3.0109     ZZ    -159.5588

 Total job time:  142.27s(wall), 6793.39s(cpu)
        *  Thank you very much for using Q-Chem.  Have a nice day.  *
