 Q-Chem 5.0, Q-Chem, Inc., Pleasanton, CA (2017)
 Q-Chem 5.0.1 for Intel X86 EM64T Linux

User input:
--------------------------------------------------------------
$molecule
0  1
O -3.94934 -3.66094 2.70899
C -3.26408 -4.56952 2.26188
C -3.36658 -6.02376 2.66595
C -4.36176 -6.37377 3.78441
C -5.27118 -5.25881 4.25122
O -6.53717 -5.46556 3.78224
C -7.46235 -4.45361 4.19363
C -7.81216 -3.55079 3.0152
O -8.5048 -2.38253 3.48242
C -8.17683 -1.22265 2.86092
C -8.73449 -0.00402 3.55706
C -8.14903 0.27038 4.94998
C -6.87269 -0.47329 5.28852
O -6.76438 -1.34455 6.13925
O -2.35499 -4.28512 1.29276
O -5.78926 -0.19402 4.51346
O -7.5287 -1.15656 1.823
C -4.54318 -0.75925 4.67479
C -8.43803 1.35283 2.87488
C -9.49771 2.37396 3.28967
C -9.12435 2.59814 4.74285
C -7.83656 1.77012 4.826
O -7.29526 1.85015 3.52828
H -9.83971 -0.14038 3.58009
H -8.88513 0.02305 5.74681
H -8.38295 1.29135 1.76642
H -9.28225 3.30715 2.72086
H -10.55378 2.07755 3.11182
H -8.91505 3.68104 4.8885
H -9.87491 2.24963 5.48515
H -7.18447 2.13006 5.65226
O -4.90551 -4.3592 4.99919
C -2.13455 -3.02302 0.78219
C -3.86296 -6.91988 1.51799
C -3.37128 -8.34877 1.73152
C -4.22973 -8.76614 2.90507
C -5.11613 -7.52303 3.05763
O -5.24469 -7.03571 1.74473
H -2.33387 -6.31744 2.96128
H -3.87529 -6.78186 4.69794
H -1.8008 -2.33648 1.58954
H -3.56153 -6.55736 0.51085
H -3.67838 -8.9391 0.83844
H -2.27545 -8.45478 1.8828
H -4.84025 -9.64382 2.59606
H -3.67702 -8.99933 3.84068
H -6.059 -7.81292 3.57136
H -3.06396 -2.63098 0.31636
H -1.34197 -3.07697 0.00801
H -3.85573 -0.3507 3.90612
H -4.60574 -1.85691 4.54891
H -4.14145 -0.51842 5.68201
H -6.84239 -3.2849 2.53439
H -8.43041 -4.11192 2.2825
H -7.0823 -3.79203 5.00201
H -8.37851 -4.92268 4.61009
$end

$opt
CONSTRAINT
tors           1           2           3           4      -3.486
tors           3           4           5           6    +106.080
tors           4           5           6           7    +179.487
tors           5           6           7           8    +107.027
tors           6           7           8           9    -167.829
tors           7           8           9          10    +140.865
tors           8           9          10          11    -169.238
tors           9          10          11          12     +66.361
tors          11          12          13          14    -112.858
ENDCONSTRAINT
$end

$rem
JOBTYPE                   OPT
METHOD                    B3LYP
DFT_D                     d3_op
BASIS                     STO-3G
GEOM_OPT_MAX_CYCLES       100
GEOM_OPT_TOL_GRADIENT     300
GEOM_OPT_TOL_DISPLACEMENT 1200
GEOM_OPT_TOL_ENERGY       100
SYMMETRY                  False
THRESH                    12
SCF_CONVERGENCE           8
MAX_SUB_FILE_NUM          128
MEM_STATIC                400
MEM_TOTAL                 4000
$end
--------------------------------------------------------------

   15   -1510.1587713403      7.05E-09 Convergence criterion met
 Total energy in the final basis set = -1510.15877134
   14   -1510.2282648094      1.96E-09 Convergence criterion met
 Total energy in the final basis set = -1510.22826481
   14   -1510.2655860639      9.79E-09 Convergence criterion met
 Total energy in the final basis set = -1510.26558606
   14   -1510.2798318635      8.98E-09 Convergence criterion met
 Total energy in the final basis set = -1510.27983186
   15   -1510.2857905229      2.47E-09 Convergence criterion met
 Total energy in the final basis set = -1510.28579052
   13   -1510.2876455993      6.01E-09 Convergence criterion met
 Total energy in the final basis set = -1510.28764560
   13   -1510.2901203273      2.59E-09 Convergence criterion met
 Total energy in the final basis set = -1510.29012033
   13   -1510.2919284730      3.81E-09 Convergence criterion met
   11   -1510.2942382914      9.59E-09 Convergence criterion met
 Total energy in the final basis set = -1510.29423829
   11   -1510.2943192427      8.13E-09 Convergence criterion met
 Total energy in the final basis set = -1510.29431924
   11   -1510.2943667127      3.70E-09 Convergence criterion met
 Total energy in the final basis set = -1510.29436671
   10   -1510.2943940667      9.42E-09 Convergence criterion met
 Total energy in the final basis set = -1510.29439407
   10   -1510.2943985938      4.04E-09 Convergence criterion met
 Total energy in the final basis set = -1510.29439859
    9   -1510.2944021646      6.96E-09 Convergence criterion met
 Total energy in the final basis set = -1510.29440216

             Standard Nuclear Orientation (Angstroms)
    I     Atom           X                Y                Z
 ----------------------------------------------------------------
    1      O       1.5816717486    -0.9044533296     0.4135374908
    2      C       2.6860038319    -1.4693175504     0.2304249477
    3      C       3.9530467548    -0.8432002367    -0.4462255319
    4      C       3.6680086004     0.6207548986    -0.9820680452
    5      C       2.1366453387     0.9812002894    -0.9918000630
    6      O       1.8467114041     1.8889871247     0.0721255977
    7      C       0.4084163177     2.2484784572     0.0691285310
    8      C      -0.2726943938     1.5196071580     1.2819291163
    9      O      -1.7370281709     1.6420844368     1.0962385251
   10      C      -2.4211645372     0.4400279112     1.4686960650
   11      C      -3.8958055579     0.6125235932     0.9626077121
   12      C      -3.9759463793     0.6522111806    -0.6267695019
   13      C      -2.5783070170     0.4386637052    -1.3159140267
   14      O      -1.9226247105     1.2720114629    -1.9810598730
   15      O       2.9754383292    -2.8006899414     0.6423855061
   16      O      -2.1521419874    -0.8900665418    -1.0208412930
   17      O      -1.8994464903    -0.5304078828     2.0550962022
   18      C      -0.8889870248    -1.2267777002    -1.7192626535
   19      C      -4.8099627187    -0.6374506524     1.2878101079
   20      C      -6.3164619009    -0.1984433446     1.1113451528
   21      C      -6.4250424302    -0.1186345280    -0.4574461681
   22      C      -4.9690553471    -0.5597382860    -0.8899145671
   23      O      -4.5846367668    -1.5491545469     0.1420736994
   24      H      -4.3054253505     1.5437531615     1.3941872073
   25      H      -4.3869901120     1.6131769900    -0.9825533654
   26      H      -4.5626273280    -1.1460841579     2.2396227356
   27      H      -6.9918532637    -0.9653166668     1.5229529158
   28      H      -6.5322904671     0.7633338651     1.6034768913
   29      H      -7.1733110123    -0.8268021337    -0.8476631191
   30      H      -6.6749987466     0.8925764789    -0.8162850532
   31      H      -4.8929120874    -1.0056818559    -1.9005140698
   32      O       1.3311580673     0.6681507830    -1.9020394374
   33      C       1.7911678970    -3.3911724807     1.3143350491
   34      C       5.0534556357    -0.5415376812     0.6606008891
   35      C       6.3960184642    -0.1133925414    -0.0526131560
   36      C       6.0602207298     1.3631716838    -0.4799528415
   37      C       4.5623460229     1.4843437487     0.0041457676
   38      O       4.5540827218     0.7124771963     1.2701256066
   39      H       4.3246153090    -1.5242028524    -1.2327815249
   40      H       4.0227456481     0.7143709184    -2.0242530072
   41      H       0.9175926582    -3.4344477273     0.6325166153
   42      H       5.1552069494    -1.3376258848     1.4237700737
   43      H       7.2372066090    -0.1500887701     0.6576894728
   44      H       6.6323934654    -0.7616195484    -0.9119145664
   45      H       6.6947669714     2.0899779220     0.0517314146
   46      H       6.1633009928     1.5287910821    -1.5641327196
   47      H       4.1926895541     2.5130216119     0.1752391930
   48      H       1.5060260346    -2.8120355883     2.2159573263
   49      H       2.0874597307    -4.4154190842     1.6058526249
   50      H      -0.4767883807    -2.1038469197    -1.1876576658
   51      H      -0.1444338648    -0.3947767427    -1.7117895713
   52      H      -1.0982979878    -1.5074319445    -2.7720026981
   53      H       0.0355541014     0.4502182927     1.2885454296
   54      H       0.0310867094     1.9838197017     2.2447199168
   55      H      -0.0736340343     1.9225868948    -0.8813942121
   56      H       0.3362659128     3.3499617085     0.1730837569
 ----------------------------------------------------------------

    9   -1510.2944029877      4.86E-09 Convergence criterion met
 Total energy in the final basis set = -1510.29440299
 Final energy is   -1510.29440298772
 **  OPTIMIZATION CONVERGED  **

                    Orbital Energies (a.u.)
 --------------------------------------------------------------

 Alpha MOs
 -- Occupied --
-18.950 -18.928 -18.921 -18.919 -18.893 -18.890 -18.880 -18.871
-18.866 -18.861 -10.113 -10.101 -10.092 -10.087 -10.071 -10.065
-10.060 -10.056 -10.055 -10.053 -10.052 -10.045 -10.038 -10.032
-10.030 -10.028 -10.024 -10.022 -10.015 -10.014  -1.026  -1.007
 -1.003  -0.994  -0.973  -0.962  -0.949  -0.933  -0.928  -0.922
 -0.767  -0.756  -0.727  -0.720  -0.712  -0.700  -0.688  -0.669
 -0.642  -0.610  -0.593  -0.573  -0.549  -0.540  -0.539  -0.530
 -0.516  -0.503  -0.485  -0.471  -0.465  -0.458  -0.453  -0.438
 -0.434  -0.428  -0.423  -0.418  -0.412  -0.405  -0.395  -0.393
 -0.390  -0.381  -0.370  -0.363  -0.359  -0.354  -0.352  -0.343
 -0.343  -0.335  -0.333  -0.328  -0.323  -0.319  -0.317  -0.316
 -0.308  -0.303  -0.301  -0.299  -0.286  -0.283  -0.281  -0.276
 -0.267  -0.265  -0.247  -0.239  -0.236  -0.228  -0.227  -0.191
 -0.177  -0.166  -0.161  -0.159  -0.152  -0.149  -0.145  -0.138
 -0.136

          Ground-State Mulliken Net Atomic Charges

     Atom                 Charge (a.u.)
  ----------------------------------------
      1 O                    -0.206944
      2 C                     0.218212
      3 C                    -0.077581
      4 C                    -0.081221
      5 C                     0.222766
      6 O                    -0.171383
      7 C                    -0.055938
      8 C                    -0.055551
      9 O                    -0.179631
     10 C                     0.212789
     11 C                    -0.077638
     12 C                    -0.077933
     13 C                     0.207479
     14 O                    -0.216952
     15 O                    -0.166010
     16 O                    -0.168917
     17 O                    -0.208765
     18 C                    -0.144482
     19 C                     0.024458
     20 C                    -0.143816
     21 C                    -0.144357
     22 C                     0.026236
     23 O                    -0.184798
     24 H                     0.083894
     25 H                     0.083054
     26 H                     0.087282
     27 H                     0.076679
     28 H                     0.072099
     29 H                     0.076592
     30 H                     0.072713
     31 H                     0.082224
     32 O                    -0.225616
     33 C                    -0.128010
     34 C                     0.024702
     35 C                    -0.144176
     36 C                    -0.143497
     37 C                     0.024908
     38 O                    -0.189503
     39 H                     0.088745
     40 H                     0.085303
     41 H                     0.093665
     42 H                     0.086043
     43 H                     0.078950
     44 H                     0.074295
     45 H                     0.078533
     46 H                     0.074014
     47 H                     0.091891
     48 H                     0.096008
     49 H                     0.093908
     50 H                     0.079446
     51 H                     0.115731
     52 H                     0.075640
     53 H                     0.107955
     54 H                     0.080674
     55 H                     0.111725
     56 H                     0.084106
  ----------------------------------------
  Sum of atomic charges =    -0.000000

                    Cartesian Multipole Moments
 -----------------------------------------------------------------
    Charge (ESU x 10^10)
                 0.0000
    Dipole Moment (Debye)
         X       1.5555      Y      -0.2355      Z      -0.0182
       Tot       1.5733
    Quadrupole Moments (Debye-Ang)
        XX    -135.5478     XY      -7.0133     YY    -156.7231
        XZ      -5.3405     YZ       1.6821     ZZ    -162.2340

 Total job time:  58.86s(wall), 2801.47s(cpu)
        *  Thank you very much for using Q-Chem.  Have a nice day.  *
