 Q-Chem 5.0, Q-Chem, Inc., Pleasanton, CA (2017)
 Q-Chem 5.0.1 for Intel X86 EM64T Linux

User input:
--------------------------------------------------------------
$molecule
0  1
O 1.5414141485 -0.8716425883 0.5107019479
C 2.6303919548 -1.4646910894 0.3271812141
C 3.8898056495 -0.8938915764 -0.4097214223
C 3.6132891013 0.5469829528 -1.0050970566
C 2.0832013905 0.915903162 -1.0574887656
O 1.7964403973 1.8944541807 -0.0628676911
C 0.3675489325 2.2914866661 -0.0806666781
C -0.3214905395 1.6576045073 1.180821408
O -1.7876781283 1.8128162313 1.0185914532
C -2.5111355688 0.673568486 1.4983915425
C -3.923391595 0.7149603911 0.8120211692
C -3.8706704034 0.5617286989 -0.768077959
C -2.4323924808 0.2671717853 -1.3240846577
O -1.7321061778 1.0200580854 -2.0394202252
O 2.9128440012 -2.7785735294 0.798321152
O -2.0495073466 -1.0291481901 -0.8736111055
O -2.0506726665 -0.1944440416 2.2686340336
C -0.7703502334 -1.4628141856 -1.4835404584
C -4.8410735321 -0.5105452614 1.2165084153
C -6.3368184938 -0.1251887719 0.8883189392
C -6.3278695979 -0.2094125095 -0.6839770392
C -4.8432070716 -0.6810587003 -0.960242961
O -4.5277968048 -1.5421353633 0.2011084092
H -4.4011504489 1.6755181795 1.0789256104
H -4.2473179496 1.4706424385 -1.2688875541
H -4.6518968867 -0.9013508503 2.2350447246
H -7.0292150222 -0.8613825437 1.3268543931
H -6.6023376027 0.8768836936 1.2612454876
H -7.0449570145 -0.9597166528 -1.0534771294
H -6.5508203477 0.7571527831 -1.1634934535
H -4.694888739 -1.2379208609 -1.9057784513
O 1.2818967521 0.5417720893 -1.9475298446
C 1.7427262946 -3.3199180084 1.5323753121
C 5.0064179369 -0.5541799186 0.6697991503
C 6.3408197529 -0.1488943268 -0.0710477485
C 6.0024088553 1.3155847873 -0.5366806337
C 4.5061067168 1.4476453405 -0.0505921959
O 4.5090338377 0.7188693914 1.2408421562
H 4.2382300177 -1.6165564247 -1.169237178
H 3.9812188306 0.5952273596 -2.0461806997
H 0.8533836611 -3.4033396292 0.8750014877
H 5.1167161126 -1.323487285 1.4586944549
H 7.19039995 -0.1668612431 0.6298711786
H 6.5656911111 -0.8220872785 -0.9140846723
H 6.6377603439 2.0564392016 -0.0256584944
H 6.102798655 1.4532026246 -1.6250039277
H 4.1321666892 2.4796913747 0.0872656887
H 1.4794259417 -2.6853048873 2.4028243394
H 2.0421337447 -4.3255748217 1.8801075659
H -0.3098583315 -2.167458811 -0.7674814685
H -0.0776162075 -0.6084524344 -1.6767099528
H -0.9718388856 -1.9928878239 -2.4370061349
H -0.0386725317 0.5831919074 1.2444762511
H 0.0190231648 2.1642525985 2.1098449517
H -0.1334659604 1.9121473396 -1.0034041578
H 0.3254884991 3.3988224029 -0.047901814
$end

$rem
JOBTYPE                   OPT
METHOD                    B3LYP
DFT_D                     d3_op
BASIS                     STO-3G
GEOM_OPT_MAX_CYCLES       100
GEOM_OPT_TOL_GRADIENT     300
GEOM_OPT_TOL_DISPLACEMENT 1200
GEOM_OPT_TOL_ENERGY       100
SYMMETRY                  False
THRESH                    12
SCF_CONVERGENCE           8
MAX_SUB_FILE_NUM          128
MEM_STATIC                400
MEM_TOTAL                 4000
$end
--------------------------------------------------------------

   16   -1510.2925530249      5.80E-09 Convergence criterion met
 Total energy in the final basis set = -1510.29255302
   14   -1510.2907052477      4.00E-09 Convergence criterion met
 Total energy in the final basis set = -1510.29070525
   14   -1510.2835140035      3.33E-09 Convergence criterion met
 Total energy in the final basis set = -1510.28351400
   14   -1510.2928048360      4.24E-09 Convergence criterion met
 Total energy in the final basis set = -1510.29280484
   13   -1510.2933653937      5.66E-09 Convergence criterion met
 Total energy in the final basis set = -1510.29336539
   13   -1510.2933153275      5.78E-09 Convergence criterion met
 Total energy in the final basis set = -1510.29331533
   14   -1510.2845459172      3.58E-09 Convergence criterion met
 Total energy in the final basis set = -1510.28454592
   14   -1510.2945678552      6.21E-09 Convergence criterion met
   12   -1510.2981564076      2.98E-09 Convergence criterion met
 Total energy in the final basis set = -1510.29815641
   11   -1510.2981609277      4.80E-09 Convergence criterion met
 Total energy in the final basis set = -1510.29816093
   11   -1510.2981740016      8.51E-09 Convergence criterion met
 Total energy in the final basis set = -1510.29817400
   10   -1510.2981796580      9.27E-09 Convergence criterion met
 Total energy in the final basis set = -1510.29817966
   11   -1510.2981808367      7.05E-09 Convergence criterion met
 Total energy in the final basis set = -1510.29818084
   11   -1510.2981860919      5.71E-09 Convergence criterion met
 Total energy in the final basis set = -1510.29818609

             Standard Nuclear Orientation (Angstroms)
    I     Atom           X                Y                Z
 ----------------------------------------------------------------
    1      O      -1.1965261110     0.8254564246    -0.3925527763
    2      C      -2.2803135190     1.3335941174    -0.0143153523
    3      C      -3.7098005556     0.8436954160    -0.4329306106
    4      C      -3.7190002469    -0.6483940363    -0.9807772797
    5      C      -2.3126888346    -1.3531368612    -0.9428480121
    6      O      -2.0688726306    -1.8128924307     0.3907475438
    7      C      -0.6602843164    -2.2565738298     0.5524599721
    8      C       0.0710448219    -1.1113403361     1.3336560063
    9      O       1.5358459394    -1.2176543457     1.1381976938
   10      C       2.1240474769     0.0878453642     1.1486129632
   11      C       3.6622295808    -0.0968262854     0.9143969362
   12      C       4.0064989631    -0.8707964860    -0.4259893936
   13      C       2.7614675407    -1.1534787178    -1.3389810095
   14      O       2.4687064019    -2.2281344517    -1.9072269521
   15      O      -2.3754357076     2.4440726957     0.8629753895
   16      O       2.0295137208     0.0654029833    -1.4767241796
   17      O       1.5032942361     1.1537781000     1.3581580627
   18      C       0.9408741614    -0.0798519698    -2.4725616309
   19      C       4.4101764630     1.2811115388     0.6859801766
   20      C       5.9485879861     1.0498903444     0.9494909370
   21      C       6.3445198857     0.2102742180    -0.3220631665
   22      C       4.9765724757     0.1848321455    -1.1155709888
   23      O       4.3475296571     1.4818729872    -0.7806308560
   24      H       4.0756176057    -0.6368090931     1.7861157456
   25      H       4.5123478730    -1.8316727516    -0.2276485622
   26      H       3.9470942939     2.1372234753     1.2142695057
   27      H       6.4821082369     2.0134203466     0.9771232727
   28      H       6.1381157652     0.5134127847     1.8930611702
   29      H       7.1254663534     0.7139405593    -0.9135267377
   30      H       6.6925754250    -0.8041218537    -0.0694539411
   31      H       5.0718387750     0.0715985322    -2.2130251375
   32      O      -1.5687559144    -1.5872071276    -1.9242769179
   33      C      -1.0242020600     2.9579444371     1.2169767942
   34      C      -4.7153157542     0.7312651991     0.7914327957
   35      C      -6.1836037208     0.6563774503     0.2179660698
   36      C      -6.2084696196    -0.8093021925    -0.3544643377
   37      C      -4.7577611230    -1.3126646542     0.0218946020
   38      O      -4.4756662109    -0.6348102275     1.3088312445
   39      H      -4.0961829241     1.5448451535    -1.1963333004
   40      H      -4.0754693748    -0.6796820323    -2.0256018692
   41      H      -0.6952932334     3.6981930494     0.4595415928
   42      H      -4.5450515418     1.4878556528     1.5814525914
   43      H      -6.9190536222     0.7860619753     1.0277880596
   44      H      -6.3692942531     1.4205833064    -0.5535424901
   45      H      -6.9715945157    -1.4261522415     0.1460500173
   46      H      -6.3874619203    -0.8388414976    -1.4410966533
   47      H      -4.6523166251    -2.4091570107     0.1309372285
   48      H      -0.2577068849     2.1519869164     1.2821605312
   49      H      -1.1359986193     3.4637314775     2.1935158111
   50      H       0.5222286191     0.9349590054    -2.5988561827
   51      H       0.1283849882    -0.7660207233    -2.1373601362
   52      H       1.3373995628    -0.4407691253    -3.4429587272
   53      H      -0.2871921929    -0.1443437328     0.9124509279
   54      H      -0.1738644450    -1.1565973829     2.4163275310
   55      H      -0.1920010425    -2.4100147678    -0.4437325136
   56      H      -0.6682740618    -3.2108766555     1.1161575760
 ----------------------------------------------------------------

    9   -1510.2981853514      6.75E-09 Convergence criterion met
 Total energy in the final basis set = -1510.29818535
 Final energy is   -1510.29818535140
 **  OPTIMIZATION CONVERGED  **

                    Orbital Energies (a.u.)
 --------------------------------------------------------------

 Alpha MOs
 -- Occupied --
-18.947 -18.928 -18.928 -18.918 -18.890 -18.888 -18.883 -18.875
-18.873 -18.859 -10.112 -10.101 -10.100 -10.086 -10.063 -10.062
-10.062 -10.055 -10.054 -10.054 -10.053 -10.044 -10.039 -10.033
-10.033 -10.030 -10.023 -10.021 -10.017 -10.016  -1.023  -1.010
 -1.006  -0.994  -0.972  -0.965  -0.946  -0.936  -0.931  -0.921
 -0.766  -0.759  -0.727  -0.721  -0.713  -0.702  -0.691  -0.661
 -0.641  -0.611  -0.595  -0.576  -0.548  -0.541  -0.539  -0.533
 -0.516  -0.504  -0.485  -0.472  -0.466  -0.461  -0.449  -0.438
 -0.435  -0.431  -0.425  -0.417  -0.406  -0.402  -0.398  -0.396
 -0.392  -0.381  -0.371  -0.365  -0.356  -0.354  -0.352  -0.343
 -0.342  -0.334  -0.333  -0.326  -0.325  -0.323  -0.317  -0.315
 -0.307  -0.304  -0.301  -0.299  -0.287  -0.285  -0.283  -0.282
 -0.266  -0.263  -0.245  -0.239  -0.236  -0.233  -0.229  -0.189
 -0.177  -0.167  -0.165  -0.160  -0.153  -0.151  -0.146  -0.138
 -0.137

          Ground-State Mulliken Net Atomic Charges

     Atom                 Charge (a.u.)
  ----------------------------------------
      1 O                    -0.214122
      2 C                     0.218871
      3 C                    -0.077903
      4 C                    -0.079963
      5 C                     0.219286
      6 O                    -0.172487
      7 C                    -0.053048
      8 C                    -0.063011
      9 O                    -0.175925
     10 C                     0.223588
     11 C                    -0.078142
     12 C                    -0.077954
     13 C                     0.208664
     14 O                    -0.216981
     15 O                    -0.166146
     16 O                    -0.170435
     17 O                    -0.217308
     18 C                    -0.138332
     19 C                     0.024731
     20 C                    -0.143547
     21 C                    -0.144418
     22 C                     0.025635
     23 O                    -0.185763
     24 H                     0.083545
     25 H                     0.083738
     26 H                     0.088140
     27 H                     0.077150
     28 H                     0.072269
     29 H                     0.077093
     30 H                     0.073337
     31 H                     0.082055
     32 O                    -0.217696
     33 C                    -0.140969
     34 C                     0.024120
     35 C                    -0.143672
     36 C                    -0.144420
     37 C                     0.026708
     38 O                    -0.186698
     39 H                     0.087149
     40 H                     0.084900
     41 H                     0.085396
     42 H                     0.090655
     43 H                     0.078766
     44 H                     0.073663
     45 H                     0.078479
     46 H                     0.073934
     47 H                     0.086546
     48 H                     0.119506
     49 H                     0.088358
     50 H                     0.085882
     51 H                     0.107703
     52 H                     0.079986
     53 H                     0.109592
     54 H                     0.078485
     55 H                     0.104476
     56 H                     0.086531
  ----------------------------------------
  Sum of atomic charges =     0.000000

                    Cartesian Multipole Moments
 -----------------------------------------------------------------
    Charge (ESU x 10^10)
                 0.0000
    Dipole Moment (Debye)
         X      -1.1651      Y       1.0392      Z       1.0883
       Tot       1.9031
    Quadrupole Moments (Debye-Ang)
        XX    -136.2496     XY      -3.1245     YY    -162.1373
        XZ      10.0037     YZ      -2.7858     ZZ    -160.9126

 Total job time:  115.14s(wall), 5494.19s(cpu)
        *  Thank you very much for using Q-Chem.  Have a nice day.  *
