 Q-Chem 5.0, Q-Chem, Inc., Pleasanton, CA (2017)
 Q-Chem 5.0.1 for Intel X86 EM64T Linux

User input:
--------------------------------------------------------------
$molecule
0  1
O -3.94934 -3.66094 2.70899
C -3.26408 -4.56952 2.26188
C -3.36658 -6.02376 2.66595
C -4.36176 -6.37377 3.78441
C -5.27118 -5.25881 4.25122
O -6.54557 -5.48649 3.81588
C -7.47198 -4.47836 4.23385
C -7.85977 -3.59774 3.05053
O -8.56702 -2.43723 3.51517
C -8.29321 -1.2845 2.85532
C -8.65075 -0.05183 3.65115
C -7.85561 0.13201 4.95201
C -6.60621 -0.71486 5.08805
O -6.44574 -1.61642 5.89799
O -2.3544 -4.28445 1.29356
O -5.59878 -0.44751 4.21405
O -7.79124 -1.23838 1.73864
C -4.30036 -0.88044 4.37076
C -8.35425 1.30245 2.96537
C -9.26609 2.38043 3.55191
C -8.67604 2.52813 4.94189
C -7.45402 1.60995 4.82042
O -7.09702 1.69605 3.4605
H -9.74791 -0.11252 3.83323
H -8.49063 -0.09165 5.83788
H -8.46049 1.27399 1.85931
H -9.06437 3.31512 2.98055
H -10.35573 2.1649 3.52001
H -8.36894 3.5882 5.082
H -9.33819 2.20758 5.7753
H -6.66712 1.89497 5.55321
O -4.90417 -4.35833 4.99702
C -2.13314 -3.02148 0.78537
C -3.86346 -6.91989 1.51812
C -3.36944 -8.34803 1.73029
C -4.22428 -8.76643 2.90605
C -5.1139 -7.52551 3.05921
O -5.24486 -7.03828 1.74659
H -2.33382 -6.31767 2.96097
H -3.87229 -6.77804 4.69806
H -1.79974 -2.33649 1.59426
H -3.56403 -6.55654 0.51068
H -3.67857 -8.93822 0.8378
H -2.27313 -8.45344 1.87845
H -4.83223 -9.64675 2.59954
H -3.66897 -8.99612 3.84099
H -6.0552 -7.8193 3.57343
H -3.06216 -2.62812 0.31986
H -1.34014 -3.0743 0.01155
H -3.69816 -0.55682 3.4972
H -4.26549 -1.97964 4.4519
H -3.86477 -0.43808 5.29177
H -6.90408 -3.30977 2.55283
H -8.47671 -4.17788 2.33157
H -7.08776 -3.81464 5.03137
H -8.37461 -4.9548 4.67095
$end

$opt
CONSTRAINT
tors           1           2           3           4      -3.486
tors           3           4           5           6    +107.886
tors           4           5           6           7    +179.265
tors           5           6           7           8    +107.027
tors           6           7           8           9    -168.459
tors           7           8           9          10    +142.172
tors           8           9          10          11    -159.544
tors           9          10          11          12     +63.696
tors          11          12          13          14    -113.135
ENDCONSTRAINT
$end

$rem
JOBTYPE                   OPT
METHOD                    B3LYP
DFT_D                     d3_op
BASIS                     STO-3G
GEOM_OPT_MAX_CYCLES       100
GEOM_OPT_TOL_GRADIENT     300
GEOM_OPT_TOL_DISPLACEMENT 1200
GEOM_OPT_TOL_ENERGY       100
SYMMETRY                  False
THRESH                    12
SCF_CONVERGENCE           8
MAX_SUB_FILE_NUM          128
MEM_STATIC                400
MEM_TOTAL                 4000
$end
--------------------------------------------------------------

   15   -1510.1573039620      7.16E-09 Convergence criterion met
 Total energy in the final basis set = -1510.15730396
   14   -1510.2264161380      7.60E-09 Convergence criterion met
 Total energy in the final basis set = -1510.22641614
   14   -1510.2638110316      8.40E-09 Convergence criterion met
 Total energy in the final basis set = -1510.26381103
   14   -1510.2794306869      6.72E-09 Convergence criterion met
 Total energy in the final basis set = -1510.27943069
   15   -1510.2729862650      3.32E-09 Convergence criterion met
 Total energy in the final basis set = -1510.27298626
   14   -1510.2834872528      9.92E-09 Convergence criterion met
 Total energy in the final basis set = -1510.28348725
   13   -1510.2862195123      9.30E-09 Convergence criterion met
 Total energy in the final basis set = -1510.28621951
   13   -1510.2888361715      3.37E-09 Convergence criterion met
   11   -1510.2926725300      2.29E-09 Convergence criterion met
 Total energy in the final basis set = -1510.29267253
    9   -1510.2926803878      9.97E-09 Convergence criterion met
 Total energy in the final basis set = -1510.29268039
    9   -1510.2926837051      8.59E-09 Convergence criterion met
 Total energy in the final basis set = -1510.29268371
    9   -1510.2926852788      3.60E-09 Convergence criterion met
 Total energy in the final basis set = -1510.29268528
    9   -1510.2926892772      5.57E-09 Convergence criterion met
 Total energy in the final basis set = -1510.29268928
    9   -1510.2926918426      5.05E-09 Convergence criterion met
 Total energy in the final basis set = -1510.29269184

             Standard Nuclear Orientation (Angstroms)
    I     Atom           X                Y                Z
 ----------------------------------------------------------------
    1      O       1.5414141485    -0.8716425883     0.5107019479
    2      C       2.6303919548    -1.4646910894     0.3271812141
    3      C       3.8898056495    -0.8938915764    -0.4097214223
    4      C       3.6132891013     0.5469829528    -1.0050970566
    5      C       2.0832013905     0.9159031620    -1.0574887656
    6      O       1.7964403973     1.8944541807    -0.0628676911
    7      C       0.3675489325     2.2914866661    -0.0806666781
    8      C      -0.3214905395     1.6576045073     1.1808214080
    9      O      -1.7876781283     1.8128162313     1.0185914532
   10      C      -2.5111355688     0.6735684860     1.4983915425
   11      C      -3.9233915950     0.7149603911     0.8120211692
   12      C      -3.8706704034     0.5617286989    -0.7680779590
   13      C      -2.4323924808     0.2671717853    -1.3240846577
   14      O      -1.7321061778     1.0200580854    -2.0394202252
   15      O       2.9128440012    -2.7785735294     0.7983211520
   16      O      -2.0495073466    -1.0291481901    -0.8736111055
   17      O      -2.0506726665    -0.1944440416     2.2686340336
   18      C      -0.7703502334    -1.4628141856    -1.4835404584
   19      C      -4.8410735321    -0.5105452614     1.2165084153
   20      C      -6.3368184938    -0.1251887719     0.8883189392
   21      C      -6.3278695979    -0.2094125095    -0.6839770392
   22      C      -4.8432070716    -0.6810587003    -0.9602429610
   23      O      -4.5277968048    -1.5421353633     0.2011084092
   24      H      -4.4011504489     1.6755181795     1.0789256104
   25      H      -4.2473179496     1.4706424385    -1.2688875541
   26      H      -4.6518968867    -0.9013508503     2.2350447246
   27      H      -7.0292150222    -0.8613825437     1.3268543931
   28      H      -6.6023376027     0.8768836936     1.2612454876
   29      H      -7.0449570145    -0.9597166528    -1.0534771294
   30      H      -6.5508203477     0.7571527831    -1.1634934535
   31      H      -4.6948887390    -1.2379208609    -1.9057784513
   32      O       1.2818967521     0.5417720893    -1.9475298446
   33      C       1.7427262946    -3.3199180084     1.5323753121
   34      C       5.0064179369    -0.5541799186     0.6697991503
   35      C       6.3408197529    -0.1488943268    -0.0710477485
   36      C       6.0024088553     1.3155847873    -0.5366806337
   37      C       4.5061067168     1.4476453405    -0.0505921959
   38      O       4.5090338377     0.7188693914     1.2408421562
   39      H       4.2382300177    -1.6165564247    -1.1692371780
   40      H       3.9812188306     0.5952273596    -2.0461806997
   41      H       0.8533836611    -3.4033396292     0.8750014877
   42      H       5.1167161126    -1.3234872850     1.4586944549
   43      H       7.1903999500    -0.1668612431     0.6298711786
   44      H       6.5656911111    -0.8220872785    -0.9140846723
   45      H       6.6377603439     2.0564392016    -0.0256584944
   46      H       6.1027986550     1.4532026246    -1.6250039277
   47      H       4.1321666892     2.4796913747     0.0872656887
   48      H       1.4794259417    -2.6853048873     2.4028243394
   49      H       2.0421337447    -4.3255748217     1.8801075659
   50      H      -0.3098583315    -2.1674588110    -0.7674814685
   51      H      -0.0776162075    -0.6084524344    -1.6767099528
   52      H      -0.9718388856    -1.9928878239    -2.4370061349
   53      H      -0.0386725317     0.5831919074     1.2444762511
   54      H       0.0190231648     2.1642525985     2.1098449517
   55      H      -0.1334659604     1.9121473396    -1.0034041578
   56      H       0.3254884991     3.3988224029    -0.0479018140
 ----------------------------------------------------------------

    9   -1510.2926937391      3.87E-09 Convergence criterion met
 Total energy in the final basis set = -1510.29269374
 Final energy is   -1510.29269373914
 **  OPTIMIZATION CONVERGED  **

                    Orbital Energies (a.u.)
 --------------------------------------------------------------

 Alpha MOs
 -- Occupied --
-18.950 -18.929 -18.921 -18.920 -18.892 -18.890 -18.881 -18.872
-18.867 -18.862 -10.112 -10.101 -10.093 -10.088 -10.071 -10.064
-10.060 -10.057 -10.055 -10.054 -10.052 -10.045 -10.038 -10.031
-10.031 -10.029 -10.024 -10.021 -10.015 -10.014  -1.025  -1.007
 -1.003  -0.996  -0.973  -0.963  -0.949  -0.933  -0.928  -0.923
 -0.766  -0.757  -0.727  -0.719  -0.712  -0.700  -0.689  -0.669
 -0.643  -0.610  -0.594  -0.574  -0.548  -0.540  -0.539  -0.531
 -0.516  -0.504  -0.485  -0.471  -0.465  -0.458  -0.454  -0.438
 -0.433  -0.428  -0.423  -0.419  -0.412  -0.407  -0.395  -0.393
 -0.390  -0.381  -0.371  -0.364  -0.358  -0.356  -0.352  -0.345
 -0.343  -0.335  -0.332  -0.328  -0.324  -0.320  -0.317  -0.315
 -0.308  -0.304  -0.300  -0.300  -0.287  -0.284  -0.281  -0.273
 -0.268  -0.264  -0.248  -0.238  -0.236  -0.227  -0.227  -0.190
 -0.177  -0.166  -0.161  -0.160  -0.152  -0.150  -0.145  -0.139
 -0.136

          Ground-State Mulliken Net Atomic Charges

     Atom                 Charge (a.u.)
  ----------------------------------------
      1 O                    -0.207604
      2 C                     0.218087
      3 C                    -0.077483
      4 C                    -0.081087
      5 C                     0.223709
      6 O                    -0.171944
      7 C                    -0.056904
      8 C                    -0.053890
      9 O                    -0.181159
     10 C                     0.212334
     11 C                    -0.077640
     12 C                    -0.078054
     13 C                     0.208589
     14 O                    -0.216784
     15 O                    -0.166349
     16 O                    -0.168369
     17 O                    -0.207112
     18 C                    -0.146898
     19 C                     0.024286
     20 C                    -0.143624
     21 C                    -0.144628
     22 C                     0.026735
     23 O                    -0.184880
     24 H                     0.083316
     25 H                     0.083697
     26 H                     0.087911
     27 H                     0.076770
     28 H                     0.072136
     29 H                     0.076605
     30 H                     0.072682
     31 H                     0.082162
     32 O                    -0.224243
     33 C                    -0.127945
     34 C                     0.024620
     35 C                    -0.144359
     36 C                    -0.143322
     37 C                     0.024645
     38 O                    -0.189958
     39 H                     0.088815
     40 H                     0.084837
     41 H                     0.092179
     42 H                     0.085989
     43 H                     0.078948
     44 H                     0.074300
     45 H                     0.078452
     46 H                     0.073949
     47 H                     0.092295
     48 H                     0.095933
     49 H                     0.094131
     50 H                     0.078313
     51 H                     0.118776
     52 H                     0.074543
     53 H                     0.105565
     54 H                     0.081199
     55 H                     0.113629
     56 H                     0.084100
  ----------------------------------------
  Sum of atomic charges =     0.000000

                    Cartesian Multipole Moments
 -----------------------------------------------------------------
    Charge (ESU x 10^10)
                 0.0000
    Dipole Moment (Debye)
         X       1.4868      Y      -0.2626      Z      -0.3420
       Tot       1.5480
    Quadrupole Moments (Debye-Ang)
        XX    -135.8827     XY      -7.2131     YY    -155.8460
        XZ      -3.4678     YZ       0.9727     ZZ    -163.5181

 Total job time:  68.67s(wall), 3270.40s(cpu)
        *  Thank you very much for using Q-Chem.  Have a nice day.  *
