 Q-Chem 5.0, Q-Chem, Inc., Pleasanton, CA (2017)
 Q-Chem 5.0.1 for Intel X86 EM64T Linux

User input:
--------------------------------------------------------------
$molecule
0  1
O 1.550516982 -0.8444174893 0.5179511788
C 2.6338100376 -1.4529508993 0.3534977988
C 3.909107817 -0.9080171365 -0.3764796442
C 3.6596523254 0.5288344535 -0.9933845378
C 2.1357709242 0.9105605715 -1.079390871
O 1.8318581032 1.905843441 -0.1035199313
C 0.3995698313 2.2850767206 -0.1666063249
C -0.3032055881 1.7357713095 1.1246126519
O -1.7650166187 1.8445421164 0.9042016928
C -2.4672461063 0.7057933512 1.4149111465
C -3.9144852977 0.7820143902 0.8120986525
C -3.9307577438 0.5307452862 -0.7587085909
C -2.5089306613 0.2386176997 -1.3600736802
O -1.8578925884 0.9621079671 -2.1474231319
O 2.8952439094 -2.7638737737 0.8452990164
O -2.0670142089 -1.0166138681 -0.8479042771
O -1.9752846338 -0.1656132418 2.1607510659
C -0.7921285918 -1.438675505 -1.4751299673
C -4.8394343558 -0.3973276 1.3218849927
C -6.3385696884 -0.0252320694 0.9936567186
C -6.3720315336 -0.2538202734 -0.563757848
C -4.8901518478 -0.7344648319 -0.8352475593
O -4.5454053433 -1.5028764491 0.3811763198
H -4.3402175939 1.7736695048 1.0494704117
H -4.3490133126 1.4006379796 -1.2948344738
H -4.6373065145 -0.7143654928 2.3632621709
H -7.0285573658 -0.7066408341 1.5162907787
H -6.5822133277 1.0111156901 1.2771835394
H -7.0894333209 -1.0423852735 -0.8416661899
H -6.6205963988 0.662313958 -1.1229570796
H -4.7551034251 -1.3597919946 -1.7389383736
O 1.3419801968 0.5170988861 -1.9683691716
C 1.7108003213 -3.2803320139 1.5742013463
C 5.015953091 -0.567748789 0.7129278239
C 6.3635033982 -0.1838491819 -0.0157226179
C 6.0475826844 1.2803764465 -0.4976932171
C 4.5457500013 1.4313897169 -0.0344971097
O 4.5238351908 0.7160961075 1.264067624
H 4.2576859165 -1.6446995292 -1.122317695
H 4.0472540874 0.5602362684 -2.0280645837
H 0.8258570351 -3.3567451417 0.9101041293
H 5.1085680088 -1.3294331507 1.5114699853
H 7.2050884091 -0.205857235 0.6946668314
H 6.5895846781 -0.8668083299 -0.8505273366
H 6.6829005975 2.0184423024 0.0173911952
H 6.1654453031 1.4086711405 -1.5853896659
H 4.179345203 2.4682357539 0.0869812359
H 1.4493734098 -2.63316517 2.4359558322
H 1.9919649121 -4.2867745522 1.9346124831
H -0.3301855902 -2.1551117499 -0.7719356189
H -0.094434348 -0.5869269145 -1.6587198415
H -0.9951837231 -1.9523724096 -2.4372883245
H -0.0071810356 0.6745542059 1.280893942
H -0.0058990295 2.323664395 2.0194704281
H -0.0773225288 1.8412335162 -1.0712921039
H 0.3426229751 3.3915865552 -0.2132737526
$end

$rem
JOBTYPE                   OPT
METHOD                    B3LYP
DFT_D                     d3_op
BASIS                     STO-3G
GEOM_OPT_MAX_CYCLES       100
GEOM_OPT_TOL_GRADIENT     300
GEOM_OPT_TOL_DISPLACEMENT 1200
GEOM_OPT_TOL_ENERGY       100
SYMMETRY                  False
THRESH                    12
SCF_CONVERGENCE           8
MAX_SUB_FILE_NUM          128
MEM_STATIC                400
MEM_TOTAL                 4000
$end
--------------------------------------------------------------

   16   -1510.2937170233      5.50E-09 Convergence criterion met
 Total energy in the final basis set = -1510.29371702
   14   -1510.2843657886      6.52E-09 Convergence criterion met
 Total energy in the final basis set = -1510.28436579
   15   -1510.2856673417      5.84E-09 Convergence criterion met
 Total energy in the final basis set = -1510.28566734
   14   -1510.2878881336      3.65E-09 Convergence criterion met
 Total energy in the final basis set = -1510.28788813
   15   -1510.2917707806      6.84E-09 Convergence criterion met
 Total energy in the final basis set = -1510.29177078
   14   -1510.2861020792      3.50E-09 Convergence criterion met
 Total energy in the final basis set = -1510.28610208
   14   -1510.2856172123      4.30E-09 Convergence criterion met
 Total energy in the final basis set = -1510.28561721
   14   -1510.2919935116      5.07E-09 Convergence criterion met
   11   -1510.2981920600      6.44E-09 Convergence criterion met
 Total energy in the final basis set = -1510.29819206
   10   -1510.2981978984      9.04E-09 Convergence criterion met
 Total energy in the final basis set = -1510.29819790
    9   -1510.2981994953      7.65E-09 Convergence criterion met
 Total energy in the final basis set = -1510.29819950
    9   -1510.2981978325      3.95E-09 Convergence criterion met
 Total energy in the final basis set = -1510.29819783
    9   -1510.2981964122      8.94E-09 Convergence criterion met
 Total energy in the final basis set = -1510.29819641
   10   -1510.2981941091      9.32E-09 Convergence criterion met
 Total energy in the final basis set = -1510.29819411

             Standard Nuclear Orientation (Angstroms)
    I     Atom           X                Y                Z
 ----------------------------------------------------------------
    1      O      -1.1897870685     0.8226107688    -0.3761277086
    2      C      -2.2687247400     1.3454573036    -0.0042238619
    3      C      -3.7031144840     0.8565379416    -0.4069356778
    4      C      -3.7225500112    -0.6438414217    -0.9306098177
    5      C      -2.3195211427    -1.3547098171    -0.8896015360
    6      O      -2.0682022758    -1.7925400559     0.4498689534
    7      C      -0.6607594081    -2.2404680460     0.6089035465
    8      C       0.0804120411    -1.0914676867     1.3756161467
    9      O       1.5429804092    -1.2052878483     1.1679540507
   10      C       2.1370497481     0.0975280302     1.1507081051
   11      C       3.6710991747    -0.1003396169     0.8994704327
   12      C       3.9902191998    -0.8963518659    -0.4344336197
   13      C       2.7292830622    -1.1887885915    -1.3224991612
   14      O       2.4130371260    -2.2761216621    -1.8527865909
   15      O      -2.3535349066     2.4741588965     0.8506098416
   16      O       2.0135644186     0.0361280726    -1.4883393255
   17      O       1.5232931955     1.1697290377     1.3480613095
   18      C       0.9161855235    -0.1205112636    -2.4727821825
   19      C       4.4255432793     1.2683584185     0.6398380767
   20      C       5.9667370213     1.0294515587     0.8794372537
   21      C       6.3354509619     0.1725136194    -0.3886129090
   22      C       4.9530793921     0.1440554030    -1.1562368671
   23      O       4.3381266594     1.4497016060    -0.8280535062
   24      H       4.0918118634    -0.6311619733     1.7733689893
   25      H       4.4955080180    -1.8559569670    -0.2286728788
   26      H       3.9785368021     2.1351154222     1.1645802005
   27      H       6.5070770531     1.9895274626     0.8864869226
   28      H       6.1692029812     0.5029384881     1.8258824209
   29      H       7.1074141511     0.6656620574    -1.0003578252
   30      H       6.6837877682    -0.8403407993    -0.1301974600
   31      H       5.0272336077     0.0151816996    -2.2535584892
   32      O      -1.5842542798    -1.6100179292    -1.8723562011
   33      C      -0.9977752094     2.9864801437     1.1890982919
   34      C      -4.7012842848     0.7685631660     0.8256079534
   35      C      -6.1737424876     0.6915753304     0.2630569520
   36      C      -6.2087055789    -0.7822865508    -0.2871768744
   37      C      -4.7583160251    -1.2869952486     0.0885868117
   38      O      -4.4648621188    -0.5903968606     1.3628815709
   39      H      -4.0907463383     1.5477176514    -1.1787271797
   40      H      -4.0852948604    -0.6903888703    -1.9726842156
   41      H      -0.6689123874     3.7121583203     0.4176899944
   42      H      -4.5219881732     1.5369661202     1.6021154790
   43      H      -6.9029339120     0.8363668356     1.0759660133
   44      H      -6.3617437677     1.4451272206    -0.5183121905
   45      H      -6.9720666702    -1.3878381454     0.2266228398
   46      H      -6.3938240179    -0.8271633589    -1.3722515133
   47      H      -4.6575764113    -2.3821477397     0.2142844701
   48      H      -0.2355616675     2.1773630134     1.2635380732
   49      H      -1.1014403939     3.5089746946     2.1577314986
   50      H       0.5030206501     0.8944963212    -2.6145898708
   51      H       0.1021276864    -0.7959741603    -2.1196505539
   52      H       1.3033191557    -0.5008892366    -3.4395728809
   53      H      -0.2773448185    -0.1264064228     0.9499785219
   54      H      -0.1548147755    -1.1276650767     2.4607504583
   55      H      -0.1979032203    -2.4052834975    -0.3880482167
   56      H      -0.6695964346    -3.1893849212     1.1816584224
 ----------------------------------------------------------------

    9   -1510.2981943110      4.26E-09 Convergence criterion met
 Total energy in the final basis set = -1510.29819431
 Final energy is   -1510.29819431103
 **  OPTIMIZATION CONVERGED  **

                    Orbital Energies (a.u.)
 --------------------------------------------------------------

 Alpha MOs
 -- Occupied --
-18.947 -18.928 -18.928 -18.918 -18.890 -18.888 -18.883 -18.875
-18.873 -18.859 -10.112 -10.101 -10.100 -10.085 -10.063 -10.062
-10.062 -10.055 -10.054 -10.054 -10.053 -10.044 -10.039 -10.033
-10.033 -10.030 -10.023 -10.021 -10.017 -10.016  -1.023  -1.010
 -1.006  -0.994  -0.972  -0.965  -0.946  -0.937  -0.932  -0.920
 -0.766  -0.759  -0.727  -0.721  -0.713  -0.702  -0.691  -0.661
 -0.641  -0.611  -0.595  -0.576  -0.548  -0.541  -0.539  -0.533
 -0.516  -0.504  -0.485  -0.471  -0.466  -0.461  -0.449  -0.438
 -0.435  -0.431  -0.425  -0.416  -0.406  -0.402  -0.398  -0.396
 -0.392  -0.381  -0.371  -0.365  -0.356  -0.354  -0.352  -0.343
 -0.342  -0.334  -0.333  -0.326  -0.325  -0.322  -0.317  -0.315
 -0.307  -0.304  -0.301  -0.299  -0.287  -0.285  -0.283  -0.282
 -0.266  -0.263  -0.245  -0.239  -0.236  -0.233  -0.229  -0.189
 -0.177  -0.167  -0.165  -0.160  -0.154  -0.151  -0.146  -0.138
 -0.137

          Ground-State Mulliken Net Atomic Charges

     Atom                 Charge (a.u.)
  ----------------------------------------
      1 O                    -0.213987
      2 C                     0.218841
      3 C                    -0.077914
      4 C                    -0.079997
      5 C                     0.219514
      6 O                    -0.172479
      7 C                    -0.053065
      8 C                    -0.062750
      9 O                    -0.175792
     10 C                     0.223362
     11 C                    -0.078057
     12 C                    -0.077963
     13 C                     0.208516
     14 O                    -0.217087
     15 O                    -0.166202
     16 O                    -0.170568
     17 O                    -0.216941
     18 C                    -0.138617
     19 C                     0.024705
     20 C                    -0.143590
     21 C                    -0.144418
     22 C                     0.025667
     23 O                    -0.185629
     24 H                     0.083606
     25 H                     0.083666
     26 H                     0.088041
     27 H                     0.077150
     28 H                     0.072279
     29 H                     0.077080
     30 H                     0.073328
     31 H                     0.082032
     32 O                    -0.217797
     33 C                    -0.140900
     34 C                     0.024131
     35 C                    -0.143667
     36 C                    -0.144421
     37 C                     0.026722
     38 O                    -0.186697
     39 H                     0.087160
     40 H                     0.084919
     41 H                     0.085467
     42 H                     0.090623
     43 H                     0.078773
     44 H                     0.073682
     45 H                     0.078473
     46 H                     0.073940
     47 H                     0.086545
     48 H                     0.119393
     49 H                     0.088383
     50 H                     0.085545
     51 H                     0.108093
     52 H                     0.079516
     53 H                     0.109461
     54 H                     0.078598
     55 H                     0.104846
     56 H                     0.086481
  ----------------------------------------
  Sum of atomic charges =     0.000000

                    Cartesian Multipole Moments
 -----------------------------------------------------------------
    Charge (ESU x 10^10)
                 0.0000
    Dipole Moment (Debye)
         X      -1.1388      Y       1.0660      Z       1.0613
       Tot       1.8867
    Quadrupole Moments (Debye-Ang)
        XX    -136.0798     XY      -3.1550     YY    -162.2430
        XZ       9.7304     YZ      -2.7285     ZZ    -160.8320

 Total job time:  158.94s(wall), 7588.77s(cpu)
        *  Thank you very much for using Q-Chem.  Have a nice day.  *
