 Q-Chem 5.0, Q-Chem, Inc., Pleasanton, CA (2017)
 Q-Chem 5.0.1 for Intel X86 EM64T Linux

User input:
--------------------------------------------------------------
$molecule
0  1
O -3.94934 -3.66094 2.70899
C -3.26408 -4.56952 2.26188
C -3.36658 -6.02376 2.66595
C -4.36176 -6.37377 3.78441
C -5.27118 -5.25881 4.25122
O -6.54593 -5.48745 3.81745
C -7.46964 -4.47209 4.22374
C -7.91121 -3.65002 3.01736
O -8.59197 -2.46387 3.45609
C -8.31531 -1.33849 2.75171
C -8.78947 -0.08135 3.44122
C -8.03365 0.27463 4.72974
C -6.71873 -0.44731 4.9454
O -6.49609 -1.26706 5.8246
O -2.35512 -4.2846 1.29282
O -5.73604 -0.20394 4.0365
O -7.78282 -1.33278 1.64809
C -4.44291 -0.66601 4.15127
C -8.58632 1.23288 2.64878
C -9.59229 2.27873 3.13043
C -9.04454 2.58627 4.51125
C -7.75039 1.76447 4.48172
O -7.37472 1.76733 3.1246
H -9.88347 -0.21068 3.60595
H -8.66103 0.07209 5.62598
H -8.66856 1.10604 1.54756
H -9.45227 3.17649 2.48603
H -10.66102 1.97586 3.10107
H -8.82779 3.67596 4.56831
H -9.69494 2.27975 5.3591
H -7.0032 2.17188 5.19811
O -4.90038 -4.34945 4.9859
C -2.13542 -3.02199 0.78304
C -3.86378 -6.9201 1.51835
C -3.36936 -8.34812 1.73046
C -4.22345 -8.76654 2.90679
C -5.11362 -7.52602 3.05995
O -5.24511 -7.03898 1.7473
H -2.33379 -6.31782 2.96072
H -3.87144 -6.77666 4.69819
H -1.80235 -2.33565 1.5909
H -3.56483 -6.5568 0.51075
H -3.67898 -8.93841 0.8382
H -2.27295 -8.45347 1.87794
H -4.83097 -9.64739 2.60094
H -3.66758 -8.99543 3.84159
H -6.05465 -7.82002 3.57454
H -3.0651 -2.63016 0.31754
H -1.34279 -3.0749 0.00885
H -3.86125 -0.35249 3.26029
H -4.43741 -1.76978 4.2213
H -3.96763 -0.2401 5.06041
H -6.98006 -3.39959 2.45735
H -8.56516 -4.26479 2.36285
H -7.06084 -3.75028 4.96281
H -8.34892 -4.9333 4.72078
$end

$opt
CONSTRAINT
tors           1           2           3           4      -3.486
tors           3           4           5           6    +107.970
tors           4           5           6           7    +179.881
tors           5           6           7           8    +110.032
tors           6           7           8           9    -167.271
tors           7           8           9          10    +140.243
tors           8           9          10          11    -166.417
tors           9          10          11          12     +68.414
tors          11          12          13          14    -112.858
ENDCONSTRAINT
$end

$rem
JOBTYPE                   OPT
METHOD                    B3LYP
DFT_D                     d3_op
BASIS                     STO-3G
GEOM_OPT_MAX_CYCLES       100
GEOM_OPT_TOL_GRADIENT     300
GEOM_OPT_TOL_DISPLACEMENT 1200
GEOM_OPT_TOL_ENERGY       100
SYMMETRY                  False
THRESH                    12
SCF_CONVERGENCE           8
MAX_SUB_FILE_NUM          128
MEM_STATIC                400
MEM_TOTAL                 4000
$end
--------------------------------------------------------------

   15   -1510.1571117796      7.09E-09 Convergence criterion met
 Total energy in the final basis set = -1510.15711178
   14   -1510.2263987412      5.10E-09 Convergence criterion met
 Total energy in the final basis set = -1510.22639874
   14   -1510.2633862531      8.77E-09 Convergence criterion met
 Total energy in the final basis set = -1510.26338625
   14   -1510.2761870531      9.47E-09 Convergence criterion met
 Total energy in the final basis set = -1510.27618705
   15   -1510.2846429747      2.31E-09 Convergence criterion met
 Total energy in the final basis set = -1510.28464297
   13   -1510.2875785426      2.98E-09 Convergence criterion met
 Total energy in the final basis set = -1510.28757854
    2   -1510.2875785426      3.02E-09 Convergence criterion met
 Total energy in the final basis set = -1510.28757854
   13   -1510.2898146029      4.04E-09 Convergence criterion met
   11   -1510.2938496921      3.81E-09 Convergence criterion met
 Total energy in the final basis set = -1510.29384969
   10   -1510.2938566391      9.54E-09 Convergence criterion met
 Total energy in the final basis set = -1510.29385664
    9   -1510.2938620191      6.37E-09 Convergence criterion met
 Total energy in the final basis set = -1510.29386202
    9   -1510.2938681054      6.48E-09 Convergence criterion met
 Total energy in the final basis set = -1510.29386811
    9   -1510.2938746583      6.79E-09 Convergence criterion met
 Total energy in the final basis set = -1510.29387466
    9   -1510.2938788503      7.11E-09 Convergence criterion met
 Total energy in the final basis set = -1510.29387885

             Standard Nuclear Orientation (Angstroms)
    I     Atom           X                Y                Z
 ----------------------------------------------------------------
    1      O       1.5505169820    -0.8444174893     0.5179511788
    2      C       2.6338100376    -1.4529508993     0.3534977988
    3      C       3.9091078170    -0.9080171365    -0.3764796442
    4      C       3.6596523254     0.5288344535    -0.9933845378
    5      C       2.1357709242     0.9105605715    -1.0793908710
    6      O       1.8318581032     1.9058434410    -0.1035199313
    7      C       0.3995698313     2.2850767206    -0.1666063249
    8      C      -0.3032055881     1.7357713095     1.1246126519
    9      O      -1.7650166187     1.8445421164     0.9042016928
   10      C      -2.4672461063     0.7057933512     1.4149111465
   11      C      -3.9144852977     0.7820143902     0.8120986525
   12      C      -3.9307577438     0.5307452862    -0.7587085909
   13      C      -2.5089306613     0.2386176997    -1.3600736802
   14      O      -1.8578925884     0.9621079671    -2.1474231319
   15      O       2.8952439094    -2.7638737737     0.8452990164
   16      O      -2.0670142089    -1.0166138681    -0.8479042771
   17      O      -1.9752846338    -0.1656132418     2.1607510659
   18      C      -0.7921285918    -1.4386755050    -1.4751299673
   19      C      -4.8394343558    -0.3973276000     1.3218849927
   20      C      -6.3385696884    -0.0252320694     0.9936567186
   21      C      -6.3720315336    -0.2538202734    -0.5637578480
   22      C      -4.8901518478    -0.7344648319    -0.8352475593
   23      O      -4.5454053433    -1.5028764491     0.3811763198
   24      H      -4.3402175939     1.7736695048     1.0494704117
   25      H      -4.3490133126     1.4006379796    -1.2948344738
   26      H      -4.6373065145    -0.7143654928     2.3632621709
   27      H      -7.0285573658    -0.7066408341     1.5162907787
   28      H      -6.5822133277     1.0111156901     1.2771835394
   29      H      -7.0894333209    -1.0423852735    -0.8416661899
   30      H      -6.6205963988     0.6623139580    -1.1229570796
   31      H      -4.7551034251    -1.3597919946    -1.7389383736
   32      O       1.3419801968     0.5170988861    -1.9683691716
   33      C       1.7108003213    -3.2803320139     1.5742013463
   34      C       5.0159530910    -0.5677487890     0.7129278239
   35      C       6.3635033982    -0.1838491819    -0.0157226179
   36      C       6.0475826844     1.2803764465    -0.4976932171
   37      C       4.5457500013     1.4313897169    -0.0344971097
   38      O       4.5238351908     0.7160961075     1.2640676240
   39      H       4.2576859165    -1.6446995292    -1.1223176950
   40      H       4.0472540874     0.5602362684    -2.0280645837
   41      H       0.8258570351    -3.3567451417     0.9101041293
   42      H       5.1085680088    -1.3294331507     1.5114699853
   43      H       7.2050884091    -0.2058572350     0.6946668314
   44      H       6.5895846781    -0.8668083299    -0.8505273366
   45      H       6.6829005975     2.0184423024     0.0173911952
   46      H       6.1654453031     1.4086711405    -1.5853896659
   47      H       4.1793452030     2.4682357539     0.0869812359
   48      H       1.4493734098    -2.6331651700     2.4359558322
   49      H       1.9919649121    -4.2867745522     1.9346124831
   50      H      -0.3301855902    -2.1551117499    -0.7719356189
   51      H      -0.0944343480    -0.5869269145    -1.6587198415
   52      H      -0.9951837231    -1.9523724096    -2.4372883245
   53      H      -0.0071810356     0.6745542059     1.2808939420
   54      H      -0.0058990295     2.3236643950     2.0194704281
   55      H      -0.0773225288     1.8412335162    -1.0712921039
   56      H       0.3426229751     3.3915865552    -0.2132737526
 ----------------------------------------------------------------

    9   -1510.2938808013      5.74E-09 Convergence criterion met
 Total energy in the final basis set = -1510.29388080
 Final energy is   -1510.29388080127
 **  OPTIMIZATION CONVERGED  **

                    Orbital Energies (a.u.)
 --------------------------------------------------------------

 Alpha MOs
 -- Occupied --
-18.949 -18.929 -18.921 -18.920 -18.891 -18.890 -18.881 -18.871
-18.867 -18.862 -10.111 -10.101 -10.093 -10.087 -10.070 -10.064
-10.060 -10.057 -10.056 -10.054 -10.052 -10.045 -10.038 -10.033
-10.031 -10.029 -10.024 -10.022 -10.015 -10.014  -1.025  -1.008
 -1.003  -0.995  -0.973  -0.963  -0.948  -0.934  -0.928  -0.922
 -0.767  -0.757  -0.727  -0.720  -0.712  -0.700  -0.689  -0.669
 -0.643  -0.611  -0.594  -0.574  -0.548  -0.540  -0.539  -0.531
 -0.516  -0.503  -0.485  -0.471  -0.465  -0.458  -0.454  -0.438
 -0.434  -0.428  -0.423  -0.418  -0.412  -0.406  -0.395  -0.394
 -0.390  -0.380  -0.370  -0.363  -0.359  -0.355  -0.352  -0.344
 -0.343  -0.336  -0.332  -0.328  -0.324  -0.320  -0.318  -0.315
 -0.308  -0.304  -0.301  -0.300  -0.287  -0.284  -0.281  -0.275
 -0.267  -0.264  -0.248  -0.239  -0.236  -0.229  -0.227  -0.190
 -0.178  -0.166  -0.161  -0.160  -0.153  -0.150  -0.145  -0.139
 -0.136

          Ground-State Mulliken Net Atomic Charges

     Atom                 Charge (a.u.)
  ----------------------------------------
      1 O                    -0.207582
      2 C                     0.217582
      3 C                    -0.077335
      4 C                    -0.081065
      5 C                     0.222842
      6 O                    -0.171224
      7 C                    -0.055722
      8 C                    -0.054471
      9 O                    -0.179775
     10 C                     0.212746
     11 C                    -0.077592
     12 C                    -0.078311
     13 C                     0.207083
     14 O                    -0.216597
     15 O                    -0.166710
     16 O                    -0.168892
     17 O                    -0.207613
     18 C                    -0.144510
     19 C                     0.024628
     20 C                    -0.144034
     21 C                    -0.144304
     22 C                     0.026551
     23 O                    -0.185001
     24 H                     0.084009
     25 H                     0.083231
     26 H                     0.087226
     27 H                     0.076786
     28 H                     0.072211
     29 H                     0.076633
     30 H                     0.072780
     31 H                     0.082429
     32 O                    -0.224571
     33 C                    -0.127927
     34 C                     0.024642
     35 C                    -0.144400
     36 C                    -0.143248
     37 C                     0.024612
     38 O                    -0.189971
     39 H                     0.088850
     40 H                     0.084921
     41 H                     0.092295
     42 H                     0.086108
     43 H                     0.078956
     44 H                     0.074326
     45 H                     0.078475
     46 H                     0.073960
     47 H                     0.092160
     48 H                     0.095902
     49 H                     0.093867
     50 H                     0.079404
     51 H                     0.115996
     52 H                     0.075297
     53 H                     0.107342
     54 H                     0.081382
     55 H                     0.111608
     56 H                     0.084014
  ----------------------------------------
  Sum of atomic charges =    -0.000000

                    Cartesian Multipole Moments
 -----------------------------------------------------------------
    Charge (ESU x 10^10)
                 0.0000
    Dipole Moment (Debye)
         X       1.4814      Y      -0.1994      Z      -0.1974
       Tot       1.5077
    Quadrupole Moments (Debye-Ang)
        XX    -135.5205     XY      -7.0466     YY    -155.6093
        XZ      -3.7675     YZ       1.4333     ZZ    -163.6941

 Total job time:  65.00s(wall), 3099.84s(cpu)
        *  Thank you very much for using Q-Chem.  Have a nice day.  *
