 Q-Chem 5.0, Q-Chem, Inc., Pleasanton, CA (2017)
 Q-Chem 5.0.1 for Intel X86 EM64T Linux

User input:
--------------------------------------------------------------
$molecule
0  1
O -3.94934 -3.66094 2.70899
C -3.26408 -4.56952 2.26188
C -3.36658 -6.02376 2.66595
C -2.05424 -6.81773 2.77194
C -0.77335 -6.02476 2.63554
O 0.16784 -6.51174 3.49718
C 1.50244 -6.12934 3.14811
C 1.90716 -6.77857 1.8287
O 3.28738 -7.17254 1.8802
C 3.50903 -8.50024 2.04517
C 4.90213 -8.80704 2.54096
C 5.20298 -10.2992 2.74401
C 4.2277 -11.26359 2.09944
O 4.06388 -11.40779 0.89656
O -2.67088 -4.34125 1.06056
O 3.56164 -12.08846 2.95012
O 2.61054 -9.32787 1.96169
C 2.6573 -13.05036 2.55142
C 6.02313 -8.44057 1.54462
C 7.32805 -8.22074 2.30888
C 7.65077 -9.64075 2.73439
C 6.54293 -10.40602 1.9997
O 6.29757 -9.63279 0.84882
H 5.04464 -8.21854 3.47607
H 5.2649 -10.54971 3.82678
H 5.7875 -7.5521 0.91926
H 8.08531 -7.89406 1.56017
H 7.2883 -7.47643 3.13304
H 8.65497 -9.90661 2.33617
H 7.61009 -9.82923 3.82919
H 6.84059 -11.46366 1.82466
O -0.50066 -5.34938 1.65259
C -2.60193 -3.11191 0.43687
C -3.94401 -6.219 4.08252
C -4.58973 -7.59729 4.1915
C -3.36319 -8.48112 4.18428
C -2.25395 -7.42117 4.18869
O -2.8111 -6.34776 4.90536
H -4.05244 -6.48597 1.92015
H -1.99942 -7.60884 1.99146
H -2.05486 -2.38896 1.07914
H -4.67748 -5.43834 4.37969
H -5.06413 -7.65694 5.1975
H -5.34896 -7.83093 3.41439
H -3.35073 -9.06727 5.13032
H -3.27452 -9.16586 3.31321
H -1.34106 -7.8778 4.62568
H -3.62344 -2.72988 0.22506
H -2.05622 -3.22148 -0.52262
H 2.26452 -13.57393 3.447
H 3.15417 -13.79343 1.89163
H 1.80873 -12.57697 2.01259
H 1.21954 -7.63345 1.65049
H 1.73228 -6.10779 0.96236
H 2.1318 -6.57727 3.94693
H 1.68501 -5.03213 3.16776
$end

$opt
CONSTRAINT
tors           1           2           3           4    -142.105
tors           3           4           5           6    +142.105
tors           4           5           6           7    +161.053
tors           5           6           7           8     -66.316
tors           6           7           8           9    -142.105
tors           7           8           9          10    +104.211
tors           8           9          10          11    -161.053
tors           9          10          11          12    -180.000
tors          11          12          13          14     +66.316
ENDCONSTRAINT
$end

$rem
JOBTYPE                   OPT
METHOD                    B3LYP
DFT_D                     d3_op
BASIS                     STO-3G
GEOM_OPT_MAX_CYCLES       100
GEOM_OPT_TOL_GRADIENT     300
GEOM_OPT_TOL_DISPLACEMENT 1200
GEOM_OPT_TOL_ENERGY       100
SYMMETRY                  False
THRESH                    12
SCF_CONVERGENCE           8
MAX_SUB_FILE_NUM          128
MEM_STATIC                400
MEM_TOTAL                 4000
$end
--------------------------------------------------------------

   15   -1510.1384066949      6.86E-09 Convergence criterion met
 Total energy in the final basis set = -1510.13840669
   13   -1510.2090206170      8.61E-09 Convergence criterion met
 Total energy in the final basis set = -1510.20902062
   14   -1510.2463034851      3.65E-09 Convergence criterion met
 Total energy in the final basis set = -1510.24630349
   14   -1510.2621085567      1.66E-09 Convergence criterion met
 Total energy in the final basis set = -1510.26210856
   14   -1510.2661861509      4.75E-09 Convergence criterion met
 Total energy in the final basis set = -1510.26618615
   13   -1510.2672580425      8.60E-09 Convergence criterion met
 Total energy in the final basis set = -1510.26725804
   12   -1510.2681880285      9.06E-09 Convergence criterion met
 Total energy in the final basis set = -1510.26818803
   12   -1510.2684210666      5.81E-09 Convergence criterion met
   12   -1510.2689396095      2.27E-09 Convergence criterion met
 Total energy in the final basis set = -1510.26893961
   12   -1510.2689825689      2.81E-09 Convergence criterion met
 Total energy in the final basis set = -1510.26898257
   11   -1510.2690183294      9.62E-09 Convergence criterion met
 Total energy in the final basis set = -1510.26901833
   11   -1510.2690512051      6.71E-09 Convergence criterion met
 Total energy in the final basis set = -1510.26905121
   10   -1510.2690616222      6.15E-09 Convergence criterion met
 Total energy in the final basis set = -1510.26906162
   10   -1510.2690674770      9.94E-09 Convergence criterion met
 Total energy in the final basis set = -1510.26906748

             Standard Nuclear Orientation (Angstroms)
    I     Atom           X                Y                Z
 ----------------------------------------------------------------
    1      O      -6.5254509656     1.4474222214    -0.1096158750
    2      C      -5.4807089067     0.9582260329    -0.5925845343
    3      C      -4.9351317059    -0.4952813187    -0.3626793351
    4      C      -3.3707425345    -0.7034863784    -0.2204868216
    5      C      -2.5719175001     0.5698210665     0.2723900288
    6      O      -1.5245562341     0.1391181330     1.1621541774
    7      C      -0.4916170641     1.1943163976     1.2870434440
    8      C       0.2835976259     1.4326190896    -0.0694740906
    9      O       1.7151087809     1.6953121169     0.2095693379
   10      C       2.5028845348     0.5364629438    -0.1024248266
   11      C       3.8750275735     0.6649717853     0.6370640024
   12      C       4.8638794519    -0.5452785250     0.3914702343
   13      C       4.4658712456    -1.4477828487    -0.8333497026
   14      O       4.4582479848    -1.1347180726    -2.0423876829
   15      O      -4.7454702924     1.5484065242    -1.6685691428
   16      O       4.1180929410    -2.7466398980    -0.3326344568
   17      O       2.0762737508    -0.4436067460    -0.7533304963
   18      C       3.6666274298    -3.6068734850    -1.4499331689
   19      C       4.7686150892     1.9055177497     0.1931000181
   20      C       5.7455558172     2.2313460375     1.3897807695
   21      C       6.7230499713     1.0000909885     1.3154219585
   22      C       6.1888761339     0.2544657567     0.0280665993
   23      O       5.6740083076     1.3450162767    -0.8336870849
   24      H       3.6353741061     0.7485253620     1.7134297449
   25      H       4.9712129670    -1.1794014228     1.2883446717
   26      H       4.1974204222     2.7650987916    -0.2079149701
   27      H       6.2758493758     3.1790284614     1.2033116332
   28      H       5.2184756748     2.3036467998     2.3545642977
   29      H       7.7681213457     1.3178615456     1.1745422465
   30      H       6.6660131543     0.3613592832     2.2113468000
   31      H       6.9447253378    -0.3418735150    -0.5184514675
   32      O      -2.7371473573     1.7669447837    -0.0408189047
   33      C      -5.2767345452     2.8964588751    -1.9698127539
   34      C      -5.4758163446    -1.2234796870     0.9409096497
   35      C      -5.5791603911    -2.7590022429     0.5995833925
   36      C      -4.0528348395    -3.1231863737     0.4685768977
   37      C      -3.3642708092    -1.7817306257     0.9458233893
   38      O      -4.3394622831    -1.1823211836     1.8911256427
   39      H      -5.2698198201    -1.0612588142    -1.2534563228
   40      H      -2.9125338849    -1.0617202157    -1.1608832824
   41      H      -5.1110797431     3.5933786583    -1.1231961629
   42      H      -6.3789624367    -0.7569574963     1.3813857912
   43      H      -6.0522220962    -3.3053365945     1.4314654168
   44      H      -6.1491222661    -2.9519296427    -0.3234090686
   45      H      -3.7737366626    -3.9578941491     1.1305915761
   46      H      -3.7687649817    -3.3840262984    -0.5638786850
   47      H      -2.3769436886    -1.8989069806     1.4305151449
   48      H      -6.3619022458     2.8672904145    -2.1983614807
   49      H      -4.7180031455     3.2536348167    -2.8542242166
   50      H       3.4242727387    -4.5888637464    -1.0035769754
   51      H       4.4581736142    -3.7321781574    -2.2168585001
   52      H       2.7645958760    -3.1872479844    -1.9405652856
   53      H       0.2065227693     0.5253756501    -0.7087491104
   54      H      -0.1299360289     2.3080520209    -0.6082450372
   55      H       0.2166914070     0.8136376631     2.0509930283
   56      H      -0.9350824491     2.1462133966     1.6491029928
 ----------------------------------------------------------------

    9   -1510.2690684563      7.15E-09 Convergence criterion met
 Total energy in the final basis set = -1510.26906846
 Final energy is   -1510.26906845626
 **  OPTIMIZATION CONVERGED  **

                    Orbital Energies (a.u.)
 --------------------------------------------------------------

 Alpha MOs
 -- Occupied --
-18.938 -18.934 -18.929 -18.924 -18.890 -18.890 -18.883 -18.882
-18.870 -18.862 -10.109 -10.103 -10.096 -10.090 -10.076 -10.071
-10.062 -10.060 -10.059 -10.056 -10.056 -10.056 -10.043 -10.041
-10.035 -10.035 -10.022 -10.021 -10.019 -10.018  -1.021  -1.015
 -1.005  -1.000  -0.971  -0.968  -0.946  -0.939  -0.930  -0.925
 -0.765  -0.762  -0.728  -0.723  -0.714  -0.705  -0.693  -0.658
 -0.657  -0.622  -0.598  -0.582  -0.547  -0.543  -0.539  -0.536
 -0.514  -0.510  -0.484  -0.471  -0.461  -0.457  -0.455  -0.450
 -0.435  -0.434  -0.430  -0.411  -0.406  -0.404  -0.404  -0.402
 -0.395  -0.386  -0.370  -0.369  -0.364  -0.355  -0.352  -0.348
 -0.341  -0.337  -0.335  -0.333  -0.332  -0.327  -0.322  -0.317
 -0.311  -0.308  -0.305  -0.302  -0.297  -0.283  -0.280  -0.276
 -0.273  -0.258  -0.251  -0.247  -0.245  -0.235  -0.232  -0.194
 -0.177  -0.171  -0.170  -0.162  -0.151  -0.148  -0.147  -0.142
 -0.140

          Ground-State Mulliken Net Atomic Charges

     Atom                 Charge (a.u.)
  ----------------------------------------
      1 O                    -0.215391
      2 C                     0.210912
      3 C                    -0.080856
      4 C                    -0.074652
      5 C                     0.211065
      6 O                    -0.173077
      7 C                    -0.050172
      8 C                    -0.059256
      9 O                    -0.175597
     10 C                     0.213971
     11 C                    -0.078227
     12 C                    -0.080577
     13 C                     0.212975
     14 O                    -0.212708
     15 O                    -0.165095
     16 O                    -0.172691
     17 O                    -0.205830
     18 C                    -0.128548
     19 C                     0.026051
     20 C                    -0.142414
     21 C                    -0.145258
     22 C                     0.026248
     23 O                    -0.184735
     24 H                     0.085582
     25 H                     0.085259
     26 H                     0.088313
     27 H                     0.078732
     28 H                     0.073365
     29 H                     0.078474
     30 H                     0.073575
     31 H                     0.084060
     32 O                    -0.207668
     33 C                    -0.126349
     34 C                     0.022228
     35 C                    -0.141755
     36 C                    -0.146108
     37 C                     0.021806
     38 O                    -0.192669
     39 H                     0.083454
     40 H                     0.087136
     41 H                     0.090653
     42 H                     0.090069
     43 H                     0.077828
     44 H                     0.072897
     45 H                     0.077929
     46 H                     0.072666
     47 H                     0.093366
     48 H                     0.087871
     49 H                     0.089697
     50 H                     0.086758
     51 H                     0.086811
     52 H                     0.091901
     53 H                     0.100801
     54 H                     0.094659
     55 H                     0.089710
     56 H                     0.092809
  ----------------------------------------
  Sum of atomic charges =     0.000000

                    Cartesian Multipole Moments
 -----------------------------------------------------------------
    Charge (ESU x 10^10)
                 0.0000
    Dipole Moment (Debye)
         X       0.7936      Y      -1.1257      Z       0.8594
       Tot       1.6235
    Quadrupole Moments (Debye-Ang)
        XX    -163.0063     XY       5.0846     YY    -151.4528
        XZ      21.7514     YZ       2.6940     ZZ    -163.1230

 Total job time:  56.44s(wall), 2682.88s(cpu)
        *  Thank you very much for using Q-Chem.  Have a nice day.  *
