 Q-Chem 5.0, Q-Chem, Inc., Pleasanton, CA (2017)
 Q-Chem 5.0.1 for Intel X86 EM64T Linux

User input:
--------------------------------------------------------------
$molecule
0  1
O -6.5254509656 1.4474222214 -0.109615875
C -5.4807089067 0.9582260329 -0.5925845343
C -4.9351317059 -0.4952813187 -0.3626793351
C -3.3707425345 -0.7034863784 -0.2204868216
C -2.5719175001 0.5698210665 0.2723900288
O -1.5245562341 0.139118133 1.1621541774
C -0.4916170641 1.1943163976 1.287043444
C 0.2835976259 1.4326190896 -0.0694740906
O 1.7151087809 1.6953121169 0.2095693379
C 2.5028845348 0.5364629438 -0.1024248266
C 3.8750275735 0.6649717853 0.6370640024
C 4.8638794519 -0.545278525 0.3914702343
C 4.4658712456 -1.4477828487 -0.8333497026
O 4.4582479848 -1.1347180726 -2.0423876829
O -4.7454702924 1.5484065242 -1.6685691428
O 4.118092941 -2.746639898 -0.3326344568
O 2.0762737508 -0.443606746 -0.7533304963
C 3.6666274298 -3.606873485 -1.4499331689
C 4.7686150892 1.9055177497 0.1931000181
C 5.7455558172 2.2313460375 1.3897807695
C 6.7230499713 1.0000909885 1.3154219585
C 6.1888761339 0.2544657567 0.0280665993
O 5.6740083076 1.3450162767 -0.8336870849
H 3.6353741061 0.748525362 1.7134297449
H 4.971212967 -1.1794014228 1.2883446717
H 4.1974204222 2.7650987916 -0.2079149701
H 6.2758493758 3.1790284614 1.2033116332
H 5.2184756748 2.3036467998 2.3545642977
H 7.7681213457 1.3178615456 1.1745422465
H 6.6660131543 0.3613592832 2.2113468
H 6.9447253378 -0.341873515 -0.5184514675
O -2.7371473573 1.7669447837 -0.0408189047
C -5.2767345452 2.8964588751 -1.9698127539
C -5.4758163446 -1.223479687 0.9409096497
C -5.5791603911 -2.7590022429 0.5995833925
C -4.0528348395 -3.1231863737 0.4685768977
C -3.3642708092 -1.7817306257 0.9458233893
O -4.3394622831 -1.1823211836 1.8911256427
H -5.2698198201 -1.0612588142 -1.2534563228
H -2.9125338849 -1.0617202157 -1.1608832824
H -5.1110797431 3.5933786583 -1.1231961629
H -6.3789624367 -0.7569574963 1.3813857912
H -6.0522220962 -3.3053365945 1.4314654168
H -6.1491222661 -2.9519296427 -0.3234090686
H -3.7737366626 -3.9578941491 1.1305915761
H -3.7687649817 -3.3840262984 -0.563878685
H -2.3769436886 -1.8989069806 1.4305151449
H -6.3619022458 2.8672904145 -2.1983614807
H -4.7180031455 3.2536348167 -2.8542242166
H 3.4242727387 -4.5888637464 -1.0035769754
H 4.4581736142 -3.7321781574 -2.2168585001
H 2.764595876 -3.1872479844 -1.9405652856
H 0.2065227693 0.5253756501 -0.7087491104
H -0.1299360289 2.3080520209 -0.6082450372
H 0.216691407 0.8136376631 2.0509930283
H -0.9350824491 2.1462133966 1.6491029928
$end

$rem
JOBTYPE                   OPT
METHOD                    B3LYP
DFT_D                     d3_op
BASIS                     STO-3G
GEOM_OPT_MAX_CYCLES       100
GEOM_OPT_TOL_GRADIENT     300
GEOM_OPT_TOL_DISPLACEMENT 1200
GEOM_OPT_TOL_ENERGY       100
SYMMETRY                  False
THRESH                    12
SCF_CONVERGENCE           8
MAX_SUB_FILE_NUM          128
MEM_STATIC                400
MEM_TOTAL                 4000
$end
--------------------------------------------------------------

   16   -1510.2690269846      5.57E-09 Convergence criterion met
 Total energy in the final basis set = -1510.26902698
   14   -1510.2731838595      1.60E-09 Convergence criterion met
 Total energy in the final basis set = -1510.27318386
   13   -1510.2759292618      4.80E-09 Convergence criterion met
 Total energy in the final basis set = -1510.27592926
   13   -1510.2783564713      4.19E-09 Convergence criterion met
 Total energy in the final basis set = -1510.27835647
   13   -1510.2804106810      3.22E-09 Convergence criterion met
 Total energy in the final basis set = -1510.28041068
   13   -1510.2822051059      4.95E-09 Convergence criterion met
 Total energy in the final basis set = -1510.28220511
   13   -1510.2836691364      7.79E-09 Convergence criterion met
 Total energy in the final basis set = -1510.28366914
   13   -1510.2846848601      6.46E-09 Convergence criterion met
   13   -1510.2887842432      2.84E-09 Convergence criterion met
 Total energy in the final basis set = -1510.28878424
   13   -1510.2887724654      3.07E-09 Convergence criterion met
 Total energy in the final basis set = -1510.28877247
   12   -1510.2888017377      5.42E-09 Convergence criterion met
 Total energy in the final basis set = -1510.28880174
   12   -1510.2888251924      2.89E-09 Convergence criterion met
 Total energy in the final basis set = -1510.28882519
   11   -1510.2888206192      7.34E-09 Convergence criterion met
 Total energy in the final basis set = -1510.28882062
   10   -1510.2888237536      6.38E-09 Convergence criterion met
 Total energy in the final basis set = -1510.28882375

             Standard Nuclear Orientation (Angstroms)
    I     Atom           X                Y                Z
 ----------------------------------------------------------------
    1      O      -5.0862185357     1.7999051437     1.1884531452
    2      C      -4.6162112530     1.2158382969     0.1902178105
    3      C      -5.0049533049    -0.2076014513    -0.3548941111
    4      C      -3.8251993156    -1.2651008147    -0.3027868936
    5      C      -2.5285217624    -0.6842031526     0.3478770176
    6      O      -1.3945782426    -1.3678526765    -0.1969287161
    7      C      -0.1398801700    -0.8121347529     0.3656069456
    8      C       0.2394517179     0.5430080841    -0.3462302180
    9      O       1.4746179315     1.1256440334     0.2319719607
   10      C       2.6294899628     0.4407102574    -0.2655387816
   11      C       3.9035443126     1.0766715626     0.3763739357
   12      C       5.1058831788     0.0501109257     0.4840147134
   13      C       4.7482263499    -1.4044674236     0.0059709961
   14      O       5.2402152872    -2.0287019255    -0.9567301558
   15      O      -3.6747844518     1.7970327754    -0.7253942121
   16      O       3.8024981130    -1.9552443982     0.9361616867
   17      O       2.5889023291    -0.4945368662    -1.0963303816
   18      C       3.3672244132    -3.2920941201     0.4754781856
   19      C       4.5379408728     2.1674360543    -0.5970371756
   20      C       5.6168627605     2.9908797925     0.2110876621
   21      C       6.8039661100     1.9592836069     0.2756808712
   22      C       6.1719208851     0.7237221352    -0.4752556514
   23      O       5.3407239650     1.3508232007    -1.5314749965
   24      H       3.6313790261     1.5106189559     1.3542886897
   25      H       5.4703335455    -0.0074237705     1.5257689017
   26      H       3.7954293464     2.7773789114    -1.1477305807
   27      H       5.8989946099     3.8996353715    -0.3439010978
   28      H       5.2517787676     3.2847902493     1.2082344449
   29      H       7.6888943693     2.3284932639    -0.2665779455
   30      H       7.0982630901     1.7122404878     1.3081273764
   31      H       6.8871738883     0.0080633801    -0.9251651380
   32      O      -2.4585125311     0.2159927639     1.2146738252
   33      C      -3.2221568542     3.1083562590    -0.2116492991
   34      C      -6.0829547254    -0.9035480351     0.5745527706
   35      C      -6.7418532254    -2.0896643580    -0.2310811338
   36      C      -5.5772638143    -3.1488632479    -0.2149452271
   37      C      -4.4788402131    -2.3847461644     0.6248310483
   38      O      -5.2628158716    -1.5955058064     1.5980431977
   39      H      -5.3711357264    -0.0916972944    -1.3911993589
   40      H      -3.5736646603    -1.6619741991    -1.3018352432
   41      H      -2.6797118100     2.9959245630     0.7499121787
   42      H      -6.7830641252    -0.1955744642     1.0589499158
   43      H      -7.6347021665    -2.4641974856     0.2943510762
   44      H      -7.0308982103    -1.7897566284    -1.2510175177
   45      H      -5.8782746057    -4.0741110034     0.3015534421
   46      H      -5.2215474584    -3.4080290229    -1.2250212154
   47      H      -3.7479670931    -3.0341770779     1.1449969532
   48      H      -4.0710203432     3.8053205181    -0.0577972373
   49      H      -2.5386355734     3.5196815908    -0.9772829158
   50      H       2.6872600028    -3.6806772103     1.2560558966
   51      H       4.2245131429    -3.9844525220     0.3504380669
   52      H       2.8248585814    -3.2249393057    -0.4904416288
   53      H       0.3540845482     0.3666135310    -1.4368900440
   54      H      -0.5593155803     1.2906847720    -0.1690366132
   55      H       0.6442896857    -1.5698704326     0.1688164945
   56      H      -0.2347737635    -0.6409004900     1.4589402032
 ----------------------------------------------------------------

    9   -1510.2888237698      8.48E-09 Convergence criterion met
 Total energy in the final basis set = -1510.28882377
 Final energy is   -1510.28882376980
 **  OPTIMIZATION CONVERGED  **

                    Orbital Energies (a.u.)
 --------------------------------------------------------------

 Alpha MOs
 -- Occupied --
-18.943 -18.943 -18.925 -18.925 -18.889 -18.889 -18.883 -18.883
-18.870 -18.870 -10.106 -10.106 -10.095 -10.095 -10.076 -10.075
-10.063 -10.063 -10.060 -10.060 -10.058 -10.058 -10.041 -10.041
-10.036 -10.036 -10.022 -10.022 -10.020 -10.020  -1.022  -1.018
 -1.004  -1.003  -0.971  -0.971  -0.945  -0.942  -0.930  -0.930
 -0.765  -0.764  -0.729  -0.724  -0.715  -0.707  -0.697  -0.660
 -0.659  -0.624  -0.598  -0.585  -0.548  -0.546  -0.539  -0.538
 -0.513  -0.511  -0.487  -0.474  -0.463  -0.456  -0.454  -0.453
 -0.438  -0.432  -0.431  -0.412  -0.410  -0.410  -0.407  -0.397
 -0.394  -0.389  -0.373  -0.367  -0.359  -0.357  -0.353  -0.352
 -0.345  -0.345  -0.338  -0.335  -0.334  -0.328  -0.327  -0.314
 -0.312  -0.306  -0.305  -0.305  -0.292  -0.282  -0.282  -0.279
 -0.273  -0.264  -0.253  -0.250  -0.248  -0.235  -0.235  -0.196
 -0.175  -0.171  -0.170  -0.162  -0.159  -0.148  -0.148  -0.145
 -0.145

          Ground-State Mulliken Net Atomic Charges

     Atom                 Charge (a.u.)
  ----------------------------------------
      1 O                    -0.210466
      2 C                     0.215365
      3 C                    -0.080029
      4 C                    -0.078750
      5 C                     0.212421
      6 O                    -0.169451
      7 C                    -0.052683
      8 C                    -0.052276
      9 O                    -0.169363
     10 C                     0.212739
     11 C                    -0.078702
     12 C                    -0.080060
     13 C                     0.215365
     14 O                    -0.210493
     15 O                    -0.178376
     16 O                    -0.178239
     17 O                    -0.211533
     18 C                    -0.129894
     19 C                     0.025932
     20 C                    -0.143723
     21 C                    -0.143884
     22 C                     0.024712
     23 O                    -0.187538
     24 H                     0.087839
     25 H                     0.084231
     26 H                     0.082816
     27 H                     0.078549
     28 H                     0.074214
     29 H                     0.078548
     30 H                     0.073541
     31 H                     0.090906
     32 O                    -0.211202
     33 C                    -0.129937
     34 C                     0.024752
     35 C                    -0.143909
     36 C                    -0.143673
     37 C                     0.025911
     38 O                    -0.187477
     39 H                     0.084092
     40 H                     0.087598
     41 H                     0.091602
     42 H                     0.090803
     43 H                     0.078512
     44 H                     0.073463
     45 H                     0.078548
     46 H                     0.074172
     47 H                     0.082922
     48 H                     0.088854
     49 H                     0.086369
     50 H                     0.086480
     51 H                     0.089089
     52 H                     0.091078
     53 H                     0.094053
     54 H                     0.095474
     55 H                     0.095920
     56 H                     0.094787
  ----------------------------------------
  Sum of atomic charges =     0.000000

                    Cartesian Multipole Moments
 -----------------------------------------------------------------
    Charge (ESU x 10^10)
                -0.0000
    Dipole Moment (Debye)
         X      -0.0389      Y       0.1115      Z      -0.0758
       Tot       0.1403
    Quadrupole Moments (Debye-Ang)
        XX    -157.8414     XY      13.1152     YY    -150.2168
        XZ      25.5608     YZ      -3.4715     ZZ    -169.3867

 Total job time:  99.26s(wall), 4721.49s(cpu)
        *  Thank you very much for using Q-Chem.  Have a nice day.  *
