 Q-Chem 5.0, Q-Chem, Inc., Pleasanton, CA (2017)
 Q-Chem 5.0.1 for Intel X86 EM64T Linux

User input:
--------------------------------------------------------------
$molecule
0  1
O -3.94934 -3.66094 2.70899
C -3.26408 -4.56952 2.26188
C -3.36658 -6.02376 2.66595
C -2.09215 -6.69516 3.20345
C -0.90361 -5.79095 3.44399
O -0.19755 -5.63459 2.28535
C -0.40944 -4.36244 1.66408
C -0.45395 -4.51895 0.14762
O 0.77727 -4.05532 -0.42859
C 0.85871 -4.14399 -1.77938
C 1.32217 -5.501 -2.25306
C 2.26199 -5.47656 -3.46732
C 2.87622 -4.13179 -3.80053
O 2.37202 -3.04378 -3.56268
O -3.11614 -4.49801 0.91057
O 3.9726 -4.16034 -4.60575
O 0.13677 -3.44953 -2.48287
C 4.63355 -3.03994 -5.06468
C 2.18706 -6.29521 -1.24035
C 2.11221 -7.78758 -1.55805
C 2.92321 -7.84375 -2.83203
C 3.38809 -6.38661 -2.92324
O 3.50899 -5.97733 -1.58488
H 0.39812 -6.08609 -2.46218
H 1.82384 -5.88854 -4.40262
H 1.9162 -6.146 -0.17413
H 2.67322 -8.32239 -0.75798
H 1.08582 -8.20788 -1.62751
H 3.79017 -8.52135 -2.66541
H 2.36416 -8.15637 -3.74047
H 4.32058 -6.33646 -3.52627
O -0.4574 -5.46503 4.53455
C -3.6617 -3.50457 0.10909
C -4.32776 -6.23315 3.85397
C -4.82386 -7.67887 3.88642
C -3.57822 -8.39149 4.36194
C -2.63575 -7.20077 4.56008
O -3.48924 -6.16426 4.97846
H -3.75762 -6.59007 1.78824
H -1.74498 -7.56058 2.59455
H -3.25582 -2.51051 0.39632
H -5.19872 -5.54208 3.84709
H -5.59953 -7.75477 4.68182
H -5.24457 -8.04473 2.92511
H -3.79802 -8.86235 5.34628
H -3.1672 -9.15216 3.66361
H -1.82583 -7.48279 5.26866
H -4.76869 -3.4999 0.20612
H -3.41172 -3.7063 -0.95296
H 5.4903 -3.35559 -5.6947
H 5.01926 -2.44677 -4.20778
H 3.94978 -2.41439 -5.67756
H -0.71595 -5.55802 -0.15364
H -1.20019 -3.81703 -0.2494
H 0.4998 -3.75906 1.87778
H -1.12903 -3.67001 2.12521
$end

$opt
CONSTRAINT
tors           1           2           3           4    -123.158
tors           3           4           5           6     -85.263
tors           4           5           6           7    +104.211
tors           5           6           7           8    -142.105
tors           6           7           8           9    -104.211
tors           7           8           9          10    -180.000
tors           8           9          10          11     -85.263
tors           9          10          11          12    -142.105
tors          11          12          13          14     -28.421
ENDCONSTRAINT
$end

$rem
JOBTYPE                   OPT
METHOD                    B3LYP
DFT_D                     d3_op
BASIS                     STO-3G
GEOM_OPT_MAX_CYCLES       100
GEOM_OPT_TOL_GRADIENT     300
GEOM_OPT_TOL_DISPLACEMENT 1200
GEOM_OPT_TOL_ENERGY       100
SYMMETRY                  False
THRESH                    12
SCF_CONVERGENCE           8
MAX_SUB_FILE_NUM          128
MEM_STATIC                400
MEM_TOTAL                 4000
$end
--------------------------------------------------------------

   15   -1510.0445017041      8.85E-09 Convergence criterion met
 Total energy in the final basis set = -1510.04450170
   14   -1510.1221023193      6.93E-09 Convergence criterion met
 Total energy in the final basis set = -1510.12210232
   14   -1510.1638238597      8.90E-09 Convergence criterion met
 Total energy in the final basis set = -1510.16382386
   14   -1510.1907500738      9.27E-09 Convergence criterion met
 Total energy in the final basis set = -1510.19075007
   14   -1510.2042090586      4.24E-09 Convergence criterion met
 Total energy in the final basis set = -1510.20420906
   13   -1510.2118285321      8.14E-09 Convergence criterion met
 Total energy in the final basis set = -1510.21182853
   13   -1510.2164058797      4.04E-09 Convergence criterion met
 Total energy in the final basis set = -1510.21640588
   13   -1510.2189756981      6.96E-09 Convergence criterion met
   11   -1510.2264756026      4.78E-09 Convergence criterion met
 Total energy in the final basis set = -1510.22647560
   10   -1510.2264859321      7.33E-09 Convergence criterion met
 Total energy in the final basis set = -1510.22648593
    9   -1510.2264923896      7.43E-09 Convergence criterion met
 Total energy in the final basis set = -1510.22649239
    9   -1510.2264993466      7.81E-09 Convergence criterion met
 Total energy in the final basis set = -1510.22649935
    9   -1510.2265024529      7.20E-09 Convergence criterion met
 Total energy in the final basis set = -1510.22650245
    9   -1510.2265036179      7.28E-09 Convergence criterion met
 Total energy in the final basis set = -1510.22650362

             Standard Nuclear Orientation (Angstroms)
    I     Atom           X                Y                Z
 ----------------------------------------------------------------
    1      O       5.3395265068    -2.5640651394    -0.7332884308
    2      C       4.2871827962    -1.9454091345    -0.4688325802
    3      C       3.8967222005    -0.5061887774    -0.9878891709
    4      C       3.5763187925     0.5795463566     0.1248781261
    5      C       2.8328056463     0.1230823418     1.4372982090
    6      O       1.3938092361     0.1244710661     1.2243748376
    7      C       0.8412302086    -1.2380798543     1.0515488315
    8      C      -0.2862053240    -1.1616114882    -0.0427679033
    9      O      -1.5922902373    -1.2267451411     0.6476170852
   10      C      -2.6413073407    -1.1552699335    -0.3747337389
   11      C      -3.0045251608     0.3321951374    -0.7710452169
   12      C      -4.5178855307     0.7016078514    -1.0653877949
   13      C      -5.6098726743    -0.2774183591    -0.4790286449
   14      O      -5.5408089045    -1.4990092353    -0.2346008440
   15      O       3.2708479500    -2.4983956890     0.3752002514
   16      O      -6.8217309802     0.4789745130    -0.3242029184
   17      O      -3.1369193333    -2.1858440871    -0.8687719319
   18      C      -7.8991485736    -0.3936224280     0.1935090743
   19      C      -2.6220959322     1.4176100211     0.3283468232
   20      C      -2.2608070546     2.7501147303    -0.4316533565
   21      C      -3.6808866874     3.1653422223    -0.9711427485
   22      C      -4.6068760271     2.0829358967    -0.2838597883
   23      O      -3.9078470350     1.7526327549     0.9806714476
   24      H      -2.4189263443     0.5283265588    -1.6904630428
   25      H      -4.7029151221     0.8146551595    -2.1498484852
   26      H      -1.8847302061     1.0532214177     1.0703688914
   27      H      -1.8646066526     3.4982173991     0.2738039015
   28      H      -1.5226012204     2.5942753635    -1.2342925454
   29      H      -3.9618778405     4.1789412854    -0.6443455047
   30      H      -3.7463416849     3.1202506913    -2.0703492152
   31      H      -5.6472726102     2.4018701401    -0.0829930025
   32      O       3.3702500738    -0.1288417702     2.5355490506
   33      C       3.6728075350    -3.8298063126     0.8810768572
   34      C       5.2587152160     0.1000241772    -1.5347161475
   35      C       5.0455816805     1.5480628310    -2.1331398107
   36      C       5.0188109631     2.4300601993    -0.8272421764
   37      C       4.9900498421     1.2993999097     0.2714679794
   38      O       5.9772302500     0.3289953799    -0.2553737329
   39      H       3.0846301176    -0.5793962960    -1.7347051824
   40      H       2.8702023011     1.2932182117    -0.3395426688
   41      H       4.6102236558    -3.7691337352     1.4698488286
   42      H       5.8282907860    -0.6036552999    -2.1719118442
   43      H       5.8838418723     1.8198094677    -2.7935756435
   44      H       4.1080751912     1.6189853682    -2.7083744282
   45      H       5.9360456488     3.0335610315    -0.7327170048
   46      H       4.1443354425     3.0979038150    -0.7751243588
   47      H       5.2541171899     1.6064028094     1.3020654103
   48      H       3.8187066164    -4.5501973880     0.0506466445
   49      H       2.8448785836    -4.1695664254     1.5300859068
   50      H      -8.8020866029     0.2414475724     0.2546472118
   51      H      -7.6555475991    -0.7884124013     1.2011149842
   52      H      -8.0928029665    -1.2521166405    -0.4816915912
   53      H      -0.1621059995    -0.2124144884    -0.6145643358
   54      H      -0.1772250545    -2.0098842002    -0.7575566785
   55      H       0.3895430202    -1.6047101093     2.0015176847
   56      H       1.6513546661    -1.9321209405     0.7291979678
 ----------------------------------------------------------------

    9   -1510.2265034957      3.62E-09 Convergence criterion met
 Total energy in the final basis set = -1510.22650350
 Final energy is   -1510.22650349568
 **  OPTIMIZATION CONVERGED  **

                    Orbital Energies (a.u.)
 --------------------------------------------------------------

 Alpha MOs
 -- Occupied --
-18.959 -18.929 -18.905 -18.901 -18.895 -18.894 -18.891 -18.889
-18.884 -18.876 -10.116 -10.108 -10.104 -10.097 -10.079 -10.067
-10.064 -10.062 -10.062 -10.056 -10.055 -10.052 -10.050 -10.039
-10.039 -10.035 -10.026 -10.024 -10.020 -10.019  -1.030  -1.010
 -1.003  -1.001  -0.975  -0.968  -0.952  -0.938  -0.932  -0.926
 -0.769  -0.761  -0.729  -0.721  -0.710  -0.705  -0.692  -0.676
 -0.659  -0.610  -0.599  -0.579  -0.550  -0.544  -0.542  -0.537
 -0.516  -0.514  -0.497  -0.473  -0.465  -0.460  -0.459  -0.446
 -0.437  -0.433  -0.427  -0.420  -0.413  -0.410  -0.408  -0.405
 -0.392  -0.381  -0.378  -0.372  -0.370  -0.364  -0.353  -0.351
 -0.346  -0.341  -0.337  -0.335  -0.331  -0.328  -0.323  -0.314
 -0.312  -0.310  -0.307  -0.305  -0.297  -0.296  -0.286  -0.276
 -0.275  -0.268  -0.253  -0.241  -0.239  -0.230  -0.229  -0.197
 -0.175  -0.173  -0.166  -0.158  -0.152  -0.151  -0.144  -0.142
 -0.138

          Ground-State Mulliken Net Atomic Charges

     Atom                 Charge (a.u.)
  ----------------------------------------
      1 O                    -0.201062
      2 C                     0.216261
      3 C                    -0.076896
      4 C                    -0.086260
      5 C                     0.221075
      6 O                    -0.208821
      7 C                    -0.066637
      8 C                    -0.048980
      9 O                    -0.195856
     10 C                     0.220740
     11 C                    -0.085212
     12 C                    -0.076268
     13 C                     0.210026
     14 O                    -0.203786
     15 O                    -0.173391
     16 O                    -0.174310
     17 O                    -0.166560
     18 C                    -0.128234
     19 C                     0.020537
     20 C                    -0.142633
     21 C                    -0.145926
     22 C                     0.022695
     23 O                    -0.192257
     24 H                     0.078325
     25 H                     0.084464
     26 H                     0.095689
     27 H                     0.078433
     28 H                     0.069246
     29 H                     0.077972
     30 H                     0.071688
     31 H                     0.092760
     32 O                    -0.181305
     33 C                    -0.125113
     34 C                     0.024732
     35 C                    -0.146138
     36 C                    -0.140851
     37 C                     0.022030
     38 O                    -0.188699
     39 H                     0.085042
     40 H                     0.083149
     41 H                     0.098469
     42 H                     0.091165
     43 H                     0.079894
     44 H                     0.072462
     45 H                     0.079142
     46 H                     0.073833
     47 H                     0.088639
     48 H                     0.093511
     49 H                     0.096663
     50 H                     0.089198
     51 H                     0.090182
     52 H                     0.089373
     53 H                     0.073136
     54 H                     0.073520
     55 H                     0.082482
     56 H                     0.108661
  ----------------------------------------
  Sum of atomic charges =     0.000000

                    Cartesian Multipole Moments
 -----------------------------------------------------------------
    Charge (ESU x 10^10)
                -0.0000
    Dipole Moment (Debye)
         X      -0.1696      Y       1.7831      Z      -3.5580
       Tot       3.9834
    Quadrupole Moments (Debye-Ang)
        XX    -167.2256     XY      -4.7773     YY    -155.9193
        XZ      -1.9135     YZ      -6.2863     ZZ    -161.3227

 Total job time:  85.10s(wall), 4054.78s(cpu)
        *  Thank you very much for using Q-Chem.  Have a nice day.  *
