 Q-Chem 5.0, Q-Chem, Inc., Pleasanton, CA (2017)
 Q-Chem 5.0.1 for Intel X86 EM64T Linux

User input:
--------------------------------------------------------------
$molecule
0  1
O 5.3395265068 -2.5640651394 -0.7332884308
C 4.2871827962 -1.9454091345 -0.4688325802
C 3.8967222005 -0.5061887774 -0.9878891709
C 3.5763187925 0.5795463566 0.1248781261
C 2.8328056463 0.1230823418 1.437298209
O 1.3938092361 0.1244710661 1.2243748376
C 0.8412302086 -1.2380798543 1.0515488315
C -0.286205324 -1.1616114882 -0.0427679033
O -1.5922902373 -1.2267451411 0.6476170852
C -2.6413073407 -1.1552699335 -0.3747337389
C -3.0045251608 0.3321951374 -0.7710452169
C -4.5178855307 0.7016078514 -1.0653877949
C -5.6098726743 -0.2774183591 -0.4790286449
O -5.5408089045 -1.4990092353 -0.234600844
O 3.27084795 -2.498395689 0.3752002514
O -6.8217309802 0.478974513 -0.3242029184
O -3.1369193333 -2.1858440871 -0.8687719319
C -7.8991485736 -0.393622428 0.1935090743
C -2.6220959322 1.4176100211 0.3283468232
C -2.2608070546 2.7501147303 -0.4316533565
C -3.6808866874 3.1653422223 -0.9711427485
C -4.6068760271 2.0829358967 -0.2838597883
O -3.907847035 1.7526327549 0.9806714476
H -2.4189263443 0.5283265588 -1.6904630428
H -4.7029151221 0.8146551595 -2.1498484852
H -1.8847302061 1.0532214177 1.0703688914
H -1.8646066526 3.4982173991 0.2738039015
H -1.5226012204 2.5942753635 -1.2342925454
H -3.9618778405 4.1789412854 -0.6443455047
H -3.7463416849 3.1202506913 -2.0703492152
H -5.6472726102 2.4018701401 -0.0829930025
O 3.3702500738 -0.1288417702 2.5355490506
C 3.672807535 -3.8298063126 0.8810768572
C 5.258715216 0.1000241772 -1.5347161475
C 5.0455816805 1.548062831 -2.1331398107
C 5.0188109631 2.4300601993 -0.8272421764
C 4.9900498421 1.2993999097 0.2714679794
O 5.97723025 0.3289953799 -0.2553737329
H 3.0846301176 -0.579396296 -1.7347051824
H 2.8702023011 1.2932182117 -0.3395426688
H 4.6102236558 -3.7691337352 1.4698488286
H 5.828290786 -0.6036552999 -2.1719118442
H 5.8838418723 1.8198094677 -2.7935756435
H 4.1080751912 1.6189853682 -2.7083744282
H 5.9360456488 3.0335610315 -0.7327170048
H 4.1443354425 3.097903815 -0.7751243588
H 5.2541171899 1.6064028094 1.3020654103
H 3.8187066164 -4.550197388 0.0506466445
H 2.8448785836 -4.1695664254 1.5300859068
H -8.8020866029 0.2414475724 0.2546472118
H -7.6555475991 -0.7884124013 1.2011149842
H -8.0928029665 -1.2521166405 -0.4816915912
H -0.1621059995 -0.2124144884 -0.6145643358
H -0.1772250545 -2.0098842002 -0.7575566785
H 0.3895430202 -1.6047101093 2.0015176847
H 1.6513546661 -1.9321209405 0.7291979678
$end

$rem
JOBTYPE                   OPT
METHOD                    B3LYP
DFT_D                     d3_op
BASIS                     STO-3G
GEOM_OPT_MAX_CYCLES       100
GEOM_OPT_TOL_GRADIENT     300
GEOM_OPT_TOL_DISPLACEMENT 1200
GEOM_OPT_TOL_ENERGY       100
SYMMETRY                  False
THRESH                    12
SCF_CONVERGENCE           8
MAX_SUB_FILE_NUM          128
MEM_STATIC                400
MEM_TOTAL                 4000
$end
--------------------------------------------------------------

   16   -1510.2265360670      4.17E-09 Convergence criterion met
 Total energy in the final basis set = -1510.22653607
   14   -1510.2272233554      2.22E-09 Convergence criterion met
 Total energy in the final basis set = -1510.22722336
   14   -1510.2315220093      8.06E-09 Convergence criterion met
 Total energy in the final basis set = -1510.23152201
   13   -1510.2357913220      9.96E-09 Convergence criterion met
 Total energy in the final basis set = -1510.23579132
   14   -1510.2402412774      9.21E-09 Convergence criterion met
 Total energy in the final basis set = -1510.24024128
   15   -1510.2312674797      5.25E-09 Convergence criterion met
 Total energy in the final basis set = -1510.23126748
   14   -1510.2409707571      7.79E-09 Convergence criterion met
 Total energy in the final basis set = -1510.24097076
   14   -1510.2488381691      5.60E-09 Convergence criterion met
   12   -1510.2871903716      9.99E-09 Convergence criterion met
 Total energy in the final basis set = -1510.28719037
   12   -1510.2872411916      2.45E-09 Convergence criterion met
 Total energy in the final basis set = -1510.28724119
   11   -1510.2872551212      4.52E-09 Convergence criterion met
 Total energy in the final basis set = -1510.28725512
   10   -1510.2872542173      6.75E-09 Convergence criterion met
 Total energy in the final basis set = -1510.28725422
    9   -1510.2872561079      9.00E-09 Convergence criterion met
 Total energy in the final basis set = -1510.28725611
    9   -1510.2872577125      9.37E-09 Convergence criterion met
 Total energy in the final basis set = -1510.28725771

             Standard Nuclear Orientation (Angstroms)
    I     Atom           X                Y                Z
 ----------------------------------------------------------------
    1      O      -3.9199888009     0.3434717003     1.9820460705
    2      C      -2.8848400371     0.1817650267     1.3039871960
    3      C      -2.1508428049     1.2340356932     0.4060864925
    4      C      -1.7801862310     0.7187480440    -1.0499296994
    5      C      -1.9140390454    -0.8279364707    -1.2426496573
    6      O      -0.6024884945    -1.3614784276    -0.9935478611
    7      C      -0.5576451290    -2.8348935225    -1.0532309015
    8      C       0.9000620757    -3.1846397113    -0.5731037556
    9      O       1.8688290539    -2.3704275364    -1.3323612366
   10      C       1.9126001200    -0.9898452662    -0.8947141957
   11      C       2.0808144806    -0.7096610448     0.6552961223
   12      C       2.9433844452     0.6009915233     0.9182075702
   13      C       3.3960371111     1.3721021135    -0.3794637410
   14      O       2.9769497281     2.4781741582    -0.7818104627
   15      O      -2.1561712331    -1.0608371319     1.2681891937
   16      O       4.5077723070     0.6629545946    -0.9476160218
   17      O       2.0366553747    -0.1041027650    -1.7701303944
   18      C       4.9192244601     1.3126116867    -2.2114871056
   19      C       0.7321311584    -0.3210045114     1.4016326437
   20      C       0.9791986092    -0.4031577888     2.9589117287
   21      C       1.8236686003     0.9003694877     3.2131316496
   22      C       1.9273695629     1.4825336368     1.7513811978
   23      O       0.6201199969     1.1326425987     1.1490400143
   24      H       2.5592263554    -1.5889731737     1.1218981419
   25      H       3.8481453621     0.3505843968     1.5010214334
   26      H      -0.1860215320    -0.8327861649     1.0420990787
   27      H       0.0183276094    -0.3737145557     3.4973055975
   28      H       1.5154939078    -1.3208744350     3.2484007479
   29      H       1.2921484170     1.6038482122     3.8736463547
   30      H       2.8145092833     0.6892782049     3.6457103409
   31      H       2.1075416802     2.5721501238     1.6714873487
   32      O      -2.8995246270    -1.5185107734    -1.5709004515
   33      C      -2.8523141147    -2.0972498328     2.0609926284
   34      C      -3.1519034117     2.4031856181     0.0543922829
   35      C      -2.3568235067     3.5869898200    -0.6246436992
   36      C      -2.1420263244     3.0229090408    -2.0791193984
   37      C      -2.7742469890     1.5836634754    -1.9367742451
   38      O      -3.9423662758     1.8157787299    -1.0564487344
   39      H      -1.2137741415     1.5492145039     0.9193527730
   40      H      -0.7263948350     0.9733777443    -1.2645561744
   41      H      -3.7942329229    -2.4124415884     1.5669331574
   42      H      -3.8183898037     2.6851024537     0.8924946372
   43      H      -2.9613876541     4.5076294221    -0.6315963061
   44      H      -1.4051560695     3.7899794542    -0.1079076209
   45      H      -2.6975020666     3.6126581703    -2.8258821152
   46      H      -1.0803845348     2.9879238523    -2.3711806226
   47      H      -3.0906588535     1.1010160465    -2.8816890580
   48      H      -3.0911873355    -1.7382482302     3.0823098407
   49      H      -2.1607416496    -2.9578932050     2.1194198954
   50      H       5.8116786367     0.7638961739    -2.5644915523
   51      H       5.1737231850     2.3815185639    -2.0596802257
   52      H       4.1163091325     1.2449558371    -2.9742634658
   53      H       0.9812085528    -3.0363784693     0.5243114915
   54      H       1.1337439398    -4.2436601671    -0.8064835785
   55      H      -0.7244558521    -3.1955158098    -2.0913363148
   56      H      -1.3217499979    -3.2952914696    -0.3896731159
 ----------------------------------------------------------------

    9   -1510.2872586750      7.68E-09 Convergence criterion met
 Total energy in the final basis set = -1510.28725867
 Final energy is   -1510.28725867497
 **  OPTIMIZATION CONVERGED  **

                    Orbital Energies (a.u.)
 --------------------------------------------------------------

 Alpha MOs
 -- Occupied --
-18.943 -18.935 -18.927 -18.919 -18.896 -18.888 -18.883 -18.877
-18.877 -18.859 -10.107 -10.103 -10.103 -10.090 -10.086 -10.080
-10.074 -10.062 -10.054 -10.053 -10.051 -10.050 -10.040 -10.035
-10.028 -10.024 -10.024 -10.023 -10.011 -10.010  -1.022  -1.015
 -1.005  -0.995  -0.977  -0.961  -0.947  -0.943  -0.935  -0.924
 -0.765  -0.756  -0.725  -0.722  -0.712  -0.706  -0.694  -0.669
 -0.654  -0.616  -0.600  -0.583  -0.548  -0.542  -0.541  -0.531
 -0.517  -0.506  -0.486  -0.480  -0.463  -0.460  -0.456  -0.442
 -0.437  -0.429  -0.422  -0.420  -0.416  -0.408  -0.402  -0.401
 -0.399  -0.392  -0.379  -0.370  -0.361  -0.354  -0.352  -0.348
 -0.348  -0.341  -0.334  -0.330  -0.327  -0.324  -0.322  -0.313
 -0.308  -0.302  -0.301  -0.297  -0.295  -0.283  -0.281  -0.276
 -0.272  -0.255  -0.253  -0.245  -0.243  -0.236  -0.222  -0.185
 -0.181  -0.174  -0.164  -0.161  -0.156  -0.152  -0.150  -0.141
 -0.136

          Ground-State Mulliken Net Atomic Charges

     Atom                 Charge (a.u.)
  ----------------------------------------
      1 O                    -0.206462
      2 C                     0.212628
      3 C                    -0.091031
      4 C                    -0.082817
      5 C                     0.217877
      6 O                    -0.179448
      7 C                    -0.047700
      8 C                    -0.044886
      9 O                    -0.175994
     10 C                     0.225919
     11 C                    -0.083879
     12 C                    -0.080074
     13 C                     0.215929
     14 O                    -0.219320
     15 O                    -0.178214
     16 O                    -0.177270
     17 O                    -0.192276
     18 C                    -0.128625
     19 C                     0.010488
     20 C                    -0.145981
     21 C                    -0.144741
     22 C                     0.026075
     23 O                    -0.194887
     24 H                     0.078362
     25 H                     0.083262
     26 H                     0.107542
     27 H                     0.075690
     28 H                     0.070513
     29 H                     0.077594
     30 H                     0.074332
     31 H                     0.090085
     32 O                    -0.212527
     33 C                    -0.128911
     34 C                     0.022716
     35 C                    -0.144439
     36 C                    -0.142510
     37 C                     0.024122
     38 O                    -0.191184
     39 H                     0.113674
     40 H                     0.096292
     41 H                     0.094126
     42 H                     0.087365
     43 H                     0.076102
     44 H                     0.077528
     45 H                     0.076142
     46 H                     0.078414
     47 H                     0.084059
     48 H                     0.093581
     49 H                     0.085818
     50 H                     0.086518
     51 H                     0.086511
     52 H                     0.092895
     53 H                     0.080981
     54 H                     0.092085
     55 H                     0.090757
     56 H                     0.087191
  ----------------------------------------
  Sum of atomic charges =    -0.000000

                    Cartesian Multipole Moments
 -----------------------------------------------------------------
    Charge (ESU x 10^10)
                -0.0000
    Dipole Moment (Debye)
         X       2.5051      Y      -2.5263      Z       2.9481
       Tot       4.6205
    Quadrupole Moments (Debye-Ang)
        XX    -173.9763     XY       1.6637     YY    -150.8552
        XZ       2.3608     YZ      -4.1927     ZZ    -156.0974

 Total job time:  212.01s(wall), 10106.00s(cpu)
        *  Thank you very much for using Q-Chem.  Have a nice day.  *
