 Q-Chem 5.0, Q-Chem, Inc., Pleasanton, CA (2017)
 Q-Chem 5.0.1 for Intel X86 EM64T Linux

User input:
--------------------------------------------------------------
$molecule
0  1
O 0.3271911978 1.1020569956 -0.0944521628
C -0.4136137851 0.8548472852 0.846346207
C -1.3777710093 -0.308634603 0.919171583
C -2.7653762313 -0.1119008801 0.2869611971
C -2.972207068 1.1613980375 -0.50298802
O -1.7827014145 1.5806390714 -1.0271553314
C -1.4692407423 0.9608218319 -2.2788798729
C 0.0214905739 1.0936523898 -2.5724601867
O 0.6806287213 -0.1602089683 -2.3352986787
C 0.3712719598 -0.7691665862 -1.1637152354
C 0.4266410873 0.1681005767 0.0191265517
C 1.3737981596 -0.2677455404 1.1466103016
C 2.3716988221 -1.3509847754 0.7895621334
O 3.3961772148 -1.6025092157 1.4074213657
O -0.86972597 1.9002951311 1.6286041974
O 2.5396803653 -1.8556758927 -0.4605879827
O 0.4663873247 -2.0693820991 -1.2153607837
C 3.4972672551 -2.7590061125 -0.8952939521
C 2.3470777795 0.9388508429 -0.6341073097
C 2.3628922161 2.466567147 -0.2957696426
C 2.3268042347 2.3538609768 1.2431924837
C 2.5628447829 0.8527006553 1.3740939975
O 3.3776052261 0.681641367 0.2544524012
H -0.4714767759 -0.4610615299 -0.8313219466
H 0.9172671102 -0.5810834226 2.124589944
H 2.6534070467 0.7867546342 -1.6901408515
H 3.3505652428 2.8741971733 -0.6211436367
H 1.5896926733 3.136069332 -0.7180831689
H 3.1847348392 2.9432502922 1.6363897076
H 1.4422199509 2.6315043634 1.8107240897
H 3.1120372762 0.6435496506 2.3211622442
O -3.8417684725 1.971040435 -0.2161395546
C -0.9015461442 3.2480633862 1.3080485365
C -1.3771816431 -1.9023370627 0.8285704401
C -2.4342926665 -2.560341909 1.7436728493
C -3.7001090565 -2.3459772063 0.9249765528
C -3.1488308419 -1.510378061 -0.2311671374
O -1.9270139284 -2.1584719445 -0.4512029923
H -1.5180606509 -0.2504820776 2.0252173806
H -3.470232273 0.0932810386 1.129273204
H -1.9571810399 3.5879355852 1.3050961092
H -0.3903233752 -2.352876414 1.0600625746
H -2.2540125124 -3.6563383168 1.8130425147
H -2.4500282422 -2.1284894024 2.7670323034
H -4.0217153413 -3.3238872004 0.4998087015
H -4.552409909 -1.8974429085 1.4795353926
H -3.8550306364 -1.480120826 -1.0880869001
H -0.4716317214 3.4542040404 0.3075925225
H -0.3675195284 3.8390450565 2.0796125854
H 3.3348260304 -2.968249525 -1.9723629682
H 3.4069165882 -3.710203599 -0.3286379546
H 4.5161933354 -2.3356904074 -0.766981162
H 0.0981780378 1.2010781137 -3.675917343
H 0.5140418792 2.0199046452 -2.2374703677
H -1.9858445286 1.6000382595 -3.0293281982
H -1.8960016898 -0.0546279517 -2.4576174618
$end

$rem
JOBTYPE                   OPT
METHOD                    B3LYP
DFT_D                     d3_op
BASIS                     STO-3G
GEOM_OPT_MAX_CYCLES       100
GEOM_OPT_TOL_GRADIENT     300
GEOM_OPT_TOL_DISPLACEMENT 1200
GEOM_OPT_TOL_ENERGY       100
SYMMETRY                  False
THRESH                    12
SCF_CONVERGENCE           8
MAX_SUB_FILE_NUM          128
MEM_STATIC                400
MEM_TOTAL                 4000
$end
--------------------------------------------------------------

   30   -1508.7756616968      3.02E-09 Convergence criterion met
 Total energy in the final basis set = -1508.77566170
   23   -1509.1350616067      2.47E-09 Convergence criterion met
 Total energy in the final basis set = -1509.13506161
   20   -1509.3361614468      2.05E-09 Convergence criterion met
 Total energy in the final basis set = -1509.33616145
   17   -1509.4936406221      7.12E-09 Convergence criterion met
 Total energy in the final basis set = -1509.49364062
   19   -1509.6020131260      2.01E-09 Convergence criterion met
 Total energy in the final basis set = -1509.60201313
   19   -1509.6860114738      2.63E-09 Convergence criterion met
 Total energy in the final basis set = -1509.68601147
   18   -1509.7476960158      8.98E-09 Convergence criterion met
 Total energy in the final basis set = -1509.74769602
   16   -1509.7942331231      5.15E-09 Convergence criterion met
   11   -1510.1870918416      6.00E-09 Convergence criterion met
 Total energy in the final basis set = -1510.18709184
   10   -1510.1870955323      6.78E-09 Convergence criterion met
 Total energy in the final basis set = -1510.18709553
   10   -1510.1870929712      3.31E-09 Convergence criterion met
 Total energy in the final basis set = -1510.18709297
   10   -1510.1870898614      4.45E-09 Convergence criterion met
 Total energy in the final basis set = -1510.18708986
   10   -1510.1870847424      5.05E-09 Convergence criterion met
 Total energy in the final basis set = -1510.18708474
    9   -1510.1870872800      7.72E-09 Convergence criterion met
 Total energy in the final basis set = -1510.18708728

             Standard Nuclear Orientation (Angstroms)
    I     Atom           X                Y                Z
 ----------------------------------------------------------------
    1      O       0.0910909916     1.5839113347     0.3472390426
    2      C      -1.1510378943     1.1488634992     0.6497121583
    3      C      -1.7961217200    -0.1766245743     1.2312102221
    4      C      -3.2738280104    -0.2467372654     0.6238710353
    5      C      -3.3585538570     0.5757894414    -0.6903844699
    6      O      -1.9660466624     0.7464160313    -1.1071327355
    7      C      -1.7836960061     1.2259542925    -2.5059681050
    8      C      -0.2609109609     1.5445422013    -2.7565528368
    9      O       0.6667031211     0.4068674654    -2.7817679007
   10      C       0.6861070546    -0.2609398828    -1.4464087666
   11      C       1.1777582296     0.7278095072    -0.2563884902
   12      C       1.9590625325    -0.1829534432     0.7474836985
   13      C       1.9824944852    -1.6558742951     0.0324615070
   14      O       1.1459295985    -2.5582897719     0.5297612268
   15      O      -1.9805851122     2.2129722835     1.0345859122
   16      O       3.4136167807    -2.0661749954    -0.0243838582
   17      O       1.6875977553    -1.2710510048    -1.5084410225
   18      C       3.4577349389    -3.5278475183    -0.1825831909
   19      C       2.3309713768     1.7418327466    -0.7126970950
   20      C       2.5588709353     2.7911719108     0.4460128158
   21      C       3.2786375906     1.8962014723     1.5232571215
   22      C       3.3683140773     0.5092405916     0.7658118607
   23      O       3.5410344277     0.9034210380    -0.6577599138
   24      H      -0.3527747178    -0.6310921067    -1.2053715222
   25      H       1.4814077821    -0.2488857668     1.7405513825
   26      H       2.2028529983     2.1574842503    -1.7292507140
   27      H       3.2105975341     3.6049985920     0.0908096343
   28      H       1.6154464202     3.2254079052     0.8108806104
   29      H       4.2831051381     2.2798812777     1.7615329581
   30      H       2.7001449708     1.8165236341     2.4579777367
   31      H       4.1879892354    -0.1661951140     1.0760434278
   32      O      -4.3125119213     0.9603061937    -1.3861787111
   33      C      -1.4782732125     3.5442294588     0.5977293465
   34      C      -1.2231249807    -1.6414422135     0.9057084679
   35      C      -1.9128629811    -2.5657551561     1.9922889653
   36      C      -3.4068317756    -2.6513361414     1.5060087833
   37      C      -3.3318228133    -1.7848457937     0.1954799678
   38      O      -1.9709881675    -1.9990190845    -0.3290640386
   39      H      -1.8311484530    -0.0012817180     2.3238166392
   40      H      -4.0704816868     0.0510401760     1.3275826005
   41      H      -2.3082957329     4.2433144478     0.8096940311
   42      H      -0.0118692935    -1.9883739688     0.7382017441
   43      H      -1.4387144696    -3.5599507393     1.9719738364
   44      H      -1.8256063786    -2.1655724197     3.0151810744
   45      H      -3.7055943177    -3.6832601927     1.2619672056
   46      H      -4.1245425038    -2.2389228780     2.2336274507
   47      H      -4.1058002518    -2.0007337012    -0.5680425445
   48      H      -1.2449845472     3.5496493875    -0.4851488143
   49      H      -0.5787834307     3.8409713396     1.1721093279
   50      H       4.3124361563    -3.9184762192     0.4038462591
   51      H       3.5913821516    -3.8187203877    -1.2469157741
   52      H       2.4997709738    -3.9452750206     0.1982080973
   53      H      -0.1987726825     1.9949691695    -3.7693629737
   54      H       0.0379697395     2.3278191174    -2.0233649123
   55      H      -2.4011757125     2.1358746819    -2.6758649168
   56      H      -2.1365970087     0.4202418023    -3.1853135717
 ----------------------------------------------------------------

    9   -1510.1870877044      4.85E-09 Convergence criterion met
 Total energy in the final basis set = -1510.18708770
 Final energy is   -1510.18708770440
 **  OPTIMIZATION CONVERGED  **

                    Orbital Energies (a.u.)
 --------------------------------------------------------------

 Alpha MOs
 -- Occupied --
-19.042 -19.035 -19.011 -18.948 -18.899 -18.885 -18.865 -18.820
-18.810 -18.725 -10.217 -10.155 -10.129 -10.113 -10.088 -10.081
-10.072 -10.064 -10.063 -10.063 -10.059 -10.046 -10.044 -10.025
-10.017 -10.010 -10.001  -9.990  -9.985  -9.968  -1.118  -1.067
 -1.039  -1.000  -0.971  -0.960  -0.953  -0.921  -0.866  -0.826
 -0.795  -0.759  -0.739  -0.736  -0.716  -0.709  -0.698  -0.695
 -0.630  -0.628  -0.602  -0.586  -0.577  -0.560  -0.554  -0.537
 -0.530  -0.526  -0.507  -0.495  -0.489  -0.477  -0.477  -0.467
 -0.459  -0.455  -0.441  -0.436  -0.431  -0.421  -0.413  -0.408
 -0.402  -0.398  -0.389  -0.378  -0.375  -0.366  -0.363  -0.361
 -0.344  -0.341  -0.333  -0.331  -0.330  -0.323  -0.321  -0.317
 -0.314  -0.311  -0.305  -0.299  -0.295  -0.292  -0.282  -0.276
 -0.268  -0.258  -0.242  -0.236  -0.226  -0.219  -0.209  -0.202
 -0.192  -0.166  -0.150  -0.139  -0.131  -0.094  -0.084  -0.059
 -0.055

          Ground-State Mulliken Net Atomic Charges

     Atom                 Charge (a.u.)
  ----------------------------------------
      1 O                    -0.155459
      2 C                     0.286228
      3 C                    -0.075834
      4 C                    -0.080756
      5 C                     0.228806
      6 O                    -0.155154
      7 C                    -0.049893
      8 C                    -0.052480
      9 O                    -0.178973
     10 C                     0.093852
     11 C                     0.077796
     12 C                    -0.096922
     13 C                     0.232202
     14 O                    -0.336708
     15 O                    -0.144163
     16 O                    -0.213527
     17 O                    -0.216273
     18 C                    -0.140455
     19 C                     0.019141
     20 C                    -0.147213
     21 C                    -0.146402
     22 C                     0.024509
     23 O                    -0.174446
     24 H                     0.074206
     25 H                     0.070658
     26 H                     0.087216
     27 H                     0.078307
     28 H                     0.064349
     29 H                     0.077862
     30 H                     0.069052
     31 H                     0.101945
     32 O                    -0.177414
     33 C                    -0.124116
     34 C                    -0.045533
     35 C                    -0.151681
     36 C                    -0.146619
     37 C                     0.024745
     38 O                    -0.203579
     39 H                     0.093033
     40 H                     0.092950
     41 H                     0.111740
     42 H                     0.159180
     43 H                     0.080006
     44 H                     0.059138
     45 H                     0.077405
     46 H                     0.065541
     47 H                     0.077824
     48 H                     0.100050
     49 H                     0.108175
     50 H                     0.059420
     51 H                     0.061056
     52 H                     0.095060
     53 H                     0.093862
     54 H                     0.064570
     55 H                     0.093863
     56 H                     0.109852
  ----------------------------------------
  Sum of atomic charges =    -0.000000

                    Cartesian Multipole Moments
 -----------------------------------------------------------------
    Charge (ESU x 10^10)
                -0.0000
    Dipole Moment (Debye)
         X      -6.5602      Y       9.2715      Z       2.5181
       Tot      11.6335
    Quadrupole Moments (Debye-Ang)
        XX    -170.3161     XY       3.8859     YY    -155.5839
        XZ       5.2503     YZ      -3.0960     ZZ    -158.7014

 Total job time:  269.92s(wall), 12864.17s(cpu)
        *  Thank you very much for using Q-Chem.  Have a nice day.  *
