 Q-Chem 5.0, Q-Chem, Inc., Pleasanton, CA (2017)
 Q-Chem 5.0.1 for Intel X86 EM64T Linux

User input:
--------------------------------------------------------------
$molecule
0  1
O 1.0829270223 0.9004202212 -0.1390125987
C 1.9312852125 1.2732309345 0.7040453125
C 3.4229498752 0.8196574568 0.8602562078
C 3.8280650712 -0.643206423 0.3830642677
C 2.7087738882 -1.7386957919 0.2478330834
O 2.0571223251 -1.6823158008 -1.0229829842
C 0.7438600598 -2.3881385522 -0.9555904806
C -0.2349853189 -1.6073904057 0.0048773321
O -1.6568500588 -1.5542256754 -0.4035746605
C -1.8098288681 -0.7814064694 -1.6138125691
C -2.8164498926 0.4144330575 -1.4118055078
C -3.9385866407 0.1970433237 -0.3288093687
C -4.3697683577 -1.2934300397 -0.1105644334
O -4.0566207818 -2.29301207 -0.7911784928
O 1.6664292107 2.2356335829 1.7219841774
O -5.2284814107 -1.3378419805 1.0357393602
O -1.1824296365 -0.9957274399 -2.6755597419
C -5.6679997487 -2.7302158648 1.2827331708
C -1.9572673797 1.5381622263 -0.6841294088
C -2.8113643461 2.8561184593 -0.5029198798
C -3.6964316526 2.4908857132 0.7489183028
C -3.327677509 0.9683575664 0.928487318
O -1.8634448172 0.9766614894 0.6878305459
H -3.2126158016 0.7393013259 -2.3895134256
H -4.8528954465 0.7321667164 -0.6484944168
H -0.9371032894 1.6782019232 -1.0935140931
H -2.1588736913 3.720825706 -0.3043932748
H -3.4167850268 3.0713461363 -1.3980800923
H -3.3889138702 3.065287574 1.6377806996
H -4.772869499 2.6497530707 0.5775112944
H -3.5661277369 0.5201758864 1.9122979585
O 2.3922914231 -2.5382755168 1.1595593448
C 0.2857502827 2.7731032223 1.6051618513
C 4.272458893 1.6828541222 -0.1803478377
C 5.8169855807 1.4990761066 0.1023406082
C 6.0870699392 0.0958720819 -0.5565102187
C 4.6204078347 -0.3210939401 -0.9632709053
O 4.0396819767 0.9523060985 -1.4448188216
H 3.7316798652 1.0036769384 1.9043117805
H 4.5286391757 -1.0509932256 1.1348586664
H -0.4849459477 1.9812760796 1.418415273
H 3.9370499916 2.734582618 -0.2698605631
H 6.396680078 2.2981072724 -0.3862370306
H 6.0400536851 1.5118895224 1.1813536524
H 6.7205120996 0.1890712544 -1.4533630753
H 6.5548012188 -0.6223809534 0.1353248518
H 4.5403460103 -1.1018454406 -1.7438817656
H 0.2343149131 3.517006483 0.7837467367
H 0.0854358749 3.2860699481 2.5634374448
H -6.2896401858 -2.6968568803 2.1963566946
H -4.8050734979 -3.4081436162 1.4436826379
H -6.2710951909 -3.124187236 0.439061794
H -0.2460904592 -2.0817913542 1.0058217323
H 0.1711403579 -0.5706545834 0.090936923
H 0.8725332564 -3.4454018647 -0.6434171536
H 0.3410415813 -2.3339035674 -1.9887274882
$end

$rem
JOBTYPE                   OPT
METHOD                    B3LYP
DFT_D                     d3_op
BASIS                     STO-3G
GEOM_OPT_MAX_CYCLES       100
GEOM_OPT_TOL_GRADIENT     300
GEOM_OPT_TOL_DISPLACEMENT 1200
GEOM_OPT_TOL_ENERGY       100
SYMMETRY                  False
THRESH                    12
SCF_CONVERGENCE           8
MAX_SUB_FILE_NUM          128
MEM_STATIC                400
MEM_TOTAL                 4000
$end
--------------------------------------------------------------

   16   -1510.2703452395      5.31E-09 Convergence criterion met
 Total energy in the final basis set = -1510.27034524
   14   -1510.2659830686      6.18E-09 Convergence criterion met
 Total energy in the final basis set = -1510.26598307
   14   -1510.2701513886      5.09E-09 Convergence criterion met
 Total energy in the final basis set = -1510.27015139
   14   -1510.2609351832      7.92E-09 Convergence criterion met
 Total energy in the final basis set = -1510.26093518
   14   -1510.2611452368      7.42E-09 Convergence criterion met
 Total energy in the final basis set = -1510.26114524
   14   -1510.2669400193      3.73E-09 Convergence criterion met
 Total energy in the final basis set = -1510.26694002
   14   -1510.2704228150      3.16E-09 Convergence criterion met
 Total energy in the final basis set = -1510.27042281
   13   -1510.2724480069      5.41E-09 Convergence criterion met
   11   -1510.2798373658      9.02E-09 Convergence criterion met
 Total energy in the final basis set = -1510.27983737
   11   -1510.2798249196      8.36E-09 Convergence criterion met
 Total energy in the final basis set = -1510.27982492
   11   -1510.2798354300      5.60E-09 Convergence criterion met
 Total energy in the final basis set = -1510.27983543
   11   -1510.2798360667      4.78E-09 Convergence criterion met
 Total energy in the final basis set = -1510.27983607
   11   -1510.2798339240      5.06E-09 Convergence criterion met
 Total energy in the final basis set = -1510.27983392
    9   -1510.2798324743      8.97E-09 Convergence criterion met
 Total energy in the final basis set = -1510.27983247

             Standard Nuclear Orientation (Angstroms)
    I     Atom           X                Y                Z
 ----------------------------------------------------------------
    1      O      -0.9439499273     0.7737776536    -0.0121764757
    2      C      -1.8113479478     1.1578964740    -0.8296966914
    3      C      -3.2640117741     0.5937095666    -1.0081565762
    4      C      -3.4003830556    -0.9877613676    -0.9032525075
    5      C      -2.0312806114    -1.7495964200    -0.8205042157
    6      O      -1.6346340243    -1.9004617383     0.5424367623
    7      C      -0.2823176132    -2.5118414857     0.6274689492
    8      C       0.8102723398    -1.6364226064    -0.1118624992
    9      O       2.1194482649    -1.6017962391     0.5840408418
   10      C       1.9979321244    -0.8738899797     1.8319058600
   11      C       2.7290758163     0.5181324888     1.7759880048
   12      C       3.8462854340     0.6618970780     0.6563623024
   13      C       4.2194942522    -0.6895526344    -0.0666915556
   14      O       4.9153079498    -1.6097345952     0.4147524121
   15      O      -1.6528198245     2.2478899681    -1.7324344522
   16      O       3.7598858973    -0.6520476708    -1.4263437517
   17      O       1.3677746566    -1.3100091932     2.8200393178
   18      C       4.0812160565    -1.9319497792    -2.0932960680
   19      C       1.6693701976     1.5972378857     1.2721258497
   20      C       2.2445805858     3.0452528705     1.5166846429
   21      C       3.3102014667     3.1556111754     0.3631949176
   22      C       3.1854365030     1.7334375805    -0.3059225218
   23      O       1.7361514913     1.4319831274    -0.1985879097
   24      H       3.1096479770     0.7674433379     2.7823400545
   25      H       4.7751076974     1.0552284186     1.1082562583
   26      H       0.6305087799     1.4283034790     1.6172002024
   27      H       1.4474236326     3.7976678686     1.4073089435
   28      H       2.6900209973     3.1456480542     2.5191504901
   29      H       3.0434179073     3.9457971452    -0.3569148383
   30      H       4.3273342615     3.3484819317     0.7393984515
   31      H       3.5140493107     1.6633101463    -1.3599220485
   32      O      -1.3753890299    -2.1759414292    -1.7978945849
   33      C      -0.3463114458     2.9338790543    -1.5492687426
   34      C      -4.1725972330     1.0442701537     0.2204658780
   35      C      -5.6866772785     0.7983028327    -0.1591395129
   36      C      -5.7899041660    -0.7642314917    -0.0021086951
   37      C      -4.3044343457    -1.1267780868     0.3961969647
   38      O      -3.8894112973     0.0148304500     1.2428541280
   39      H      -3.6622562240     0.9714622063    -1.9661021164
   40      H      -3.9237931652    -1.3724142009    -1.7967340226
   41      H       0.4259416421     2.2829369113    -1.0588766046
   42      H      -3.9439241537     2.0546200899     0.6117106284
   43      H      -6.3510230253     1.3219757713     0.5464326635
   44      H      -5.9154735999     1.1399580488    -1.1811414745
   45      H      -6.4835114665    -1.0434676214     0.8070475144
   46      H      -6.1074925573    -1.2671548090    -0.9292748591
   47      H      -4.1777397281    -2.0798501494     0.9445828443
   48      H      -0.5022375083     3.8437612462    -0.9342825090
   49      H      -0.0097366676     3.2424361045    -2.5565991117
   50      H       3.6904980237    -1.8464480807    -3.1241461285
   51      H       3.5951441043    -2.7873042528    -1.5811422109
   52      H       5.1747078925    -2.1168383524    -2.1248250140
   53      H       1.0263558496    -2.0487846480    -1.1162935615
   54      H       0.4026371766    -0.6020337726    -0.2228771826
   55      H      -0.2927515835    -3.5488044093     0.2295104859
   56      H      -0.0451648577    -2.5284385299     1.7124948606
 ----------------------------------------------------------------

    9   -1510.2798323705      1.88E-09 Convergence criterion met
 Total energy in the final basis set = -1510.27983237
 Final energy is   -1510.27983237045
 **  OPTIMIZATION CONVERGED  **

                    Orbital Energies (a.u.)
 --------------------------------------------------------------

 Alpha MOs
 -- Occupied --
-18.932 -18.928 -18.921 -18.910 -18.908 -18.901 -18.888 -18.873
-18.865 -18.856 -10.109 -10.100 -10.094 -10.093 -10.067 -10.065
-10.061 -10.058 -10.055 -10.055 -10.052 -10.041 -10.038 -10.037
-10.037 -10.035 -10.028 -10.026 -10.020 -10.019  -1.012  -1.008
 -1.003  -0.997  -0.983  -0.969  -0.937  -0.934  -0.928  -0.924
 -0.767  -0.761  -0.727  -0.722  -0.712  -0.708  -0.686  -0.655
 -0.653  -0.608  -0.598  -0.581  -0.550  -0.544  -0.542  -0.536
 -0.515  -0.510  -0.479  -0.474  -0.466  -0.456  -0.444  -0.439
 -0.437  -0.432  -0.425  -0.409  -0.407  -0.403  -0.399  -0.399
 -0.382  -0.378  -0.369  -0.368  -0.365  -0.357  -0.351  -0.344
 -0.339  -0.336  -0.335  -0.332  -0.329  -0.324  -0.322  -0.315
 -0.312  -0.307  -0.303  -0.302  -0.299  -0.291  -0.282  -0.277
 -0.275  -0.259  -0.249  -0.245  -0.234  -0.233  -0.227  -0.179
 -0.173  -0.165  -0.160  -0.159  -0.154  -0.151  -0.144  -0.141
 -0.138

          Ground-State Mulliken Net Atomic Charges

     Atom                 Charge (a.u.)
  ----------------------------------------
      1 O                    -0.221733
      2 C                     0.212988
      3 C                    -0.078587
      4 C                    -0.080004
      5 C                     0.206550
      6 O                    -0.163359
      7 C                    -0.057965
      8 C                    -0.061104
      9 O                    -0.189258
     10 C                     0.226031
     11 C                    -0.079649
     12 C                    -0.079451
     13 C                     0.218904
     14 O                    -0.223203
     15 O                    -0.170580
     16 O                    -0.174115
     17 O                    -0.184782
     18 C                    -0.127447
     19 C                     0.025020
     20 C                    -0.144451
     21 C                    -0.144607
     22 C                     0.025677
     23 O                    -0.184703
     24 H                     0.087106
     25 H                     0.083906
     26 H                     0.100043
     27 H                     0.078940
     28 H                     0.077407
     29 H                     0.077829
     30 H                     0.076348
     31 H                     0.095389
     32 O                    -0.220518
     33 C                    -0.154787
     34 C                     0.025869
     35 C                    -0.144019
     36 C                    -0.143901
     37 C                     0.026644
     38 O                    -0.185279
     39 H                     0.087290
     40 H                     0.083881
     41 H                     0.122515
     42 H                     0.081629
     43 H                     0.077870
     44 H                     0.074117
     45 H                     0.077880
     46 H                     0.073492
     47 H                     0.088196
     48 H                     0.070975
     49 H                     0.078890
     50 H                     0.087508
     51 H                     0.090701
     52 H                     0.086237
     53 H                     0.093811
     54 H                     0.107576
     55 H                     0.082756
     56 H                     0.103526
  ----------------------------------------
  Sum of atomic charges =     0.000000

                    Cartesian Multipole Moments
 -----------------------------------------------------------------
    Charge (ESU x 10^10)
                 0.0000
    Dipole Moment (Debye)
         X      -0.8500      Y       2.9317      Z      -1.2766
       Tot       3.3086
    Quadrupole Moments (Debye-Ang)
        XX    -149.0605     XY       9.9058     YY    -153.6333
        XZ       0.5882     YZ       5.3227     ZZ    -164.8773

 Total job time:  115.38s(wall), 5505.54s(cpu)
        *  Thank you very much for using Q-Chem.  Have a nice day.  *
