 Q-Chem 5.0, Q-Chem, Inc., Pleasanton, CA (2017)
 Q-Chem 5.0.1 for Intel X86 EM64T Linux

User input:
--------------------------------------------------------------
$molecule
0  1
O -3.94934 -3.66094 2.70899
C -3.26408 -4.56952 2.26188
C -3.36658 -6.02376 2.66595
C -3.85957 -6.32399 4.09097
C -4.36389 -5.14454 4.89263
O -5.67981 -4.91732 4.60601
C -6.11601 -3.60266 4.96749
C -5.4137 -2.55988 4.10406
O -6.32624 -1.49995 3.77741
C -7.36368 -1.84964 2.97705
C -7.43463 -1.02691 1.71263
C -6.85885 0.39185 1.83034
C -5.9934 0.65497 3.04625
O -5.85873 -0.10111 3.99744
O -2.2682 -4.26242 1.39001
O -5.3682 1.86159 3.08295
O -7.973 -2.91125 3.01306
C -4.55289 2.28298 4.11234
C -6.57086 -1.59844 0.57289
C -7.10762 -1.10587 -0.76896
C -6.72374 0.35893 -0.70529
C -5.92445 0.37711 0.60358
O -5.35144 -0.90656 0.67402
H -8.50307 -1.00672 1.398
H -7.63536 1.18673 1.78829
H -6.50618 -2.70872 0.58248
H -6.49823 -1.59935 -1.55997
H -8.18399 -1.30602 -0.95914
H -6.06852 0.58678 -1.57519
H -7.57488 1.073 -0.66901
H -5.20688 1.22684 0.60123
O -3.6236 -4.37554 5.49483
C -2.0135 -2.98981 0.92267
C -4.43429 -6.76473 1.83443
C -4.12103 -8.25988 1.8033
C -4.45247 -8.64495 3.22958
C -5.00338 -7.31262 3.75214
O -5.59628 -6.72328 2.62124
H -2.38057 -6.49296 2.44562
H -3.09625 -6.83173 4.72093
H -1.76546 -2.31327 1.76839
H -4.53222 -6.37252 0.79804
H -4.86686 -8.73402 1.12544
H -3.09758 -8.52875 1.46402
H -5.25111 -9.41941 3.20703
H -3.59341 -9.00099 3.83835
H -5.67399 -7.48951 4.62202
H -2.89913 -2.59883 0.37713
H -1.15081 -3.02349 0.22626
H -4.17555 3.30083 3.88424
H -3.6867 1.59544 4.21962
H -5.12494 2.31808 5.06412
H -4.39448 -2.23359 4.41519
H -5.7175 -3.19312 3.27261
H -5.92448 -3.38074 6.04127
H -7.21636 -3.62413 4.94136
$end

$opt
CONSTRAINT
tors           1           2           3           4     -28.421
tors           3           4           5           6     +85.263
tors           4           5           6           7    -161.053
tors           5           6           7           8     +66.316
tors           6           7           8           9    +142.105
tors           7           8           9          10     -66.316
tors           8           9          10          11    -123.158
tors           9          10          11          12     -28.421
tors          11          12          13          14      -9.474
ENDCONSTRAINT
$end

$rem
JOBTYPE                   OPT
METHOD                    B3LYP
DFT_D                     d3_op
BASIS                     STO-3G
GEOM_OPT_MAX_CYCLES       100
GEOM_OPT_TOL_GRADIENT     300
GEOM_OPT_TOL_DISPLACEMENT 1200
GEOM_OPT_TOL_ENERGY       100
SYMMETRY                  False
THRESH                    12
SCF_CONVERGENCE           8
MAX_SUB_FILE_NUM          128
MEM_STATIC                400
MEM_TOTAL                 4000
$end
--------------------------------------------------------------

   18   -1509.8313028223      6.33E-09 Convergence criterion met
 Total energy in the final basis set = -1509.83130282
   16   -1509.9610685274      2.97E-09 Convergence criterion met
 Total energy in the final basis set = -1509.96106853
   14   -1510.0572214640      9.77E-09 Convergence criterion met
 Total energy in the final basis set = -1510.05722146
   14   -1510.1251294297      7.04E-09 Convergence criterion met
 Total energy in the final basis set = -1510.12512943
   14   -1510.1703778482      6.38E-09 Convergence criterion met
 Total energy in the final basis set = -1510.17037785
   14   -1510.2000477542      4.23E-09 Convergence criterion met
 Total energy in the final basis set = -1510.20004775
   14   -1510.2196720162      2.75E-09 Convergence criterion met
 Total energy in the final basis set = -1510.21967202
   13   -1510.2328387178      7.92E-09 Convergence criterion met
   11   -1510.2704155628      5.47E-09 Convergence criterion met
 Total energy in the final basis set = -1510.27041556
   10   -1510.2704203697      4.77E-09 Convergence criterion met
 Total energy in the final basis set = -1510.27042037
    9   -1510.2704247236      9.16E-09 Convergence criterion met
 Total energy in the final basis set = -1510.27042472
    9   -1510.2704279349      6.72E-09 Convergence criterion met
 Total energy in the final basis set = -1510.27042793
   10   -1510.2704307567      7.48E-09 Convergence criterion met
 Total energy in the final basis set = -1510.27043076
    9   -1510.2704318049      5.14E-09 Convergence criterion met
 Total energy in the final basis set = -1510.27043180

             Standard Nuclear Orientation (Angstroms)
    I     Atom           X                Y                Z
 ----------------------------------------------------------------
    1      O       1.0829270223     0.9004202212    -0.1390125987
    2      C       1.9312852125     1.2732309345     0.7040453125
    3      C       3.4229498752     0.8196574568     0.8602562078
    4      C       3.8280650712    -0.6432064230     0.3830642677
    5      C       2.7087738882    -1.7386957919     0.2478330834
    6      O       2.0571223251    -1.6823158008    -1.0229829842
    7      C       0.7438600598    -2.3881385522    -0.9555904806
    8      C      -0.2349853189    -1.6073904057     0.0048773321
    9      O      -1.6568500588    -1.5542256754    -0.4035746605
   10      C      -1.8098288681    -0.7814064694    -1.6138125691
   11      C      -2.8164498926     0.4144330575    -1.4118055078
   12      C      -3.9385866407     0.1970433237    -0.3288093687
   13      C      -4.3697683577    -1.2934300397    -0.1105644334
   14      O      -4.0566207818    -2.2930120700    -0.7911784928
   15      O       1.6664292107     2.2356335829     1.7219841774
   16      O      -5.2284814107    -1.3378419805     1.0357393602
   17      O      -1.1824296365    -0.9957274399    -2.6755597419
   18      C      -5.6679997487    -2.7302158648     1.2827331708
   19      C      -1.9572673797     1.5381622263    -0.6841294088
   20      C      -2.8113643461     2.8561184593    -0.5029198798
   21      C      -3.6964316526     2.4908857132     0.7489183028
   22      C      -3.3276775090     0.9683575664     0.9284873180
   23      O      -1.8634448172     0.9766614894     0.6878305459
   24      H      -3.2126158016     0.7393013259    -2.3895134256
   25      H      -4.8528954465     0.7321667164    -0.6484944168
   26      H      -0.9371032894     1.6782019232    -1.0935140931
   27      H      -2.1588736913     3.7208257060    -0.3043932748
   28      H      -3.4167850268     3.0713461363    -1.3980800923
   29      H      -3.3889138702     3.0652875740     1.6377806996
   30      H      -4.7728694990     2.6497530707     0.5775112944
   31      H      -3.5661277369     0.5201758864     1.9122979585
   32      O       2.3922914231    -2.5382755168     1.1595593448
   33      C       0.2857502827     2.7731032223     1.6051618513
   34      C       4.2724588930     1.6828541222    -0.1803478377
   35      C       5.8169855807     1.4990761066     0.1023406082
   36      C       6.0870699392     0.0958720819    -0.5565102187
   37      C       4.6204078347    -0.3210939401    -0.9632709053
   38      O       4.0396819767     0.9523060985    -1.4448188216
   39      H       3.7316798652     1.0036769384     1.9043117805
   40      H       4.5286391757    -1.0509932256     1.1348586664
   41      H      -0.4849459477     1.9812760796     1.4184152730
   42      H       3.9370499916     2.7345826180    -0.2698605631
   43      H       6.3966800780     2.2981072724    -0.3862370306
   44      H       6.0400536851     1.5118895224     1.1813536524
   45      H       6.7205120996     0.1890712544    -1.4533630753
   46      H       6.5548012188    -0.6223809534     0.1353248518
   47      H       4.5403460103    -1.1018454406    -1.7438817656
   48      H       0.2343149131     3.5170064830     0.7837467367
   49      H       0.0854358749     3.2860699481     2.5634374448
   50      H      -6.2896401858    -2.6968568803     2.1963566946
   51      H      -4.8050734979    -3.4081436162     1.4436826379
   52      H      -6.2710951909    -3.1241872360     0.4390617940
   53      H      -0.2460904592    -2.0817913542     1.0058217323
   54      H       0.1711403579    -0.5706545834     0.0909369230
   55      H       0.8725332564    -3.4454018647    -0.6434171536
   56      H       0.3410415813    -2.3339035674    -1.9887274882
 ----------------------------------------------------------------

    9   -1510.2704321224      2.82E-09 Convergence criterion met
 Total energy in the final basis set = -1510.27043212
 Final energy is   -1510.27043212239
 **  OPTIMIZATION CONVERGED  **

                    Orbital Energies (a.u.)
 --------------------------------------------------------------

 Alpha MOs
 -- Occupied --
-18.937 -18.932 -18.921 -18.903 -18.902 -18.888 -18.881 -18.878
-18.876 -18.863 -10.105 -10.099 -10.095 -10.091 -10.067 -10.063
-10.063 -10.061 -10.057 -10.047 -10.047 -10.040 -10.040 -10.038
-10.036 -10.034 -10.027 -10.026 -10.021 -10.018  -1.014  -1.010
 -1.000  -0.995  -0.979  -0.970  -0.938  -0.936  -0.925  -0.921
 -0.767  -0.761  -0.726  -0.722  -0.711  -0.706  -0.681  -0.663
 -0.657  -0.606  -0.598  -0.577  -0.550  -0.542  -0.540  -0.536
 -0.514  -0.512  -0.479  -0.470  -0.462  -0.459  -0.442  -0.441
 -0.438  -0.433  -0.422  -0.411  -0.410  -0.406  -0.402  -0.394
 -0.382  -0.378  -0.370  -0.365  -0.363  -0.355  -0.350  -0.344
 -0.342  -0.338  -0.333  -0.331  -0.327  -0.320  -0.317  -0.316
 -0.310  -0.306  -0.304  -0.301  -0.300  -0.290  -0.279  -0.276
 -0.270  -0.257  -0.253  -0.241  -0.238  -0.233  -0.224  -0.183
 -0.176  -0.169  -0.159  -0.156  -0.151  -0.147  -0.142  -0.141
 -0.137

          Ground-State Mulliken Net Atomic Charges

     Atom                 Charge (a.u.)
  ----------------------------------------
      1 O                    -0.216254
      2 C                     0.217042
      3 C                    -0.077373
      4 C                    -0.080544
      5 C                     0.202680
      6 O                    -0.166132
      7 C                    -0.059550
      8 C                    -0.068822
      9 O                    -0.182782
     10 C                     0.224946
     11 C                    -0.078238
     12 C                    -0.078146
     13 C                     0.214657
     14 O                    -0.204469
     15 O                    -0.168984
     16 O                    -0.173879
     17 O                    -0.198239
     18 C                    -0.128467
     19 C                     0.021584
     20 C                    -0.145951
     21 C                    -0.142131
     22 C                     0.028031
     23 O                    -0.188405
     24 H                     0.085656
     25 H                     0.084057
     26 H                     0.098471
     27 H                     0.077225
     28 H                     0.076473
     29 H                     0.077227
     30 H                     0.076300
     31 H                     0.091468
     32 O                    -0.218368
     33 C                    -0.147790
     34 C                     0.025874
     35 C                    -0.144943
     36 C                    -0.142724
     37 C                     0.026093
     38 O                    -0.186351
     39 H                     0.088894
     40 H                     0.083153
     41 H                     0.115787
     42 H                     0.081508
     43 H                     0.078118
     44 H                     0.074129
     45 H                     0.077878
     46 H                     0.073999
     47 H                     0.089029
     48 H                     0.074325
     49 H                     0.082610
     50 H                     0.089543
     51 H                     0.092036
     52 H                     0.088073
     53 H                     0.083973
     54 H                     0.106935
     55 H                     0.084597
     56 H                     0.106171
  ----------------------------------------
  Sum of atomic charges =     0.000000

                    Cartesian Multipole Moments
 -----------------------------------------------------------------
    Charge (ESU x 10^10)
                 0.0000
    Dipole Moment (Debye)
         X      -0.9807      Y       2.9417      Z       2.0754
       Tot       3.7313
    Quadrupole Moments (Debye-Ang)
        XX    -134.7905     XY      -1.4521     YY    -156.0083
        XZ      -0.7113     YZ      -1.5198     ZZ    -167.0436

 Total job time:  116.04s(wall), 5537.98s(cpu)
        *  Thank you very much for using Q-Chem.  Have a nice day.  *
