 Q-Chem 5.0, Q-Chem, Inc., Pleasanton, CA (2017)
 Q-Chem 5.0.1 for Intel X86 EM64T Linux

User input:
--------------------------------------------------------------
$molecule
0  1
O -2.06047325 -2.7322934733 -0.2812131411
C -3.0894564172 -2.3524631669 0.3230326756
C -3.5491314003 -0.8771077047 0.5471521818
C -2.4368556 0.1647121522 0.1243681803
C -1.1468754592 -0.4727599641 -0.5432209542
O -0.0647102446 1.9154711501 0.144547654
C 0.3324412343 2.7887654025 1.255416778
C 1.6683808195 3.5650901469 0.9468683144
O 2.4295980847 2.3552115538 0.4481889946
C 3.3991141938 1.7897586471 1.322345291
C 3.7475691125 0.2916647798 0.8855178892
C 2.5876388151 -0.7936636998 0.5396100346
C 1.1970133115 -0.1070993575 0.2313702088
O -0.0558116264 -0.9754259319 0.3277490223
O -4.0551856956 -3.2361904145 0.8955594728
O 1.3982311536 0.5249875164 -1.0712953042
O 3.876791276 2.3781176555 2.3180264812
C 0.6497664974 1.8192517694 -1.0981417128
C 4.6860314983 0.1332974054 -0.3952839166
C 5.5760098327 -1.1526612855 -0.1590370444
C 4.5040320641 -2.2909260482 -0.3486883083
C 3.2238743842 -1.4532383114 -0.7532115067
O 3.7886790137 -0.2930672504 -1.4858965505
H 4.2996464238 -0.0880782816 1.7648905511
H 2.4779677558 -1.5122286597 1.3721302411
H 5.2416281949 1.0473293602 -0.6816849229
H 6.3659285817 -1.2125560084 -0.9251063474
H 6.0472959127 -1.1665023546 0.8366372747
H 4.7861983265 -2.9816104057 -1.1589021168
H 4.3401069987 -2.8758248615 0.570730143
H 2.4900298654 -1.987020253 -1.387505829
O -1.0159499348 -0.4890888368 -1.7882113761
C -3.6564445113 -4.6436386707 0.6562185221
C -4.7448205998 -0.4639063924 -0.4177513135
C -5.3898621583 0.8617081583 0.1484549626
C -4.2856000205 1.9177647021 -0.2287944474
C -3.224762521 1.0059983093 -0.9640708029
O -4.0565255546 -0.0150645813 -1.646526938
H -3.8436732244 -0.7611188501 1.6057773136
H -2.1216423452 0.7833933171 0.9825903554
H -2.6772848558 -4.8741562377 1.1233995013
H -5.4577753779 -1.2816559332 -0.6395320088
H -6.3418911827 1.0724346283 -0.3643769813
H -5.5766743334 0.8056802541 1.2327490019
H -4.6778301839 2.684088887 -0.9162509744
H -3.8586341873 2.4216885568 0.6530997972
H -2.5753566867 1.5214327634 -1.6963904849
H -3.5912248637 -4.86973828 -0.4277053663
H -4.4443129841 -5.2662102597 1.1185649804
H 1.3436499813 2.6472888512 -1.3691240211
H 1.0746175769 0.6248473535 1.049589517
H -0.1332405056 1.7399467985 -1.8959593972
H 1.5777100679 4.2977486669 0.1225426853
H 2.1350016849 4.0197187314 1.8449992193
H 0.4917470031 2.1574631073 2.1577579052
H -0.5133118193 3.4844760044 1.4666855662
$end

$rem
JOBTYPE                   OPT
METHOD                    B3LYP
DFT_D                     d3_op
BASIS                     STO-3G
GEOM_OPT_MAX_CYCLES       100
GEOM_OPT_TOL_GRADIENT     300
GEOM_OPT_TOL_DISPLACEMENT 1200
GEOM_OPT_TOL_ENERGY       100
SYMMETRY                  False
THRESH                    12
SCF_CONVERGENCE           8
MAX_SUB_FILE_NUM          128
MEM_STATIC                400
MEM_TOTAL                 4000
$end
--------------------------------------------------------------

   15   -1510.2133892546      7.43E-09 Convergence criterion met
 Total energy in the final basis set = -1510.21338925
   14   -1510.2394549600      5.01E-09 Convergence criterion met
 Total energy in the final basis set = -1510.23945496
   13   -1510.2537574020      7.98E-09 Convergence criterion met
 Total energy in the final basis set = -1510.25375740
   14   -1510.2598988213      2.37E-09 Convergence criterion met
 Total energy in the final basis set = -1510.25989882
   13   -1510.2634837957      9.11E-09 Convergence criterion met
 Total energy in the final basis set = -1510.26348380
   14   -1510.2662614415      2.01E-09 Convergence criterion met
 Total energy in the final basis set = -1510.26626144
   14   -1510.2694686485      2.32E-09 Convergence criterion met
 Total energy in the final basis set = -1510.26946865
   14   -1510.2725968248      2.88E-09 Convergence criterion met
   11   -1510.3110181399      4.97E-09 Convergence criterion met
 Total energy in the final basis set = -1510.31101814
   13   -1510.3111117630      5.65E-09 Convergence criterion met
 Total energy in the final basis set = -1510.31111176
   12   -1510.3111396267      3.14E-09 Convergence criterion met
 Total energy in the final basis set = -1510.31113963
   11   -1510.3111596656      6.24E-09 Convergence criterion met
 Total energy in the final basis set = -1510.31115967
   12   -1510.3112027310      7.41E-09 Convergence criterion met
 Total energy in the final basis set = -1510.31120273
   11   -1510.3112123260      7.67E-09 Convergence criterion met
 Total energy in the final basis set = -1510.31121233

             Standard Nuclear Orientation (Angstroms)
    I     Atom           X                Y                Z
 ----------------------------------------------------------------
    1      O      -1.7993724446     0.5148771149    -1.9002391293
    2      C      -2.0857270095    -0.3859687071    -1.0772855773
    3      C      -3.2624438396    -0.3612081019    -0.0395125081
    4      C      -2.9679801456     0.5985633615     1.1985646222
    5      C      -1.5575276792     1.2815157220     1.1050889852
    6      O       1.7850198973     2.7151500420    -1.7269078542
    7      C       2.5581873414     1.8967816234    -2.6878457171
    8      C       3.9445263057     1.4417516836    -2.0835597781
    9      O       3.8050656813     0.3645277010    -1.0794949618
   10      C       3.5477099280     0.9268661037     0.2150179459
   11      C       3.2635148980    -0.2178637466     1.2575185879
   12      C       1.7267298247    -0.3216565708     1.6480420505
   13      C       0.8121564008     0.7231918530     0.9137027492
   14      O      -0.5855431597     0.2319220044     1.1120739228
   15      O      -1.3820104115    -1.6196923460    -0.9573572045
   16      O       1.1570701752     0.7059000545    -0.5036496034
   17      O       3.6179638982     2.1465279627     0.4833896963
   18      C       0.6725154804     1.9396405234    -1.2008138369
   19      C       3.5234868224    -1.6779831751     0.6984484683
   20      C       3.5578116952    -2.6830817275     1.9187441293
   21      C       2.0276640166    -2.7874892493     2.2733298079
   22      C       1.4022922470    -1.8099800238     1.2040030528
   23      O       2.2556676773    -2.0124953008     0.0111076112
   24      H       3.8732750960    -0.0069784648     2.1546503461
   25      H       1.5801124536    -0.1899346056     2.7344847732
   26      H       4.3762927556    -1.7538679003    -0.0021425151
   27      H       3.9670830953    -3.6561030440     1.6037934547
   28      H       4.1637230497    -2.3000887060     2.7554890345
   29      H       1.6487767121    -3.8113973369     2.1268512933
   30      H       1.8063980357    -2.4726049237     3.3055432890
   31      H       0.3355859798    -1.9794475233     0.9576129395
   32      O      -1.2962677948     2.5017876238     1.0199752460
   33      C      -0.1690474667    -1.5853521235    -1.8181045378
   34      C      -4.5558563928     0.3371710342    -0.6407936307
   35      C      -5.7800952202     0.0148299179     0.3046012137
   36      C      -5.4830385983     0.9656808909     1.5232956163
   37      C      -4.1405094386     1.6513180324     1.0548675242
   38      O      -4.3066170592     1.7787205098    -0.4116430343
   39      H      -3.4593543135    -1.3944937294     0.2957052978
   40      H      -3.0246208106     0.0379586522     2.1495589862
   41      H       0.5319736853    -0.8015878303    -1.4366622043
   42      H      -4.7220887520     0.1414645292    -1.7177515945
   43      H      -6.7286498371     0.2767087464    -0.1903382563
   44      H      -5.8131257677    -1.0482126758     0.5924252640
   45      H      -6.2761868812     1.7196905410     1.6488708690
   46      H      -5.3622041262     0.4178764651     2.4715748709
   47      H      -3.9184098637     2.6383167676     1.5049345619
   48      H      -0.4331949380    -1.3837581401    -2.8753020477
   49      H       0.2955023735    -2.5832646068    -1.7296696956
   50      H      -0.0360857341     1.5741077387    -1.9919860353
   51      H       0.9132609704     1.7495389802     1.3502069740
   52      H       0.1223884985     2.6064333118    -0.4949011371
   53      H       4.5728871428     1.0227719972    -2.8960007964
   54      H       4.4466199021     2.3249496901    -1.6335643602
   55      H       2.7768570470     2.5449098793    -3.5651186058
   56      H       1.9956355735     1.0072982568    -3.0415747865
 ----------------------------------------------------------------

   11   -1510.3112129998      2.95E-09 Convergence criterion met
 Total energy in the final basis set = -1510.31121300
 Final energy is   -1510.31121299977
 **  OPTIMIZATION CONVERGED  **

                    Orbital Energies (a.u.)
 --------------------------------------------------------------

 Alpha MOs
 -- Occupied --
-18.935 -18.927 -18.922 -18.914 -18.899 -18.890 -18.887 -18.883
-18.865 -18.860 -10.113 -10.111 -10.094 -10.092 -10.081 -10.061
-10.060 -10.059 -10.059 -10.055 -10.053 -10.042 -10.038 -10.037
-10.034 -10.033 -10.021 -10.020 -10.018 -10.017  -1.029  -1.004
 -1.003  -0.983  -0.970  -0.966  -0.952  -0.929  -0.928  -0.924
 -0.766  -0.761  -0.727  -0.721  -0.713  -0.705  -0.693  -0.651
 -0.638  -0.618  -0.598  -0.570  -0.563  -0.550  -0.539  -0.535
 -0.525  -0.506  -0.490  -0.481  -0.467  -0.462  -0.455  -0.452
 -0.438  -0.432  -0.428  -0.426  -0.414  -0.405  -0.400  -0.399
 -0.390  -0.386  -0.377  -0.365  -0.364  -0.354  -0.350  -0.342
 -0.338  -0.337  -0.333  -0.331  -0.326  -0.324  -0.317  -0.309
 -0.308  -0.303  -0.302  -0.299  -0.289  -0.282  -0.281  -0.276
 -0.260  -0.253  -0.245  -0.241  -0.234  -0.230  -0.228  -0.188
 -0.177  -0.170  -0.168  -0.161  -0.147  -0.146  -0.144  -0.140
 -0.136

          Ground-State Mulliken Net Atomic Charges

     Atom                 Charge (a.u.)
  ----------------------------------------
      1 O                    -0.223272
      2 C                     0.206716
      3 C                    -0.078778
      4 C                    -0.077503
      5 C                     0.211724
      6 O                    -0.184713
      7 C                    -0.049922
      8 C                    -0.051725
      9 O                    -0.172268
     10 C                     0.211202
     11 C                    -0.080377
     12 C                    -0.065064
     13 C                     0.111015
     14 O                    -0.182428
     15 O                    -0.171181
     16 O                    -0.194435
     17 O                    -0.221089
     18 C                     0.019349
     19 C                     0.025670
     20 C                    -0.144775
     21 C                    -0.144219
     22 C                     0.020380
     23 O                    -0.189814
     24 H                     0.081833
     25 H                     0.079199
     26 H                     0.088423
     27 H                     0.076555
     28 H                     0.071950
     29 H                     0.076732
     30 H                     0.071658
     31 H                     0.094177
     32 O                    -0.208619
     33 C                    -0.147151
     34 C                     0.025597
     35 C                    -0.144039
     36 C                    -0.143941
     37 C                     0.024118
     38 O                    -0.185738
     39 H                     0.085661
     40 H                     0.085339
     41 H                     0.113559
     42 H                     0.085226
     43 H                     0.078385
     44 H                     0.073350
     45 H                     0.078682
     46 H                     0.072610
     47 H                     0.089360
     48 H                     0.078053
     49 H                     0.088169
     50 H                     0.095302
     51 H                     0.094320
     52 H                     0.101915
     53 H                     0.083959
     54 H                     0.095813
     55 H                     0.081175
     56 H                     0.083874
  ----------------------------------------
  Sum of atomic charges =    -0.000000

                    Cartesian Multipole Moments
 -----------------------------------------------------------------
    Charge (ESU x 10^10)
                -0.0000
    Dipole Moment (Debye)
         X      -0.3765      Y      -2.9861      Z       1.9230
       Tot       3.5717
    Quadrupole Moments (Debye-Ang)
        XX    -148.4479     XY       0.8792     YY    -172.3193
        XZ      -6.3329     YZ      -1.4291     ZZ    -150.0588

 Total job time:  229.77s(wall), 10955.77s(cpu)
        *  Thank you very much for using Q-Chem.  Have a nice day.  *
