 Q-Chem 5.0, Q-Chem, Inc., Pleasanton, CA (2017)
 Q-Chem 5.0.1 for Intel X86 EM64T Linux

User input:
--------------------------------------------------------------
$molecule
0  1
O -3.94934 -3.66094 2.70899
C -3.26408 -4.56952 2.26188
C -3.36658 -6.02376 2.66595
C -4.25419 -6.35572 3.87665
C -5.08044 -5.22016 4.4387
O -5.47409 -5.51873 5.71201
C -4.38344 -5.59022 6.63646
C -4.79598 -5.00354 7.98248
O -5.4519 -3.74104 7.78571
C -4.70901 -2.64564 8.0813
C -5.24413 -1.38341 7.448
C -5.59639 -1.5057 5.95829
C -5.70528 -2.91772 5.41879
O -5.64891 -3.23191 4.23868
O -2.39536 -4.29588 1.25352
O -6.86391 -3.08297 5.58803
O -3.62256 -2.67918 8.64709
C -6.76334 -3.93962 6.2214
C -6.54603 -0.78161 8.02549
C -6.52094 0.73554 7.8261
C -6.67374 0.82511 6.31729
C -6.91765 -0.6489 5.98037
O -7.56392 -1.14747 7.1291
H -4.44434 -0.62327 7.60937
H -4.81699 -1.01736 5.33219
H -6.71295 -1.0363 9.09425
H -7.44446 1.13608 8.30364
H -5.64083 1.27214 8.24056
H -7.5793 1.43375 6.09512
H -5.79564 1.21906 5.76318
H -7.48164 -0.73981 5.02568
O -6.06153 -5.23584 3.66052
C -2.1919 -3.03865 0.72424
C -3.96967 -6.934 1.57853
C -3.47284 -8.36659 1.76768
C -4.25007 -8.77552 3.00244
C -5.08766 -7.51618 3.23526
O -5.32666 -7.04308 1.92875
H -2.314 -6.3255 2.87308
H -3.60748 -6.80517 4.65432
H -1.82098 -2.34788 1.51148
H -3.75465 -6.58196 0.54595
H -3.84073 -8.96613 0.90386
H -2.36977 -8.47047 1.845
H -4.92454 -9.61788 2.72677
H -3.64001 -9.05259 3.88788
H -5.98812 -7.76486 3.8398
H -3.13861 -2.64574 0.29549
H -1.43339 -3.10174 -0.08266
H -7.45168 -3.74084 7.1004
H -4.41701 -3.75843 6.29991
H -7.43473 -4.72672 5.75688
H -5.55931 -5.66978 8.44003
H -3.93241 -5.00117 8.68398
H -3.34497 -5.33956 6.25967
H -4.22635 -6.66625 6.87048
$end

$opt
CONSTRAINT
tors           1           2           3           4      -9.474
tors           3           4           5           6    -161.053
tors           4           5           6           7     +66.316
tors           5           6           7           8    +142.105
tors           6           7           8           9     -47.368
tors           7           8           9          10    -104.211
tors           8           9          10          11    +161.053
tors           9          10          11          12     -47.368
tors          11          12          13          14    -161.053
ENDCONSTRAINT
$end

$rem
JOBTYPE                   OPT
METHOD                    B3LYP
DFT_D                     d3_op
BASIS                     STO-3G
GEOM_OPT_MAX_CYCLES       100
GEOM_OPT_TOL_GRADIENT     300
GEOM_OPT_TOL_DISPLACEMENT 1200
GEOM_OPT_TOL_ENERGY       100
SYMMETRY                  False
THRESH                    12
SCF_CONVERGENCE           8
MAX_SUB_FILE_NUM          128
MEM_STATIC                400
MEM_TOTAL                 4000
$end
--------------------------------------------------------------

   21   -1509.2293629790      6.44E-09 Convergence criterion met
 Total energy in the final basis set = -1509.22936298
   18   -1509.4019397375      6.21E-09 Convergence criterion met
 Total energy in the final basis set = -1509.40193974
   17   -1509.5604005626      8.83E-09 Convergence criterion met
 Total energy in the final basis set = -1509.56040056
   17   -1509.6773739012      6.08E-09 Convergence criterion met
 Total energy in the final basis set = -1509.67737390
   17   -1509.7610091987      5.61E-09 Convergence criterion met
 Total energy in the final basis set = -1509.76100920
   17   -1509.8250108735      9.71E-09 Convergence criterion met
 Total energy in the final basis set = -1509.82501087
   17   -1509.8753119363      9.48E-09 Convergence criterion met
 Total energy in the final basis set = -1509.87531194
   17   -1509.9160072795      5.40E-09 Convergence criterion met
   10   -1510.2131628511      3.17E-09 Convergence criterion met
 Total energy in the final basis set = -1510.21316285
   10   -1510.2131691412      4.60E-09 Convergence criterion met
 Total energy in the final basis set = -1510.21316914
   10   -1510.2131738798      4.00E-09 Convergence criterion met
 Total energy in the final basis set = -1510.21317388
   10   -1510.2131776263      3.24E-09 Convergence criterion met
 Total energy in the final basis set = -1510.21317763
    9   -1510.2131794641      6.19E-09 Convergence criterion met
 Total energy in the final basis set = -1510.21317946
    9   -1510.2131806527      9.28E-09 Convergence criterion met
 Total energy in the final basis set = -1510.21318065

             Standard Nuclear Orientation (Angstroms)
    I     Atom           X                Y                Z
 ----------------------------------------------------------------
    1      O      -2.0604732500    -2.7322934733    -0.2812131411
    2      C      -3.0894564172    -2.3524631669     0.3230326756
    3      C      -3.5491314003    -0.8771077047     0.5471521818
    4      C      -2.4368556000     0.1647121522     0.1243681803
    5      C      -1.1468754592    -0.4727599641    -0.5432209542
    6      O      -0.0647102446     1.9154711501     0.1445476540
    7      C       0.3324412343     2.7887654025     1.2554167780
    8      C       1.6683808195     3.5650901469     0.9468683144
    9      O       2.4295980847     2.3552115538     0.4481889946
   10      C       3.3991141938     1.7897586471     1.3223452910
   11      C       3.7475691125     0.2916647798     0.8855178892
   12      C       2.5876388151    -0.7936636998     0.5396100346
   13      C       1.1970133115    -0.1070993575     0.2313702088
   14      O      -0.0558116264    -0.9754259319     0.3277490223
   15      O      -4.0551856956    -3.2361904145     0.8955594728
   16      O       1.3982311536     0.5249875164    -1.0712953042
   17      O       3.8767912760     2.3781176555     2.3180264812
   18      C       0.6497664974     1.8192517694    -1.0981417128
   19      C       4.6860314983     0.1332974054    -0.3952839166
   20      C       5.5760098327    -1.1526612855    -0.1590370444
   21      C       4.5040320641    -2.2909260482    -0.3486883083
   22      C       3.2238743842    -1.4532383114    -0.7532115067
   23      O       3.7886790137    -0.2930672504    -1.4858965505
   24      H       4.2996464238    -0.0880782816     1.7648905511
   25      H       2.4779677558    -1.5122286597     1.3721302411
   26      H       5.2416281949     1.0473293602    -0.6816849229
   27      H       6.3659285817    -1.2125560084    -0.9251063474
   28      H       6.0472959127    -1.1665023546     0.8366372747
   29      H       4.7861983265    -2.9816104057    -1.1589021168
   30      H       4.3401069987    -2.8758248615     0.5707301430
   31      H       2.4900298654    -1.9870202530    -1.3875058290
   32      O      -1.0159499348    -0.4890888368    -1.7882113761
   33      C      -3.6564445113    -4.6436386707     0.6562185221
   34      C      -4.7448205998    -0.4639063924    -0.4177513135
   35      C      -5.3898621583     0.8617081583     0.1484549626
   36      C      -4.2856000205     1.9177647021    -0.2287944474
   37      C      -3.2247625210     1.0059983093    -0.9640708029
   38      O      -4.0565255546    -0.0150645813    -1.6465269380
   39      H      -3.8436732244    -0.7611188501     1.6057773136
   40      H      -2.1216423452     0.7833933171     0.9825903554
   41      H      -2.6772848558    -4.8741562377     1.1233995013
   42      H      -5.4577753779    -1.2816559332    -0.6395320088
   43      H      -6.3418911827     1.0724346283    -0.3643769813
   44      H      -5.5766743334     0.8056802541     1.2327490019
   45      H      -4.6778301839     2.6840888870    -0.9162509744
   46      H      -3.8586341873     2.4216885568     0.6530997972
   47      H      -2.5753566867     1.5214327634    -1.6963904849
   48      H      -3.5912248637    -4.8697382800    -0.4277053663
   49      H      -4.4443129841    -5.2662102597     1.1185649804
   50      H       1.3436499813     2.6472888512    -1.3691240211
   51      H       1.0746175769     0.6248473535     1.0495895170
   52      H      -0.1332405056     1.7399467985    -1.8959593972
   53      H       1.5777100679     4.2977486669     0.1225426853
   54      H       2.1350016849     4.0197187314     1.8449992193
   55      H       0.4917470031     2.1574631073     2.1577579052
   56      H      -0.5133118193     3.4844760044     1.4666855662
 ----------------------------------------------------------------

    9   -1510.2131810281      6.25E-09 Convergence criterion met
 Total energy in the final basis set = -1510.21318103
 Final energy is   -1510.21318102815
 **  OPTIMIZATION CONVERGED  **

                    Orbital Energies (a.u.)
 --------------------------------------------------------------

 Alpha MOs
 -- Occupied --
-18.938 -18.935 -18.901 -18.883 -18.883 -18.880 -18.877 -18.877
-18.861 -18.854 -10.106 -10.100 -10.093 -10.089 -10.088 -10.075
-10.074 -10.065 -10.057 -10.053 -10.052 -10.045 -10.034 -10.030
-10.026 -10.024 -10.018 -10.016 -10.012 -10.009  -1.021  -1.013
 -0.994  -0.969  -0.961  -0.958  -0.940  -0.937  -0.921  -0.879
 -0.756  -0.751  -0.728  -0.718  -0.713  -0.699  -0.691  -0.662
 -0.648  -0.617  -0.591  -0.568  -0.557  -0.541  -0.534  -0.531
 -0.515  -0.506  -0.499  -0.482  -0.468  -0.455  -0.449  -0.441
 -0.439  -0.429  -0.425  -0.420  -0.414  -0.411  -0.407  -0.396
 -0.392  -0.380  -0.375  -0.369  -0.357  -0.356  -0.350  -0.349
 -0.340  -0.338  -0.328  -0.324  -0.320  -0.314  -0.313  -0.308
 -0.299  -0.298  -0.297  -0.292  -0.290  -0.276  -0.272  -0.257
 -0.254  -0.247  -0.240  -0.229  -0.223  -0.220  -0.209  -0.180
 -0.179  -0.160  -0.159  -0.152  -0.140  -0.137  -0.127  -0.120
 -0.117

          Ground-State Mulliken Net Atomic Charges

     Atom                 Charge (a.u.)
  ----------------------------------------
      1 O                    -0.196098
      2 C                     0.213382
      3 C                    -0.080163
      4 C                    -0.078104
      5 C                     0.214299
      6 O                    -0.216845
      7 C                    -0.035964
      8 C                    -0.058212
      9 O                    -0.177341
     10 C                     0.202346
     11 C                    -0.082067
     12 C                    -0.061975
     13 C                     0.100894
     14 O                    -0.202092
     15 O                    -0.169672
     16 O                    -0.185174
     17 O                    -0.215425
     18 C                     0.048236
     19 C                     0.025467
     20 C                    -0.142609
     21 C                    -0.145705
     22 C                     0.026202
     23 O                    -0.181034
     24 H                     0.080179
     25 H                     0.077872
     26 H                     0.079712
     27 H                     0.076015
     28 H                     0.071146
     29 H                     0.076669
     30 H                     0.071298
     31 H                     0.092153
     32 O                    -0.198830
     33 C                    -0.128387
     34 C                     0.025396
     35 C                    -0.143318
     36 C                    -0.144551
     37 C                     0.028034
     38 O                    -0.187227
     39 H                     0.084066
     40 H                     0.083313
     41 H                     0.091117
     42 H                     0.084059
     43 H                     0.077298
     44 H                     0.072497
     45 H                     0.076359
     46 H                     0.071251
     47 H                     0.087155
     48 H                     0.091863
     49 H                     0.090768
     50 H                     0.086958
     51 H                     0.078837
     52 H                     0.084180
     53 H                     0.094882
     54 H                     0.104267
     55 H                     0.083094
     56 H                     0.079529
  ----------------------------------------
  Sum of atomic charges =     0.000000

                    Cartesian Multipole Moments
 -----------------------------------------------------------------
    Charge (ESU x 10^10)
                 0.0000
    Dipole Moment (Debye)
         X      -1.0851      Y       1.9007      Z       3.6466
       Tot       4.2529
    Quadrupole Moments (Debye-Ang)
        XX    -152.2664     XY      -1.2301     YY    -140.5934
        XZ      -5.2193     YZ      -3.8370     ZZ    -168.6117

 Total job time:  190.28s(wall), 9081.80s(cpu)
        *  Thank you very much for using Q-Chem.  Have a nice day.  *
