 Q-Chem 5.0, Q-Chem, Inc., Pleasanton, CA (2017)
 Q-Chem 5.0.1 for Intel X86 EM64T Linux

User input:
--------------------------------------------------------------
$molecule
0  1
O -4.5315090878 -0.887744667 2.2360974086
C -4.1198520458 -1.2892270874 1.1274054071
C -3.4772715333 -0.4484596783 -0.0347922971
C -2.6961914295 0.8646210495 0.3837802926
C -1.8558147981 0.5699570606 1.7139723327
O -1.0340406493 1.5547253176 2.3587855541
C -0.0737745635 2.4082021689 1.6301225206
C 1.3152293904 2.1350687474 2.3214309109
O 1.6361675654 0.7257803811 2.0118453163
C 2.9070764357 0.579532125 1.3394371481
C 2.7451395206 -0.555355894 0.2684765509
C 1.7614814104 -0.240200158 -0.9334703646
C 1.6075053189 1.2744751069 -1.3264909381
O 0.8823189876 1.7251230694 -2.243128018
O -4.2047070574 -2.6514527661 0.6869793124
O 2.4652407798 2.1072357685 -0.5440489066
O 3.9348545794 1.2251808918 1.6317332417
C 2.3646916663 3.5171830062 -0.9825236924
C 4.0606201838 -1.001433471 -0.5007857671
C 3.886636479 -2.5321592512 -0.8406961143
C 2.7302815894 -2.456241607 -1.9073283743
C 2.5960789198 -0.8950982132 -2.1187347327
O 3.955377929 -0.3684989705 -1.8381634124
H 2.3283007076 -1.4223868577 0.8152849294
H 0.735230715 -0.6544948406 -0.8072002278
H 5.0070058492 -0.7117945113 -0.0041799051
H 4.8123785183 -2.9361023287 -1.2814127661
H 3.6183081399 -3.1358713225 0.0408212538
H 3.011537596 -2.9512882187 -2.8502044174
H 1.7894984065 -2.9002782469 -1.5438403403
H 2.2583626461 -0.5866764401 -3.1275357039
O -1.9329312384 -0.5302497788 2.3067295391
C -4.8184408122 -3.4855562995 1.7447878224
C -2.4484855401 -1.1621830484 -1.0179029371
C -2.7826700413 -0.6170812736 -2.4545206534
C -2.4308610676 0.9032835551 -2.2468238654
C -1.6906643355 0.8813843534 -0.8487280688
O -1.1497209524 -0.5008494463 -0.7409852816
H -4.3429537092 -0.1234076802 -0.6441315835
H -3.3385791574 1.7579288309 0.4818873882
H -5.8699063347 -3.190310381 1.9401379059
H -2.3739061982 -2.2602482071 -0.9015854829
H -2.1255819374 -1.0813938084 -3.2076297212
H -3.8329761936 -0.7842806258 -2.7416718173
H -1.7429106308 1.2774294859 -3.021418127
H -3.3263517967 1.5449636882 -2.2256461726
H -0.8733891909 1.6168923577 -0.8077729713
H -4.2521826265 -3.4175765761 2.6958391153
H -4.7917640641 -4.5249239313 1.3686071461
H 3.1004615339 4.0759993388 -0.375596228
H 1.3492665443 3.928072442 -0.8068933718
H 2.6076082077 3.6250685605 -2.0586629705
H 2.0980629292 2.8286471833 1.9471640722
H 1.2080939236 2.2642440002 3.4202969057
H -0.3661667623 3.4762941951 1.7482328852
H 0.0128958075 2.1783095843 0.5550673868
$end

$rem
JOBTYPE                   OPT
METHOD                    B3LYP
DFT_D                     d3_op
BASIS                     STO-3G
GEOM_OPT_MAX_CYCLES       100
GEOM_OPT_TOL_GRADIENT     300
GEOM_OPT_TOL_DISPLACEMENT 1200
GEOM_OPT_TOL_ENERGY       100
SYMMETRY                  False
THRESH                    12
SCF_CONVERGENCE           8
MAX_SUB_FILE_NUM          128
MEM_STATIC                400
MEM_TOTAL                 4000
$end
--------------------------------------------------------------

   16   -1510.2416464647      4.78E-09 Convergence criterion met
 Total energy in the final basis set = -1510.24164646
   14   -1510.2434941850      2.09E-09 Convergence criterion met
 Total energy in the final basis set = -1510.24349418
   14   -1510.2506130264      1.84E-09 Convergence criterion met
 Total energy in the final basis set = -1510.25061303
   14   -1510.2506647985      4.92E-09 Convergence criterion met
 Total energy in the final basis set = -1510.25066480
   14   -1510.2574312359      5.05E-09 Convergence criterion met
 Total energy in the final basis set = -1510.25743124
   14   -1510.2641345736      2.65E-09 Convergence criterion met
 Total energy in the final basis set = -1510.26413457
   13   -1510.2673832428      9.53E-09 Convergence criterion met
 Total energy in the final basis set = -1510.26738324
   13   -1510.2701053597      6.28E-09 Convergence criterion met
   12   -1510.2910301673      3.28E-09 Convergence criterion met
 Total energy in the final basis set = -1510.29103017
   12   -1510.2910142467      7.47E-09 Convergence criterion met
 Total energy in the final basis set = -1510.29101425
   12   -1510.2910475706      3.63E-09 Convergence criterion met
 Total energy in the final basis set = -1510.29104757
   10   -1510.2910523006      8.85E-09 Convergence criterion met
 Total energy in the final basis set = -1510.29105230
   10   -1510.2910518434      8.33E-09 Convergence criterion met
 Total energy in the final basis set = -1510.29105184
    9   -1510.2910524910      5.82E-09 Convergence criterion met
 Total energy in the final basis set = -1510.29105249

             Standard Nuclear Orientation (Angstroms)
    I     Atom           X                Y                Z
 ----------------------------------------------------------------
    1      O       4.0331636382     0.5406679894     1.7588368240
    2      C       3.2144546561     0.8336898336     0.8601679819
    3      C       3.1688339132     0.2114146344    -0.5881678696
    4      C       2.1680952513    -1.0146499597    -0.7471978000
    5      C       1.5274836469    -1.4497798928     0.6271530608
    6      O       1.2134464273    -2.8415941140     0.8433429108
    7      C       0.5629548023    -3.4963396328    -0.3084513939
    8      C      -0.9603336225    -3.0824975220    -0.3508249884
    9      O      -1.0042992319    -1.6109372353    -0.2771774936
   10      C      -1.7235306999    -1.1509361932     0.8992737882
   11      C      -1.3608126964     0.3546529507     1.0885074356
   12      C      -1.4995206378     1.2263556902    -0.2239013550
   13      C      -2.2615277505     0.4728412544    -1.3624037833
   14      O      -1.9885979462     0.4435118719    -2.5818062425
   15      O       2.2545589280     1.8960225301     0.9585801272
   16      O      -3.3780479086    -0.2223230546    -0.7806567816
   17      O      -2.3851174333    -1.9093117624     1.6340003168
   18      C      -4.0737282243    -1.0235493216    -1.8111347113
   19      C      -2.3138827198     1.1247076169     2.0912968840
   20      C      -1.5154416795     2.3740381401     2.6272019465
   21      C      -1.4757407207     3.2732850907     1.3354869901
   22      C      -2.3682599340     2.4293833764     0.3387870165
   23      O      -3.3421660326     1.7413047236     1.2188639656
   24      H      -0.3075802191     0.3620835295     1.4420062922
   25      H      -0.5036078608     1.5196156303    -0.6206330208
   26      H      -2.7855785861     0.4811227883     2.8590276475
   27      H      -2.0710396145     2.8654166563     3.4420307676
   28      H      -0.5130871987     2.1021800273     2.9917662166
   29      H      -1.9209897353     4.2647141262     1.5145619420
   30      H      -0.4531868590     3.4063061263     0.9469272277
   31      H      -2.8949854896     3.0202635010    -0.4356059950
   32      O       1.4360874141    -0.6834736872     1.6169940457
   33      C       2.2866129098     2.4580673888     2.3262790794
   34      C       2.5764199062     1.2182399124    -1.6584203027
   35      C       2.8613774719     0.6616975407    -3.1105012248
   36      C       1.7848983811    -0.4824107265    -3.2229177130
   37      C       1.1252706907    -0.4139533195    -1.7949384838
   38      O       1.1161451922     1.0344535649    -1.5023482798
   39      H       4.1976014425    -0.1024986031    -0.8402035049
   40      H       2.6969954530    -1.8811284391    -1.1813712097
   41      H       3.3045340916     2.7968127506     2.6078670147
   42      H       2.8547842047     2.2766675153    -1.4946502268
   43      H       2.6954540006     1.4481497059    -3.8634612753
   44      H       3.8924406480     0.2866375887    -3.2124195627
   45      H       1.0347614864    -0.2549347454    -3.9972284536
   46      H       2.2290743807    -1.4678831748    -3.4361735567
   47      H       0.1037468527    -0.8269387957    -1.6784283208
   48      H       1.9458159542     1.7114170229     3.0728682583
   49      H       1.5955006172     3.3207278015     2.3209883819
   50      H      -4.9163225803    -1.5200823386    -1.2957326563
   51      H      -3.4028417769    -1.7910897414    -2.2488962102
   52      H      -4.4622765334    -0.3874500468    -2.6322525793
   53      H      -1.4258972921    -3.4238334317    -1.2997675713
   54      H      -1.5186616507    -3.5012563479     0.5142487310
   55      H       0.6525838122    -4.5884600237    -0.1344629144
   56      H       1.0496288658    -3.2493758913    -1.2745723599
 ----------------------------------------------------------------

    9   -1510.2910527937      2.09E-09 Convergence criterion met
 Total energy in the final basis set = -1510.29105279
 Final energy is   -1510.29105279370
 **  OPTIMIZATION CONVERGED  **

                    Orbital Energies (a.u.)
 --------------------------------------------------------------

 Alpha MOs
 -- Occupied --
-18.938 -18.935 -18.929 -18.924 -18.897 -18.893 -18.886 -18.877
-18.867 -18.861 -10.113 -10.106 -10.093 -10.091 -10.088 -10.079
-10.064 -10.061 -10.057 -10.057 -10.051 -10.049 -10.042 -10.038
-10.025 -10.023 -10.022 -10.017 -10.011 -10.010  -1.024  -1.012
 -1.003  -1.000  -0.976  -0.960  -0.952  -0.941  -0.930  -0.926
 -0.766  -0.755  -0.725  -0.722  -0.710  -0.708  -0.694  -0.657
 -0.655  -0.617  -0.601  -0.584  -0.550  -0.542  -0.540  -0.530
 -0.520  -0.505  -0.489  -0.481  -0.467  -0.462  -0.452  -0.441
 -0.435  -0.428  -0.426  -0.415  -0.409  -0.407  -0.407  -0.402
 -0.400  -0.394  -0.376  -0.368  -0.361  -0.357  -0.352  -0.349
 -0.342  -0.338  -0.334  -0.334  -0.326  -0.322  -0.318  -0.311
 -0.309  -0.305  -0.303  -0.296  -0.291  -0.288  -0.282  -0.278
 -0.267  -0.256  -0.250  -0.245  -0.244  -0.232  -0.222  -0.194
 -0.175  -0.172  -0.167  -0.164  -0.160  -0.151  -0.144  -0.142
 -0.134

          Ground-State Mulliken Net Atomic Charges

     Atom                 Charge (a.u.)
  ----------------------------------------
      1 O                    -0.219997
      2 C                     0.213109
      3 C                    -0.080070
      4 C                    -0.085856
      5 C                     0.218372
      6 O                    -0.172672
      7 C                    -0.046840
      8 C                    -0.056576
      9 O                    -0.189492
     10 C                     0.226112
     11 C                    -0.085501
     12 C                    -0.092121
     13 C                     0.209191
     14 O                    -0.218696
     15 O                    -0.171826
     16 O                    -0.167699
     17 O                    -0.205847
     18 C                    -0.127609
     19 C                     0.024449
     20 C                    -0.143193
     21 C                    -0.144868
     22 C                     0.024452
     23 O                    -0.189445
     24 H                     0.101735
     25 H                     0.114481
     26 H                     0.087810
     27 H                     0.075299
     28 H                     0.075058
     29 H                     0.074644
     30 H                     0.077284
     31 H                     0.079887
     32 O                    -0.198708
     33 C                    -0.128652
     34 C                     0.028242
     35 C                    -0.144303
     36 C                    -0.144305
     37 C                     0.015771
     38 O                    -0.187486
     39 H                     0.083657
     40 H                     0.078878
     41 H                     0.088283
     42 H                     0.088160
     43 H                     0.079535
     44 H                     0.073326
     45 H                     0.083790
     46 H                     0.069580
     47 H                     0.104292
     48 H                     0.091055
     49 H                     0.086653
     50 H                     0.091865
     51 H                     0.081717
     52 H                     0.089159
     53 H                     0.083889
     54 H                     0.104926
     55 H                     0.094315
     56 H                     0.082789
  ----------------------------------------
  Sum of atomic charges =    -0.000000

                    Cartesian Multipole Moments
 -----------------------------------------------------------------
    Charge (ESU x 10^10)
                 0.0000
    Dipole Moment (Debye)
         X       1.1982      Y      -1.1710      Z      -3.0238
       Tot       3.4569
    Quadrupole Moments (Debye-Ang)
        XX    -166.3311     XY       3.1940     YY    -147.0519
        XZ      -4.4721     YZ      11.3977     ZZ    -162.8360

 Total job time:  208.13s(wall), 9935.12s(cpu)
        *  Thank you very much for using Q-Chem.  Have a nice day.  *
