 Q-Chem 5.0, Q-Chem, Inc., Pleasanton, CA (2017)
 Q-Chem 5.0.1 for Intel X86 EM64T Linux

User input:
--------------------------------------------------------------
$molecule
0  1
O -3.94934 -3.66094 2.70899
C -3.26408 -4.56952 2.26188
C -3.36658 -6.02376 2.66595
C -4.73745 -6.52338 3.15068
C -5.89497 -5.55994 3.00924
O -7.04 -6.13828 3.47813
C -7.24113 -7.46789 2.98728
C -8.58697 -7.56792 2.27677
O -8.57301 -6.76404 1.08661
C -8.85473 -7.42239 -0.06506
C -8.02617 -6.94453 -1.23374
C -6.52274 -7.23772 -1.12421
C -6.12238 -8.25289 -0.07261
O -4.97902 -8.61573 0.16329
O -2.36035 -4.29119 1.28732
O -7.05886 -9.20048 0.22244
O -9.69656 -8.30896 -0.14519
C -6.8265 -10.40498 0.85929
C -8.34474 -7.64831 -2.5722
C -7.91508 -6.75597 -3.73627
C -6.40716 -6.85171 -3.62458
C -6.28164 -7.88474 -2.49939
O -7.41711 -8.70137 -2.65306
H -8.24249 -5.85868 -1.35196
H -5.91487 -6.32356 -0.94677
H -9.41507 -7.92693 -2.68448
H -8.23435 -7.26973 -4.67157
H -8.32682 -5.72387 -3.72943
H -6.00942 -7.25645 -4.58162
H -5.88809 -5.90375 -3.36429
H -5.29891 -8.40343 -2.55537
O -6.00442 -4.72369 2.12699
C -2.14008 -3.03249 0.76879
C -2.55787 -7.23218 2.22351
C -1.95518 -7.94633 3.43245
C -3.23036 -8.44708 4.10635
C -4.31036 -8.05673 3.05719
O -3.55087 -8.13608 1.87887
H -2.86781 -5.75914 3.63101
H -4.75515 -6.43139 4.26293
H -1.80017 -2.34242 1.57045
H -1.81784 -7.00431 1.42754
H -1.38234 -8.81773 3.04092
H -1.28765 -7.33547 4.07791
H -3.14369 -9.55336 4.19695
H -3.43796 -8.01939 5.11038
H -5.09575 -8.82005 3.18876
H -3.07106 -2.64118 0.30552
H -1.35175 -3.0925 -0.00929
H -7.78498 -10.95515 0.95239
H -6.416 -10.23693 1.87463
H -6.1188 -11.02127 0.26516
H -8.794 -8.64366 2.07478
H -9.38598 -7.20507 2.95764
H -7.23846 -8.16807 3.85014
H -6.56536 -7.77774 2.21024
$end

$opt
CONSTRAINT
tors           1           2           3           4     +28.421
tors           3           4           5           6    -180.000
tors           4           5           6           7     -47.368
tors           5           6           7           8    -123.158
tors           6           7           8           9     +66.316
tors           7           8           9          10    +123.158
tors           8           9          10          11    -142.105
tors           9          10          11          12     +66.316
tors          11          12          13          14    -180.000
ENDCONSTRAINT
$end

$rem
JOBTYPE                   OPT
METHOD                    B3LYP
DFT_D                     d3_op
BASIS                     STO-3G
GEOM_OPT_MAX_CYCLES       100
GEOM_OPT_TOL_GRADIENT     300
GEOM_OPT_TOL_DISPLACEMENT 1200
GEOM_OPT_TOL_ENERGY       100
SYMMETRY                  False
THRESH                    12
SCF_CONVERGENCE           8
MAX_SUB_FILE_NUM          128
MEM_STATIC                400
MEM_TOTAL                 4000
$end
--------------------------------------------------------------

   16   -1510.0020684971      2.22E-09 Convergence criterion met
 Total energy in the final basis set = -1510.00206850
   14   -1510.0834863448      7.69E-09 Convergence criterion met
 Total energy in the final basis set = -1510.08348634
   14   -1510.1348890419      5.65E-09 Convergence criterion met
 Total energy in the final basis set = -1510.13488904
   14   -1510.1677303235      7.36E-09 Convergence criterion met
 Total energy in the final basis set = -1510.16773032
   14   -1510.1889267139      4.65E-09 Convergence criterion met
 Total energy in the final basis set = -1510.18892671
   14   -1510.2034657846      5.24E-09 Convergence criterion met
 Total energy in the final basis set = -1510.20346578
   13   -1510.2145953515      7.59E-09 Convergence criterion met
 Total energy in the final basis set = -1510.21459535
   14   -1510.2231213471      4.70E-09 Convergence criterion met
    9   -1510.2417229037      4.25E-09 Convergence criterion met
 Total energy in the final basis set = -1510.24172290
    9   -1510.2417251252      4.64E-09 Convergence criterion met
 Total energy in the final basis set = -1510.24172513
    9   -1510.2417272521      3.47E-09 Convergence criterion met
 Total energy in the final basis set = -1510.24172725
    9   -1510.2417288392      2.45E-09 Convergence criterion met
 Total energy in the final basis set = -1510.24172884
    9   -1510.2417300751      2.10E-09 Convergence criterion met
 Total energy in the final basis set = -1510.24173008
    9   -1510.2417313445      1.96E-09 Convergence criterion met
 Total energy in the final basis set = -1510.24173134

             Standard Nuclear Orientation (Angstroms)
    I     Atom           X                Y                Z
 ----------------------------------------------------------------
    1      O      -4.5315090878    -0.8877446670     2.2360974086
    2      C      -4.1198520458    -1.2892270874     1.1274054071
    3      C      -3.4772715333    -0.4484596783    -0.0347922971
    4      C      -2.6961914295     0.8646210495     0.3837802926
    5      C      -1.8558147981     0.5699570606     1.7139723327
    6      O      -1.0340406493     1.5547253176     2.3587855541
    7      C      -0.0737745635     2.4082021689     1.6301225206
    8      C       1.3152293904     2.1350687474     2.3214309109
    9      O       1.6361675654     0.7257803811     2.0118453163
   10      C       2.9070764357     0.5795321250     1.3394371481
   11      C       2.7451395206    -0.5553558940     0.2684765509
   12      C       1.7614814104    -0.2402001580    -0.9334703646
   13      C       1.6075053189     1.2744751069    -1.3264909381
   14      O       0.8823189876     1.7251230694    -2.2431280180
   15      O      -4.2047070574    -2.6514527661     0.6869793124
   16      O       2.4652407798     2.1072357685    -0.5440489066
   17      O       3.9348545794     1.2251808918     1.6317332417
   18      C       2.3646916663     3.5171830062    -0.9825236924
   19      C       4.0606201838    -1.0014334710    -0.5007857671
   20      C       3.8866364790    -2.5321592512    -0.8406961143
   21      C       2.7302815894    -2.4562416070    -1.9073283743
   22      C       2.5960789198    -0.8950982132    -2.1187347327
   23      O       3.9553779290    -0.3684989705    -1.8381634124
   24      H       2.3283007076    -1.4223868577     0.8152849294
   25      H       0.7352307150    -0.6544948406    -0.8072002278
   26      H       5.0070058492    -0.7117945113    -0.0041799051
   27      H       4.8123785183    -2.9361023287    -1.2814127661
   28      H       3.6183081399    -3.1358713225     0.0408212538
   29      H       3.0115375960    -2.9512882187    -2.8502044174
   30      H       1.7894984065    -2.9002782469    -1.5438403403
   31      H       2.2583626461    -0.5866764401    -3.1275357039
   32      O      -1.9329312384    -0.5302497788     2.3067295391
   33      C      -4.8184408122    -3.4855562995     1.7447878224
   34      C      -2.4484855401    -1.1621830484    -1.0179029371
   35      C      -2.7826700413    -0.6170812736    -2.4545206534
   36      C      -2.4308610676     0.9032835551    -2.2468238654
   37      C      -1.6906643355     0.8813843534    -0.8487280688
   38      O      -1.1497209524    -0.5008494463    -0.7409852816
   39      H      -4.3429537092    -0.1234076802    -0.6441315835
   40      H      -3.3385791574     1.7579288309     0.4818873882
   41      H      -5.8699063347    -3.1903103810     1.9401379059
   42      H      -2.3739061982    -2.2602482071    -0.9015854829
   43      H      -2.1255819374    -1.0813938084    -3.2076297212
   44      H      -3.8329761936    -0.7842806258    -2.7416718173
   45      H      -1.7429106308     1.2774294859    -3.0214181270
   46      H      -3.3263517967     1.5449636882    -2.2256461726
   47      H      -0.8733891909     1.6168923577    -0.8077729713
   48      H      -4.2521826265    -3.4175765761     2.6958391153
   49      H      -4.7917640641    -4.5249239313     1.3686071461
   50      H       3.1004615339     4.0759993388    -0.3755962280
   51      H       1.3492665443     3.9280724420    -0.8068933718
   52      H       2.6076082077     3.6250685605    -2.0586629705
   53      H       2.0980629292     2.8286471833     1.9471640722
   54      H       1.2080939236     2.2642440002     3.4202969057
   55      H      -0.3661667623     3.4762941951     1.7482328852
   56      H       0.0128958075     2.1783095843     0.5550673868
 ----------------------------------------------------------------

    9   -1510.2417321744      1.68E-09 Convergence criterion met
 Total energy in the final basis set = -1510.24173217
 Final energy is   -1510.24173217436
 **  OPTIMIZATION CONVERGED  **

                    Orbital Energies (a.u.)
 --------------------------------------------------------------

 Alpha MOs
 -- Occupied --
-18.946 -18.928 -18.915 -18.910 -18.900 -18.880 -18.880 -18.875
-18.872 -18.867 -10.103 -10.102 -10.097 -10.096 -10.080 -10.073
-10.070 -10.066 -10.066 -10.060 -10.055 -10.053 -10.045 -10.038
-10.029 -10.026 -10.025 -10.024 -10.017 -10.015  -1.021  -1.007
 -1.001  -0.995  -0.980  -0.965  -0.942  -0.937  -0.929  -0.923
 -0.768  -0.757  -0.725  -0.721  -0.711  -0.709  -0.696  -0.669
 -0.659  -0.611  -0.600  -0.586  -0.551  -0.543  -0.540  -0.533
 -0.521  -0.507  -0.490  -0.486  -0.465  -0.461  -0.455  -0.443
 -0.437  -0.432  -0.424  -0.416  -0.411  -0.408  -0.405  -0.402
 -0.396  -0.385  -0.377  -0.372  -0.370  -0.360  -0.353  -0.345
 -0.342  -0.340  -0.337  -0.328  -0.328  -0.322  -0.319  -0.314
 -0.306  -0.306  -0.303  -0.300  -0.295  -0.292  -0.287  -0.277
 -0.271  -0.252  -0.251  -0.241  -0.233  -0.227  -0.223  -0.186
 -0.175  -0.172  -0.160  -0.159  -0.153  -0.148  -0.146  -0.140
 -0.139

          Ground-State Mulliken Net Atomic Charges

     Atom                 Charge (a.u.)
  ----------------------------------------
      1 O                    -0.212179
      2 C                     0.216623
      3 C                    -0.078396
      4 C                    -0.078645
      5 C                     0.220051
      6 O                    -0.186176
      7 C                    -0.041388
      8 C                    -0.042570
      9 O                    -0.185722
     10 C                     0.221591
     11 C                    -0.081746
     12 C                    -0.089695
     13 C                     0.206025
     14 O                    -0.224878
     15 O                    -0.174882
     16 O                    -0.168351
     17 O                    -0.207545
     18 C                    -0.127679
     19 C                     0.022754
     20 C                    -0.141462
     21 C                    -0.145188
     22 C                     0.023092
     23 O                    -0.194211
     24 H                     0.086558
     25 H                     0.114350
     26 H                     0.088513
     27 H                     0.076628
     28 H                     0.073871
     29 H                     0.076570
     30 H                     0.075476
     31 H                     0.082056
     32 O                    -0.186380
     33 C                    -0.128250
     34 C                     0.025632
     35 C                    -0.140270
     36 C                    -0.146372
     37 C                     0.020612
     38 O                    -0.195802
     39 H                     0.081601
     40 H                     0.086387
     41 H                     0.086238
     42 H                     0.094913
     43 H                     0.078800
     44 H                     0.075663
     45 H                     0.087618
     46 H                     0.073526
     47 H                     0.081908
     48 H                     0.093859
     49 H                     0.088317
     50 H                     0.095241
     51 H                     0.082913
     52 H                     0.095348
     53 H                     0.091203
     54 H                     0.090632
     55 H                     0.081118
     56 H                     0.082100
  ----------------------------------------
  Sum of atomic charges =    -0.000000

                    Cartesian Multipole Moments
 -----------------------------------------------------------------
    Charge (ESU x 10^10)
                -0.0000
    Dipole Moment (Debye)
         X      -1.9284      Y       0.7327      Z      -2.6569
       Tot       3.3638
    Quadrupole Moments (Debye-Ang)
        XX    -164.6153     XY      -0.6076     YY    -142.1925
        XZ       6.9348     YZ       1.1724     ZZ    -170.7231

 Total job time:  87.27s(wall), 4161.81s(cpu)
        *  Thank you very much for using Q-Chem.  Have a nice day.  *
