 Q-Chem 5.0, Q-Chem, Inc., Pleasanton, CA (2017)
 Q-Chem 5.0.1 for Intel X86 EM64T Linux

User input:
--------------------------------------------------------------
$molecule
0  1
O -1.6958871098 -0.459453146 1.9501784958
C -2.565579982 -1.0398791912 1.2671047276
C -3.9902282145 -0.4874643413 0.8916122431
C -4.0705902406 1.0036749082 0.3366001927
C -2.7461048268 1.653661636 -0.2211380932
O -1.8023975038 1.8358066496 0.8317247283
C -0.5345711911 2.447306586 0.3529727823
C 0.1209134735 1.8249749922 -0.9570749667
O 1.5142763603 1.3638672246 -0.7366049792
C 1.5269885819 0.0276230939 -0.2079867628
C 2.7219574769 -0.7754517501 -0.8352962818
C 4.1143738455 -0.0289030411 -0.83782284
C 4.1173678919 1.2063299225 0.1261065256
O 3.431582216 1.3468628841 1.1628589313
O -2.3970076765 -2.343758323 0.6996488107
O 5.0826684839 2.1529812512 -0.3389036085
O 0.6095774358 -0.4459469099 0.4975950169
C 5.1345340734 3.3116179479 0.583497726
C 3.0775296017 -2.1145881726 -0.0640994559
C 3.7935635914 -3.0755230241 -1.0896435414
C 5.1802368355 -2.348379082 -1.2564578863
C 5.0387336256 -1.1658348929 -0.2157448158
O 4.1766632368 -1.7249999367 0.8504096511
H 2.4153049663 -0.999580834 -1.8749715717
H 4.4381901676 0.2800335181 -1.8467316221
H 2.2324191505 -2.5505061879 0.5033480561
H 3.9162838322 -4.0797319922 -0.6533914664
H 3.241221666 -3.1658379008 -2.0385023136
H 6.0205292513 -3.0062692592 -0.9836997492
H 5.3425754019 -1.9757421658 -2.2806018082
H 5.9928045523 -0.7964031047 0.2080494255
O -2.5654527171 2.0301206861 -1.4015681519
C -1.0424289423 -2.8594169603 1.0199609763
C -4.7607468709 -1.2829631645 -0.2485862291
C -6.3084696877 -1.1000498725 -0.0002891183
C -6.4902013549 0.4151788861 -0.387142818
C -5.0405108535 0.782152709 -0.8976918274
O -4.5269721371 -0.4843196193 -1.4730868762
H -4.5803605252 -0.5288745541 1.8270088393
H -4.492898517 1.6790382092 1.1032209258
H -0.9843076113 -3.1921022897 2.0765414728
H -4.4086680853 -2.3232824126 -0.3838870122
H -6.8834741535 -1.7573673815 -0.672250211
H -6.5998059088 -1.3152075745 1.0402466681
H -7.2298189189 0.5439406123 -1.1930333168
H -6.7925235489 1.0373710616 0.4705947518
H -4.9865409385 1.59195754 -1.6507748672
H -0.2706490015 -2.0744816678 0.8413655885
H -0.8842814066 -3.7289294553 0.35589678
H 5.8761949801 4.0105930282 0.155218216
H 5.4542810827 3.0083495115 1.601574195
H 4.1489801764 3.8143580249 0.6601229923
H -0.5047262638 0.9898442228 -1.3313377852
H 0.1908346987 2.6011135721 -1.7442860346
H 0.1691219381 2.3213498653 1.2010116904
H -0.696317154 3.5360830354 0.1907991677
$end

$rem
JOBTYPE                   OPT
METHOD                    B3LYP
DFT_D                     d3_op
BASIS                     STO-3G
GEOM_OPT_MAX_CYCLES       100
GEOM_OPT_TOL_GRADIENT     300
GEOM_OPT_TOL_DISPLACEMENT 1200
GEOM_OPT_TOL_ENERGY       100
SYMMETRY                  False
THRESH                    12
SCF_CONVERGENCE           8
MAX_SUB_FILE_NUM          128
MEM_STATIC                400
MEM_TOTAL                 4000
$end
--------------------------------------------------------------

   16   -1510.2687317477      5.12E-09 Convergence criterion met
 Total energy in the final basis set = -1510.26873175
   14   -1510.2733964657      3.16E-09 Convergence criterion met
 Total energy in the final basis set = -1510.27339647
   14   -1510.2757916452      3.86E-09 Convergence criterion met
 Total energy in the final basis set = -1510.27579165
   14   -1510.2811006289      2.39E-09 Convergence criterion met
 Total energy in the final basis set = -1510.28110063
   14   -1510.2781436329      3.40E-09 Convergence criterion met
 Total energy in the final basis set = -1510.27814363
   13   -1510.2832443784      8.86E-09 Convergence criterion met
 Total energy in the final basis set = -1510.28324438
   13   -1510.2835662167      9.37E-09 Convergence criterion met
 Total energy in the final basis set = -1510.28356622
   13   -1510.2849324889      9.97E-09 Convergence criterion met
   12   -1510.2937527253      4.87E-09 Convergence criterion met
 Total energy in the final basis set = -1510.29375273
   12   -1510.2937884897      2.94E-09 Convergence criterion met
 Total energy in the final basis set = -1510.29378849
   11   -1510.2937973332      7.00E-09 Convergence criterion met
 Total energy in the final basis set = -1510.29379733
   10   -1510.2937954001      6.57E-09 Convergence criterion met
 Total energy in the final basis set = -1510.29379540
    9   -1510.2937959263      9.49E-09 Convergence criterion met
 Total energy in the final basis set = -1510.29379593
    9   -1510.2937968883      4.47E-09 Convergence criterion met
 Total energy in the final basis set = -1510.29379689

             Standard Nuclear Orientation (Angstroms)
    I     Atom           X                Y                Z
 ----------------------------------------------------------------
    1      O       2.1986015893     1.5540270971     2.0466877683
    2      C       2.8621120278     1.1020732069     1.0880568601
    3      C       4.0633235129     0.0964425429     1.1796030443
    4      C       3.9314443709    -1.2205197788     0.3078137054
    5      C       2.6042709016    -1.3789381409    -0.5119449828
    6      O       1.4880748878    -1.0969654877     0.3381498090
    7      C       0.2146276576    -1.3846561156    -0.3660699598
    8      C      -0.0417712946    -0.4490724800    -1.6142327445
    9      O      -1.4911819940    -0.1765323013    -1.7747224877
   10      C      -1.9146795462     0.9168336540    -0.9539667715
   11      C      -3.4617223252     1.1009775431    -1.1732790119
   12      C      -4.3604472361    -0.0207852049    -0.5093109469
   13      C      -3.5350236853    -1.0191676607     0.3641588459
   14      O      -2.4135397993    -0.8144467109     0.8844840194
   15      O       2.7008794000     1.5114160153    -0.2722478843
   16      O      -4.2819362572    -2.2233315011     0.5242115596
   17      O      -1.1637139295     1.6548372675    -0.2782023478
   18      C      -3.5301810540    -3.1806539817     1.3714416549
   19      C      -4.0027168529     2.4009081032    -0.4444832969
   20      C      -5.3884674630     2.7864909532    -1.0931142910
   21      C      -6.3161323414     1.6562290313    -0.5104227560
   22      C      -5.3023319228     0.8718006465     0.4148519929
   23      O      -4.3802623210     1.9180029729     0.9053433767
   24      H      -3.6441058027     1.1400268930    -2.2624454864
   25      H      -4.9417510880    -0.5909833678    -1.2550528786
   26      H      -3.2566823083     3.2152796603    -0.3658014989
   27      H      -5.7084590108     3.7847287614    -0.7539874893
   28      H      -5.3500852472     2.7814789360    -2.1940909385
   29      H      -7.1391479110     2.0745589047     0.0903861664
   30      H      -6.7437596930     1.0097750116    -1.2935844278
   31      H      -5.7625230229     0.3245765704     1.2607096156
   32      O       2.5053295096    -1.7549907789    -1.7001942938
   33      C       1.6835812348     2.5892821081    -0.3618555541
   34      C       5.3870867751     0.7209268845     0.5508097959
   35      C       6.6275341427    -0.1300165058     1.0373740355
   36      C       6.4838880169    -1.4189213011     0.1442864226
   37      C       5.1730132985    -1.0780747323    -0.6650814790
   38      O       5.2736464776     0.3831069880    -0.8853868763
   39      H       4.1985669871    -0.1511173794     2.2470271701
   40      H       4.0293713642    -2.1143942125     0.9521001142
   41      H       1.8825262210     3.3897800375     0.3778380974
   42      H       5.4858043649     1.8155346868     0.6852375475
   43      H       7.5673992593     0.4051877273     0.8277683814
   44      H       6.5809495549    -0.3515926141     2.1156222401
   45      H       7.3402526309    -1.5332202695    -0.5392276877
   46      H       6.3792547830    -2.3406315908     0.7386132540
   47      H       5.0424740155    -1.6081028552    -1.6289640813
   48      H       0.6482690828     2.2014201424    -0.2086849661
   49      H       1.7770083445     3.0007964011    -1.3837376295
   50      H      -4.1794319341    -4.0690944788     1.4761559711
   51      H      -3.3127669299    -2.7557247491     2.3723995084
   52      H      -2.5720987660    -3.4744147080     0.8962324781
   53      H       0.5289598507     0.4929992324    -1.4906194481
   54      H       0.2811342044    -0.9478409141    -2.5484494064
   55      H      -0.5951857100    -1.2068432237     0.3774323455
   56      H       0.1864777662    -2.4475741472    -0.6871371069
 ----------------------------------------------------------------

    8   -1510.2937971790      7.61E-09 Convergence criterion met
 Total energy in the final basis set = -1510.29379718
 Final energy is   -1510.29379717898
 **  OPTIMIZATION CONVERGED  **

                    Orbital Energies (a.u.)
 --------------------------------------------------------------

 Alpha MOs
 -- Occupied --
-18.951 -18.932 -18.930 -18.913 -18.892 -18.892 -18.881 -18.880
-18.870 -18.855 -10.114 -10.105 -10.096 -10.082 -10.075 -10.066
-10.063 -10.061 -10.057 -10.053 -10.051 -10.046 -10.040 -10.032
-10.031 -10.027 -10.025 -10.023 -10.015 -10.014  -1.026  -1.012
 -1.007  -0.991  -0.975  -0.963  -0.950  -0.939  -0.932  -0.916
 -0.768  -0.756  -0.729  -0.719  -0.712  -0.700  -0.691  -0.673
 -0.641  -0.616  -0.596  -0.583  -0.550  -0.541  -0.536  -0.531
 -0.518  -0.503  -0.482  -0.472  -0.463  -0.459  -0.456  -0.440
 -0.435  -0.427  -0.423  -0.421  -0.417  -0.410  -0.398  -0.394
 -0.389  -0.382  -0.371  -0.363  -0.360  -0.355  -0.352  -0.349
 -0.340  -0.338  -0.331  -0.328  -0.324  -0.322  -0.317  -0.315
 -0.309  -0.305  -0.302  -0.299  -0.291  -0.284  -0.281  -0.276
 -0.268  -0.262  -0.260  -0.239  -0.238  -0.232  -0.227  -0.191
 -0.186  -0.168  -0.164  -0.163  -0.151  -0.149  -0.148  -0.137
 -0.133

          Ground-State Mulliken Net Atomic Charges

     Atom                 Charge (a.u.)
  ----------------------------------------
      1 O                    -0.214473
      2 C                     0.210408
      3 C                    -0.079117
      4 C                    -0.078549
      5 C                     0.213044
      6 O                    -0.168976
      7 C                    -0.061236
      8 C                    -0.055905
      9 O                    -0.177061
     10 C                     0.221337
     11 C                    -0.079679
     12 C                    -0.077898
     13 C                     0.218692
     14 O                    -0.210819
     15 O                    -0.174837
     16 O                    -0.165239
     17 O                    -0.209788
     18 C                    -0.128468
     19 C                     0.025108
     20 C                    -0.143607
     21 C                    -0.143806
     22 C                     0.025934
     23 O                    -0.186693
     24 H                     0.086007
     25 H                     0.089042
     26 H                     0.091521
     27 H                     0.079411
     28 H                     0.073953
     29 H                     0.079305
     30 H                     0.074271
     31 H                     0.084107
     32 O                    -0.217218
     33 C                    -0.147350
     34 C                     0.026139
     35 C                    -0.144279
     36 C                    -0.144084
     37 C                     0.023971
     38 O                    -0.186784
     39 H                     0.083170
     40 H                     0.083017
     41 H                     0.082699
     42 H                     0.082145
     43 H                     0.076732
     44 H                     0.073027
     45 H                     0.076963
     46 H                     0.071927
     47 H                     0.089245
     48 H                     0.110211
     49 H                     0.079040
     50 H                     0.093992
     51 H                     0.093916
     52 H                     0.090527
     53 H                     0.098610
     54 H                     0.097299
     55 H                     0.112179
     56 H                     0.078919
  ----------------------------------------
  Sum of atomic charges =     0.000000

                    Cartesian Multipole Moments
 -----------------------------------------------------------------
    Charge (ESU x 10^10)
                -0.0000
    Dipole Moment (Debye)
         X      -2.5224      Y      -2.2189      Z      -0.6678
       Tot       3.4252
    Quadrupole Moments (Debye-Ang)
        XX    -137.7671     XY      -2.3090     YY    -152.1666
        XZ      11.1366     YZ      -9.8900     ZZ    -164.7651

 Total job time:  88.86s(wall), 4235.72s(cpu)
        *  Thank you very much for using Q-Chem.  Have a nice day.  *
