 Q-Chem 5.0, Q-Chem, Inc., Pleasanton, CA (2017)
 Q-Chem 5.0.1 for Intel X86 EM64T Linux

User input:
--------------------------------------------------------------
$molecule
0  1
O -3.94934 -3.66094 2.70899
C -3.26408 -4.56952 2.26188
C -3.36658 -6.02376 2.66595
C -4.77372 -6.64113 2.71769
C -5.90468 -5.78727 2.1886
O -6.07579 -4.695 2.99054
C -7.13303 -3.83494 2.55259
C -7.01103 -3.57262 1.05512
O -6.92763 -2.15971 0.81097
C -5.68461 -1.62488 0.90037
C -5.42904 -0.55412 -0.13346
C -6.54297 0.4943 -0.26853
C -7.55292 0.5346 0.86067
O -7.33282 0.21576 2.02017
O -2.40475 -4.28351 1.24641
O -8.83033 0.82194 0.49748
O -5.0265 -1.68703 1.91876
C -9.89721 0.85628 1.37079
C -4.21332 0.3453 0.17134
C -3.71603 0.99743 -1.118
C -4.82465 1.99616 -1.37311
C -5.68889 1.77128 -0.12802
O -4.75983 1.43168 0.87242
H -5.25358 -1.0927 -1.09138
H -7.08168 0.48192 -1.24228
H -3.37718 -0.1898 0.67039
H -2.78519 1.55657 -0.87072
H -3.51045 0.29161 -1.95138
H -4.38582 3.01869 -1.35551
H -5.39714 1.84409 -2.3136
H -6.31006 2.67252 0.07454
O -6.69187 -6.18342 1.33318
C -2.23559 -3.03971 0.67756
C -2.65966 -7.01362 1.71477
C -2.32859 -8.30952 2.45571
C -3.704 -8.92767 2.57408
C -4.54474 -7.88515 1.83279
O -3.67817 -7.41116 0.82964
H -2.89875 -6.06606 3.6749
H -5.06191 -6.92974 3.75378
H -1.91828 -2.30404 1.44708
H -1.73239 -6.61348 1.25192
H -1.71487 -8.94445 1.77724
H -1.78702 -8.1645 3.41522
H -3.70918 -9.88351 2.00366
H -4.05882 -9.10687 3.61201
H -5.49108 -8.3527 1.48378
H -3.17919 -2.71096 0.19746
H -1.45076 -3.10203 -0.10362
H -10.81784 1.11872 0.81043
H -9.72443 1.62432 2.1549
H -10.03728 -0.13919 1.84393
H -6.16817 -4.05108 0.50679
H -7.94354 -3.93238 0.56863
H -7.1174 -2.89867 3.15012
H -8.10992 -4.32809 2.7584
$end

$opt
CONSTRAINT
tors           1           2           3           4     +47.368
tors           3           4           5           6     -66.316
tors           4           5           6           7    -180.000
tors           5           6           7           8     -47.368
tors           6           7           8           9    -123.158
tors           7           8           9          10     +85.263
tors           8           9          10          11    +142.105
tors           9          10          11          12     +47.368
tors          11          12          13          14     +28.421
ENDCONSTRAINT
$end

$rem
JOBTYPE                   OPT
METHOD                    B3LYP
DFT_D                     d3_op
BASIS                     STO-3G
GEOM_OPT_MAX_CYCLES       100
GEOM_OPT_TOL_GRADIENT     300
GEOM_OPT_TOL_DISPLACEMENT 1200
GEOM_OPT_TOL_ENERGY       100
SYMMETRY                  False
THRESH                    12
SCF_CONVERGENCE           8
MAX_SUB_FILE_NUM          128
MEM_STATIC                400
MEM_TOTAL                 4000
$end
--------------------------------------------------------------

   15   -1510.1174162350      6.46E-09 Convergence criterion met
 Total energy in the final basis set = -1510.11741623
   14   -1510.1908087089      5.96E-09 Convergence criterion met
 Total energy in the final basis set = -1510.19080871
   14   -1510.2296585490      5.96E-09 Convergence criterion met
 Total energy in the final basis set = -1510.22965855
   14   -1510.2503084814      9.74E-09 Convergence criterion met
 Total energy in the final basis set = -1510.25030848
   14   -1510.2589214913      3.52E-09 Convergence criterion met
 Total energy in the final basis set = -1510.25892149
   14   -1510.2634067922      3.88E-09 Convergence criterion met
 Total energy in the final basis set = -1510.26340679
   13   -1510.2663117030      3.78E-09 Convergence criterion met
 Total energy in the final basis set = -1510.26631170
   13   -1510.2677693909      7.99E-09 Convergence criterion met
   11   -1510.2687314699      3.46E-09 Convergence criterion met
 Total energy in the final basis set = -1510.26873147
   11   -1510.2687404467      5.28E-09 Convergence criterion met
 Total energy in the final basis set = -1510.26874045
   10   -1510.2687432531      7.51E-09 Convergence criterion met
 Total energy in the final basis set = -1510.26874325
    9   -1510.2687494109      9.81E-09 Convergence criterion met
 Total energy in the final basis set = -1510.26874941
    9   -1510.2687531752      3.81E-09 Convergence criterion met
 Total energy in the final basis set = -1510.26875318
   10   -1510.2687562061      5.25E-09 Convergence criterion met
 Total energy in the final basis set = -1510.26875621

             Standard Nuclear Orientation (Angstroms)
    I     Atom           X                Y                Z
 ----------------------------------------------------------------
    1      O      -1.6958871098    -0.4594531460     1.9501784958
    2      C      -2.5655799820    -1.0398791912     1.2671047276
    3      C      -3.9902282145    -0.4874643413     0.8916122431
    4      C      -4.0705902406     1.0036749082     0.3366001927
    5      C      -2.7461048268     1.6536616360    -0.2211380932
    6      O      -1.8023975038     1.8358066496     0.8317247283
    7      C      -0.5345711911     2.4473065860     0.3529727823
    8      C       0.1209134735     1.8249749922    -0.9570749667
    9      O       1.5142763603     1.3638672246    -0.7366049792
   10      C       1.5269885819     0.0276230939    -0.2079867628
   11      C       2.7219574769    -0.7754517501    -0.8352962818
   12      C       4.1143738455    -0.0289030411    -0.8378228400
   13      C       4.1173678919     1.2063299225     0.1261065256
   14      O       3.4315822160     1.3468628841     1.1628589313
   15      O      -2.3970076765    -2.3437583230     0.6996488107
   16      O       5.0826684839     2.1529812512    -0.3389036085
   17      O       0.6095774358    -0.4459469099     0.4975950169
   18      C       5.1345340734     3.3116179479     0.5834977260
   19      C       3.0775296017    -2.1145881726    -0.0640994559
   20      C       3.7935635914    -3.0755230241    -1.0896435414
   21      C       5.1802368355    -2.3483790820    -1.2564578863
   22      C       5.0387336256    -1.1658348929    -0.2157448158
   23      O       4.1766632368    -1.7249999367     0.8504096511
   24      H       2.4153049663    -0.9995808340    -1.8749715717
   25      H       4.4381901676     0.2800335181    -1.8467316221
   26      H       2.2324191505    -2.5505061879     0.5033480561
   27      H       3.9162838322    -4.0797319922    -0.6533914664
   28      H       3.2412216660    -3.1658379008    -2.0385023136
   29      H       6.0205292513    -3.0062692592    -0.9836997492
   30      H       5.3425754019    -1.9757421658    -2.2806018082
   31      H       5.9928045523    -0.7964031047     0.2080494255
   32      O      -2.5654527171     2.0301206861    -1.4015681519
   33      C      -1.0424289423    -2.8594169603     1.0199609763
   34      C      -4.7607468709    -1.2829631645    -0.2485862291
   35      C      -6.3084696877    -1.1000498725    -0.0002891183
   36      C      -6.4902013549     0.4151788861    -0.3871428180
   37      C      -5.0405108535     0.7821527090    -0.8976918274
   38      O      -4.5269721371    -0.4843196193    -1.4730868762
   39      H      -4.5803605252    -0.5288745541     1.8270088393
   40      H      -4.4928985170     1.6790382092     1.1032209258
   41      H      -0.9843076113    -3.1921022897     2.0765414728
   42      H      -4.4086680853    -2.3232824126    -0.3838870122
   43      H      -6.8834741535    -1.7573673815    -0.6722502110
   44      H      -6.5998059088    -1.3152075745     1.0402466681
   45      H      -7.2298189189     0.5439406123    -1.1930333168
   46      H      -6.7925235489     1.0373710616     0.4705947518
   47      H      -4.9865409385     1.5919575400    -1.6507748672
   48      H      -0.2706490015    -2.0744816678     0.8413655885
   49      H      -0.8842814066    -3.7289294553     0.3558967800
   50      H       5.8761949801     4.0105930282     0.1552182160
   51      H       5.4542810827     3.0083495115     1.6015741950
   52      H       4.1489801764     3.8143580249     0.6601229923
   53      H      -0.5047262638     0.9898442228    -1.3313377852
   54      H       0.1908346987     2.6011135721    -1.7442860346
   55      H       0.1691219381     2.3213498653     1.2010116904
   56      H      -0.6963171540     3.5360830354     0.1907991677
 ----------------------------------------------------------------

    9   -1510.2687571638      7.58E-09 Convergence criterion met
 Total energy in the final basis set = -1510.26875716
 Final energy is   -1510.26875716380
 **  OPTIMIZATION CONVERGED  **

                    Orbital Energies (a.u.)
 --------------------------------------------------------------

 Alpha MOs
 -- Occupied --
-18.937 -18.934 -18.925 -18.916 -18.889 -18.888 -18.878 -18.875
-18.867 -18.861 -10.107 -10.099 -10.095 -10.083 -10.071 -10.067
-10.065 -10.063 -10.060 -10.051 -10.049 -10.041 -10.040 -10.036
-10.032 -10.028 -10.023 -10.022 -10.015 -10.013  -1.016  -1.010
 -1.006  -0.994  -0.972  -0.962  -0.940  -0.935  -0.931  -0.918
 -0.766  -0.755  -0.727  -0.717  -0.709  -0.701  -0.693  -0.664
 -0.644  -0.615  -0.597  -0.584  -0.548  -0.540  -0.535  -0.530
 -0.513  -0.503  -0.480  -0.465  -0.462  -0.454  -0.453  -0.444
 -0.433  -0.427  -0.423  -0.413  -0.412  -0.408  -0.399  -0.393
 -0.389  -0.377  -0.367  -0.367  -0.361  -0.357  -0.350  -0.343
 -0.340  -0.335  -0.331  -0.330  -0.324  -0.321  -0.318  -0.314
 -0.308  -0.304  -0.300  -0.295  -0.292  -0.284  -0.275  -0.275
 -0.270  -0.256  -0.253  -0.239  -0.236  -0.235  -0.226  -0.187
 -0.177  -0.167  -0.159  -0.154  -0.153  -0.147  -0.145  -0.139
 -0.131

          Ground-State Mulliken Net Atomic Charges

     Atom                 Charge (a.u.)
  ----------------------------------------
      1 O                    -0.199447
      2 C                     0.203525
      3 C                    -0.080038
      4 C                    -0.077052
      5 C                     0.207175
      6 O                    -0.156557
      7 C                    -0.049204
      8 C                    -0.047306
      9 O                    -0.181079
     10 C                     0.224025
     11 C                    -0.078773
     12 C                    -0.077560
     13 C                     0.214682
     14 O                    -0.209217
     15 O                    -0.176425
     16 O                    -0.169438
     17 O                    -0.200201
     18 C                    -0.128287
     19 C                     0.024099
     20 C                    -0.143014
     21 C                    -0.144458
     22 C                     0.025276
     23 O                    -0.187772
     24 H                     0.084507
     25 H                     0.087808
     26 H                     0.089321
     27 H                     0.078691
     28 H                     0.073446
     29 H                     0.078735
     30 H                     0.074128
     31 H                     0.083334
     32 O                    -0.220386
     33 C                    -0.145470
     34 C                     0.021342
     35 C                    -0.143029
     36 C                    -0.145697
     37 C                     0.023554
     38 O                    -0.192282
     39 H                     0.081523
     40 H                     0.084040
     41 H                     0.077980
     42 H                     0.093107
     43 H                     0.076332
     44 H                     0.071955
     45 H                     0.076711
     46 H                     0.071820
     47 H                     0.088008
     48 H                     0.113650
     49 H                     0.077973
     50 H                     0.090474
     51 H                     0.089551
     52 H                     0.090758
     53 H                     0.095730
     54 H                     0.094296
     55 H                     0.103838
     56 H                     0.081298
  ----------------------------------------
  Sum of atomic charges =    -0.000000

                    Cartesian Multipole Moments
 -----------------------------------------------------------------
    Charge (ESU x 10^10)
                -0.0000
    Dipole Moment (Debye)
         X       1.0657      Y       0.3611      Z      -1.3188
       Tot       1.7336
    Quadrupole Moments (Debye-Ang)
        XX    -140.1664     XY       0.3925     YY    -148.8873
        XZ     -11.5063     YZ       3.3379     ZZ    -166.5002

 Total job time:  56.17s(wall), 2673.93s(cpu)
        *  Thank you very much for using Q-Chem.  Have a nice day.  *
