 Q-Chem 5.0, Q-Chem, Inc., Pleasanton, CA (2017)
 Q-Chem 5.0.1 for Intel X86 EM64T Linux

User input:
--------------------------------------------------------------
$molecule
0  1
O -1.2832183604 -2.3068761695 -0.5881507627
C -1.9007597345 -1.2522242352 -0.5512972003
C -2.4409220911 -0.5973440316 0.7008806384
C -1.9815970076 0.8398944626 0.9962319094
C -1.1746878071 1.525468785 -0.0840324049
O -0.4885941963 0.5952456967 -0.811628193
C -0.430683659 0.9036106923 -2.2083374351
C 0.9529542627 1.4314440853 -2.573154899
O 1.5453929845 2.078554532 -1.4359881573
C 1.4755010748 1.3886726744 -0.2705189535
C 1.4355086288 -0.1072475693 -0.4737705986
C 2.7511961926 -0.837545769 -0.1673556946
C 3.777388131 -0.0478802179 0.62007691
O 4.0332287552 -0.2021671629 1.8055332603
O -2.5359018728 -0.8719626276 -1.6969815588
O 4.3877760079 0.9647548544 -0.0512750755
O 1.6980905598 1.9194473305 0.8074788024
C 5.3153723825 1.8193420865 0.5059954921
C 0.858752277 -1.2586269793 0.5824171034
C 0.9177751535 -2.767839011 -0.0310357508
C 2.2403934305 -3.2545608096 0.2129700732
C 2.6853811947 -2.0111300419 0.8209239881
O 1.7114520614 -1.4920979126 1.6524649583
H 1.2309889018 -0.6086556 -1.4412863856
H 3.3051767885 -1.1342417764 -1.0903485451
H -0.0842136481 -0.9832261604 1.0123872212
H 0.2664791831 -3.4513070185 0.571030123
H 0.7501123489 -2.8475889733 -1.1330775664
H 2.2501991474 -4.0728270277 0.9734476044
H 2.8429018781 -3.5248910448 -0.683878121
H 3.6334698496 -2.3394997101 1.3225198295
O -1.0689902092 2.7389045828 -0.2216675203
C -2.6481807144 -1.6629121288 -2.826054927
C -3.9691111605 -0.4115965806 0.6347295428
C -4.5479971791 -0.251726926 2.0405095017
C -4.0846616076 1.1484812477 2.3737150293
C -3.3682073941 1.5215957834 1.0729285845
O -4.1209863963 0.8692991743 0.0809841166
H -2.2127687271 -1.282155944 1.5490204431
H -1.4403638343 0.9757373356 1.9583016502
H -3.2272893802 -2.5800528116 -2.5867614628
H -4.4836651644 -1.2420542002 0.1024693935
H -5.6583090787 -0.2467110227 1.9571402595
H -4.2338024649 -1.040737299 2.7572385101
H -4.9829217351 1.7939152904 2.4987810307
H -3.431053119 1.2356039253 3.268365155
H -3.3119741032 2.6290531503 0.986697795
H -1.6476685425 -1.9569132015 -3.2082663363
H -3.1861795443 -1.0976008507 -3.6141892594
H 5.6485550388 2.5457170447 -0.2631931806
H 6.1973020814 1.2460960773 0.8635514503
H 4.8609457819 2.3777824651 1.3521409179
H 1.6462024997 0.651135032 -2.9552724241
H 0.8883914871 2.1277878537 -3.4360897235
H -1.1550226835 1.7131148991 -2.468448453
H -0.6719738711 0.0604480809 -2.8733643388
$end

$rem
JOBTYPE                   OPT
METHOD                    B3LYP
DFT_D                     d3_op
BASIS                     STO-3G
GEOM_OPT_MAX_CYCLES       100
GEOM_OPT_TOL_GRADIENT     300
GEOM_OPT_TOL_DISPLACEMENT 1200
GEOM_OPT_TOL_ENERGY       100
SYMMETRY                  False
THRESH                    12
SCF_CONVERGENCE           8
MAX_SUB_FILE_NUM          128
MEM_STATIC                400
MEM_TOTAL                 4000
$end
--------------------------------------------------------------

   15   -1509.9463127002      8.63E-09 Convergence criterion met
 Total energy in the final basis set = -1509.94631270
   15   -1510.0359510815      4.27E-09 Convergence criterion met
 Total energy in the final basis set = -1510.03595108
   13   -1510.1195407519      8.04E-09 Convergence criterion met
 Total energy in the final basis set = -1510.11954075
   14   -1510.1753843278      5.64E-09 Convergence criterion met
 Total energy in the final basis set = -1510.17538433
   14   -1510.2131255792      5.77E-09 Convergence criterion met
 Total energy in the final basis set = -1510.21312558
   14   -1510.2366436690      6.26E-09 Convergence criterion met
 Total energy in the final basis set = -1510.23664367
   15   -1510.2528851670      2.15E-09 Convergence criterion met
 Total energy in the final basis set = -1510.25288517
   13   -1510.2619938192      8.90E-09 Convergence criterion met
   12   -1510.2923574518      3.76E-09 Convergence criterion met
 Total energy in the final basis set = -1510.29235745
   11   -1510.2923832586      4.44E-09 Convergence criterion met
 Total energy in the final basis set = -1510.29238326
   10   -1510.2923904277      7.19E-09 Convergence criterion met
 Total energy in the final basis set = -1510.29239043
   11   -1510.2923944351      4.48E-09 Convergence criterion met
 Total energy in the final basis set = -1510.29239444
    9   -1510.2923953717      9.95E-09 Convergence criterion met
 Total energy in the final basis set = -1510.29239537
    9   -1510.2923972608      7.04E-09 Convergence criterion met
 Total energy in the final basis set = -1510.29239726

             Standard Nuclear Orientation (Angstroms)
    I     Atom           X                Y                Z
 ----------------------------------------------------------------
    1      O      -2.2231783497    -2.4955139378    -0.8929741998
    2      C      -2.4521072256    -1.3093180204    -0.5729574670
    3      C      -1.8233120164    -0.4891881365     0.5990666266
    4      C      -1.5261674848     1.0076224885     0.1891677209
    5      C      -1.5656139535     1.2478704622    -1.3503614826
    6      O      -0.7176130461     0.2081140891    -1.9233762877
    7      C      -0.4068599866     0.4636092343    -3.3415192062
    8      C       1.1669387173     0.4418857466    -3.4489107284
    9      O       1.7246299968     1.3363637421    -2.4173742414
   10      C       1.5952899777     0.7998945440    -1.0829097074
   11      C       2.1089940733    -0.6708347006    -0.8130494747
   12      C       2.6096783431    -0.8529797414     0.6826900613
   13      C       2.0644516236     0.2493347715     1.6736784189
   14      O       0.9817700475     0.2243212007     2.3003338735
   15      O      -3.3778866903    -0.4643709456    -1.2814274597
   16      O       3.0994639298     1.2207466547     1.8811532043
   17      O       1.3377629686     1.6134265938    -0.1607598193
   18      C       2.5895044637     2.3060658346     2.7483787127
   19      C       1.0508680460    -1.8670427994    -0.9174512550
   20      C       1.8670479059    -3.1830774419    -1.2060181060
   21      C       2.5843019928    -3.3945400397     0.1809017938
   22      C       1.9432643085    -2.2387253290     1.0471777878
   23      O       0.5879759148    -2.0812079679     0.4704778036
   24      H       2.9441735651    -0.8521367567    -1.5139708590
   25      H       3.7124434363    -0.8679446836     0.7373782501
   26      H       0.1819924793    -1.6529476231    -1.5677617182
   27      H       1.1779389952    -4.0127125549    -1.4315052991
   28      H       2.5745067904    -3.0696441495    -2.0428732253
   29      H       2.3472865433    -4.3791810667     0.6133495379
   30      H       3.6793394702    -3.2933827776     0.1109912543
   31      H       1.8758590600    -2.4404038925     2.1335219607
   32      O      -2.0609255253     2.1717471322    -2.0222266624
   33      C      -3.9394952423    -1.1818309301    -2.4460884975
   34      C      -2.8779267970    -0.2473424465     1.7579041566
   35      C      -2.1293976225     0.4214753616     2.9814971214
   36      C      -2.0217437802     1.9167781339     2.5009696283
   37      C      -2.6022074159     1.7980368943     1.0392965809
   38      O      -3.7208456570     0.8399641608     1.2054839255
   39      H      -0.8988861290    -1.0235162015     0.9115788008
   40      H      -0.4965114771     1.2846926316     0.4981607869
   41      H      -4.4913674282    -2.0932474298    -2.1384464323
   42      H      -3.4988711921    -1.1292999170     2.0085565359
   43      H      -2.7220821568     0.3274197771     3.9050062777
   44      H      -1.1320007762    -0.0233618868     3.1349490228
   45      H      -2.6478510131     2.5870612672     3.1118274166
   46      H      -0.9830795788     2.2842963937     2.5098790670
   47      H      -2.9578846576     2.7391077743     0.5766099578
   48      H      -3.1473281686    -1.4782415315    -3.1641562823
   49      H      -4.6347132603    -0.4749648130    -2.9350552629
   50      H       3.4419632642     2.9876176951     2.9236254131
   51      H       2.2164106343     1.9156832507     3.7172317481
   52      H       1.7674973900     2.8593386444     2.2490745395
   53      H       1.5407507117    -0.5998285825    -3.3562277506
   54      H       1.4938229725     0.8528338855    -4.4258783974
   55      H      -0.8232280958     1.4518696960    -3.6334890642
   56      H      -0.8516600975    -0.3314854284    -3.9776427334
 ----------------------------------------------------------------

    9   -1510.2923978232      3.96E-09 Convergence criterion met
 Total energy in the final basis set = -1510.29239782
 Final energy is   -1510.29239782324
 **  OPTIMIZATION CONVERGED  **

                    Orbital Energies (a.u.)
 --------------------------------------------------------------

 Alpha MOs
 -- Occupied --
-18.937 -18.931 -18.925 -18.924 -18.902 -18.895 -18.883 -18.869
-18.862 -18.861 -10.115 -10.102 -10.096 -10.088 -10.085 -10.077
-10.066 -10.063 -10.058 -10.057 -10.044 -10.042 -10.042 -10.039
-10.026 -10.025 -10.017 -10.008 -10.001  -9.997  -1.024  -1.010
 -1.001  -0.998  -0.980  -0.953  -0.951  -0.939  -0.927  -0.925
 -0.768  -0.749  -0.726  -0.719  -0.709  -0.702  -0.686  -0.658
 -0.652  -0.615  -0.601  -0.578  -0.552  -0.544  -0.535  -0.523
 -0.518  -0.499  -0.484  -0.477  -0.464  -0.459  -0.455  -0.441
 -0.439  -0.424  -0.417  -0.414  -0.408  -0.405  -0.404  -0.401
 -0.399  -0.391  -0.373  -0.363  -0.356  -0.354  -0.353  -0.349
 -0.345  -0.337  -0.335  -0.332  -0.330  -0.317  -0.314  -0.313
 -0.306  -0.304  -0.295  -0.286  -0.286  -0.284  -0.280  -0.276
 -0.263  -0.252  -0.251  -0.247  -0.240  -0.231  -0.216  -0.191
 -0.174  -0.168  -0.167  -0.161  -0.160  -0.154  -0.145  -0.139
 -0.126

          Ground-State Mulliken Net Atomic Charges

     Atom                 Charge (a.u.)
  ----------------------------------------
      1 O                    -0.220117
      2 C                     0.208724
      3 C                    -0.092812
      4 C                    -0.086788
      5 C                     0.226027
      6 O                    -0.188876
      7 C                    -0.057671
      8 C                    -0.046124
      9 O                    -0.174743
     10 C                     0.220971
     11 C                    -0.085751
     12 C                    -0.080405
     13 C                     0.217355
     14 O                    -0.226918
     15 O                    -0.168383
     16 O                    -0.172609
     17 O                    -0.199226
     18 C                    -0.128224
     19 C                     0.021565
     20 C                    -0.143058
     21 C                    -0.144437
     22 C                     0.027181
     23 O                    -0.181776
     24 H                     0.080362
     25 H                     0.085793
     26 H                     0.100583
     27 H                     0.083510
     28 H                     0.070651
     29 H                     0.080716
     30 H                     0.074238
     31 H                     0.087467
     32 O                    -0.206632
     33 C                    -0.127554
     34 C                     0.023708
     35 C                    -0.147893
     36 C                    -0.141468
     37 C                     0.023964
     38 O                    -0.191915
     39 H                     0.116964
     40 H                     0.102740
     41 H                     0.088806
     42 H                     0.077794
     43 H                     0.070809
     44 H                     0.090298
     45 H                     0.072068
     46 H                     0.075697
     47 H                     0.084615
     48 H                     0.080358
     49 H                     0.091390
     50 H                     0.088065
     51 H                     0.087203
     52 H                     0.091323
     53 H                     0.081480
     54 H                     0.094221
     55 H                     0.103822
     56 H                     0.082915
  ----------------------------------------
  Sum of atomic charges =     0.000000

                    Cartesian Multipole Moments
 -----------------------------------------------------------------
    Charge (ESU x 10^10)
                 0.0000
    Dipole Moment (Debye)
         X       3.3742      Y      -1.9832      Z      -1.9426
       Tot       4.3695
    Quadrupole Moments (Debye-Ang)
        XX    -161.5353     XY      -1.8965     YY    -163.4857
        XZ       1.4585     YZ       6.4388     ZZ    -145.2613

 Total job time:  190.73s(wall), 9101.88s(cpu)
        *  Thank you very much for using Q-Chem.  Have a nice day.  *
