 Q-Chem 5.0, Q-Chem, Inc., Pleasanton, CA (2017)
 Q-Chem 5.0.1 for Intel X86 EM64T Linux

User input:
--------------------------------------------------------------
$molecule
0  1
O -3.94934 -3.66094 2.70899
C -3.26408 -4.56952 2.26188
C -3.36658 -6.02376 2.66595
C -3.18715 -7.07505 1.5585
C -2.74922 -6.56083 0.20502
O -1.42744 -6.84222 0.00721
C -0.55219 -5.85648 0.56534
C 0.85017 -6.43252 0.73172
O 1.79968 -5.62182 0.02174
C 2.98737 -6.21752 -0.24971
C 3.11725 -6.63998 -1.69377
C 4.55619 -6.8907 -2.16796
C 5.59656 -7.03364 -1.0753
O 5.48553 -7.73169 -0.07782
O -2.40127 -4.14673 1.31077
O 6.7099 -6.26664 -1.21326
O 3.8967 -5.99265 0.52946
C 7.75164 -6.23951 -0.30988
C 2.47661 -8.0014 -2.04812
C 2.17931 -8.05729 -3.5475
C 3.57837 -8.18072 -4.11111
C 4.38635 -8.27631 -2.81384
O 3.52187 -8.93099 -1.91811
H 2.63321 -5.84377 -2.30477
H 4.91617 -6.13144 -2.89816
H 1.54924 -8.23803 -1.49948
H 1.63753 -9.01137 -3.74016
H 1.57838 -7.21123 -3.94502
H 3.6448 -9.1333 -4.68248
H 3.91326 -7.33144 -4.74527
H 5.36314 -8.77592 -3.00069
O -3.41893 -5.87515 -0.55271
C -2.26289 -2.84267 0.86701
C -2.34278 -6.5236 3.71145
C -2.94421 -7.69246 4.49391
C -2.92852 -8.77828 3.43114
C -2.21264 -8.04044 2.28992
O -1.343 -7.17959 2.97576
H -4.36898 -6.10161 3.14571
H -4.13059 -7.62482 1.34602
H -1.95834 -2.18264 1.70705
H -2.00072 -5.72279 4.40227
H -2.21233 -7.9638 5.28847
H -3.93299 -7.5007 4.9634
H -2.30522 -9.62162 3.80324
H -3.92703 -9.15518 3.12122
H -1.74121 -8.77081 1.59707
H -3.21972 -2.48304 0.43182
H -1.4812 -2.79973 0.08208
H 8.52611 -5.53107 -0.66875
H 8.20518 -7.24963 -0.21847
H 7.38809 -5.89931 0.68338
H 1.14866 -6.53056 1.80035
H 0.84328 -7.4666 0.33932
H -0.77039 -5.53071 1.58341
H -0.52556 -4.98161 -0.11954
$end

$opt
CONSTRAINT
tors           1           2           3           4    +142.105
tors           3           4           5           6    +104.211
tors           4           5           6           7     -85.263
tors           5           6           7           8    +161.053
tors           6           7           8           9    +123.158
tors           7           8           9          10    -161.053
tors           8           9          10          11    +104.211
tors           9          10          11          12    +161.053
tors          11          12          13          14     +47.368
ENDCONSTRAINT
$end

$rem
JOBTYPE                   OPT
METHOD                    B3LYP
DFT_D                     d3_op
BASIS                     STO-3G
GEOM_OPT_MAX_CYCLES       100
GEOM_OPT_TOL_GRADIENT     300
GEOM_OPT_TOL_DISPLACEMENT 1200
GEOM_OPT_TOL_ENERGY       100
SYMMETRY                  False
THRESH                    12
SCF_CONVERGENCE           8
MAX_SUB_FILE_NUM          128
MEM_STATIC                400
MEM_TOTAL                 4000
$end
--------------------------------------------------------------

   15   -1510.0772308600      6.12E-09 Convergence criterion met
 Total energy in the final basis set = -1510.07723086
   14   -1510.1558745604      5.11E-09 Convergence criterion met
 Total energy in the final basis set = -1510.15587456
   14   -1510.1979159378      5.53E-09 Convergence criterion met
 Total energy in the final basis set = -1510.19791594
   14   -1510.2190844351      7.02E-09 Convergence criterion met
 Total energy in the final basis set = -1510.21908444
   14   -1510.2285019248      5.27E-09 Convergence criterion met
 Total energy in the final basis set = -1510.22850192
   13   -1510.2318294160      7.55E-09 Convergence criterion met
 Total energy in the final basis set = -1510.23182942
   13   -1510.2333536529      4.04E-09 Convergence criterion met
 Total energy in the final basis set = -1510.23335365
   12   -1510.2338914845      9.08E-09 Convergence criterion met
   10   -1510.2341054591      9.06E-09 Convergence criterion met
 Total energy in the final basis set = -1510.23410546
   10   -1510.2341199013      6.89E-09 Convergence criterion met
 Total energy in the final basis set = -1510.23411990
    9   -1510.2341267594      8.94E-09 Convergence criterion met
 Total energy in the final basis set = -1510.23412676
    9   -1510.2341319464      9.59E-09 Convergence criterion met
 Total energy in the final basis set = -1510.23413195
   10   -1510.2341370191      6.75E-09 Convergence criterion met
 Total energy in the final basis set = -1510.23413702
   10   -1510.2341411815      5.56E-09 Convergence criterion met
 Total energy in the final basis set = -1510.23414118

             Standard Nuclear Orientation (Angstroms)
    I     Atom           X                Y                Z
 ----------------------------------------------------------------
    1      O      -6.0809503168    -0.3139696658     2.0182127584
    2      C      -5.0547060389    -0.1412131208     1.3243345594
    3      C      -4.9950783518    -0.0981875479    -0.2381177498
    4      C      -3.9973087321     0.9482541924    -0.8999353639
    5      C      -2.8998141013     1.6170203670     0.0472595610
    6      O      -1.5454377048     1.1124758948    -0.0948853637
    7      C      -1.2473794361    -0.0932285297     0.7000123369
    8      C       0.0332414353    -0.7471120705     0.0558298815
    9      O       1.0516142753    -0.8485521523     1.1242309411
   10      C       2.3825777375    -1.0147170400     0.5397626453
   11      C       3.1774641378     0.3406649964     0.6373196652
   12      C       4.7530667342     0.2777714710     0.4969423638
   13      C       5.3144603995    -0.9806746361    -0.2566805161
   14      O       4.9310395825    -1.4687988203    -1.3398164146
   15      O      -3.7516910981     0.0532678043     1.8726860940
   16      O       6.4070186511    -1.5020183079     0.5148692763
   17      O       2.7994435756    -2.1223347221     0.1480438245
   18      C       6.9751052983    -2.6913743291    -0.1601468118
   19      C       2.8121054376     1.4505675231    -0.4577209281
   20      C       3.0508388156     2.8551342466     0.2197203572
   21      C       4.6213971345     2.8676933103     0.3159954986
   22      C       4.9924077585     1.5355103205    -0.4489300122
   23      O       3.9078764385     1.3716946227    -1.4461640891
   24      H       2.9196076292     0.7430654502     1.6346107135
   25      H       5.2617170974     0.3691552420     1.4722003089
   26      H       1.8311384903     1.3298039152    -0.9535630885
   27      H       2.6816203732     3.6604252682    -0.4356897096
   28      H       2.5563227070     2.9417868580     1.2002312603
   29      H       5.0537756132     3.7416020820    -0.1963556409
   30      H       4.9815580502     2.8556277262     1.3572839267
   31      H       5.9789238680     1.5436579404    -0.9516139349
   32      O      -3.1123542618     2.6785178368     0.6718448401
   33      C      -3.8036291577     0.0763510813     3.3510703805
   34      C      -4.5373660715    -1.4588658019    -0.9354716552
   35      C      -5.1879111595    -1.4867799451    -2.3730617171
   36      C      -4.3405539069    -0.3761520241    -3.0995339227
   37      C      -3.3003779999     0.0116901284    -1.9754322276
   38      O      -3.1040186936    -1.2548500355    -1.2251971150
   39      H      -6.0278456624     0.1342427680    -0.5546962297
   40      H      -4.5660162684     1.7735922207    -1.3647762584
   41      H      -4.1970682638    -0.8773626773     3.7580838767
   42      H      -4.6880142078    -2.3705626159    -0.3248434072
   43      H      -5.0413411277    -2.4743996986    -2.8391402095
   44      H      -6.2658433373    -1.2607617839    -2.3515927267
   45      H      -3.8219031460    -0.7766318295    -3.9848873002
   46      H      -4.9502199724     0.4877557777    -3.4091310618
   47      H      -2.3259987520     0.3918239621    -2.3376433906
   48      H      -4.4365978391     0.9087842171     3.7200959981
   49      H      -2.7616792276     0.2241222854     3.6892114424
   50      H       7.8090335956    -3.0368056532     0.4782270675
   51      H       7.3587645238    -2.4448073968    -1.1712977205
   52      H       6.2225125058    -3.5002598980    -0.2587914515
   53      H      -0.2131102537    -1.7478560639    -0.3669256955
   54      H       0.3648732058    -0.0974893652    -0.7831528477
   55      H      -2.0961636807    -0.8066704194     0.6681254922
   56      H      -1.0237418176     0.1729725599     1.7586271786
 ----------------------------------------------------------------

    9   -1510.2341417616      8.89E-09 Convergence criterion met
 Total energy in the final basis set = -1510.23414176
 Final energy is   -1510.23414176158
 **  OPTIMIZATION CONVERGED  **

                    Orbital Energies (a.u.)
 --------------------------------------------------------------

 Alpha MOs
 -- Occupied --
-18.948 -18.924 -18.902 -18.899 -18.894 -18.891 -18.890 -18.889
-18.884 -18.866 -10.109 -10.105 -10.104 -10.089 -10.073 -10.071
-10.065 -10.063 -10.061 -10.060 -10.058 -10.057 -10.045 -10.039
-10.035 -10.034 -10.027 -10.026 -10.020 -10.019  -1.023  -1.005
 -0.999  -0.998  -0.981  -0.971  -0.946  -0.935  -0.927  -0.924
 -0.769  -0.760  -0.728  -0.721  -0.713  -0.706  -0.691  -0.670
 -0.657  -0.607  -0.599  -0.575  -0.553  -0.544  -0.543  -0.537
 -0.520  -0.515  -0.491  -0.474  -0.466  -0.457  -0.447  -0.442
 -0.435  -0.432  -0.421  -0.417  -0.417  -0.408  -0.404  -0.402
 -0.389  -0.382  -0.371  -0.368  -0.365  -0.357  -0.351  -0.349
 -0.343  -0.339  -0.339  -0.334  -0.330  -0.328  -0.326  -0.314
 -0.313  -0.313  -0.307  -0.305  -0.303  -0.291  -0.280  -0.276
 -0.270  -0.263  -0.248  -0.245  -0.241  -0.233  -0.227  -0.188
 -0.171  -0.165  -0.160  -0.156  -0.154  -0.148  -0.145  -0.144
 -0.138

          Ground-State Mulliken Net Atomic Charges

     Atom                 Charge (a.u.)
  ----------------------------------------
      1 O                    -0.209614
      2 C                     0.208357
      3 C                    -0.083222
      4 C                    -0.083402
      5 C                     0.224114
      6 O                    -0.205335
      7 C                    -0.042512
      8 C                    -0.046714
      9 O                    -0.202524
     10 C                     0.219231
     11 C                    -0.082927
     12 C                    -0.080559
     13 C                     0.210316
     14 O                    -0.205144
     15 O                    -0.171579
     16 O                    -0.173003
     17 O                    -0.174709
     18 C                    -0.129102
     19 C                     0.026424
     20 C                    -0.141339
     21 C                    -0.145327
     22 C                     0.025582
     23 O                    -0.185708
     24 H                     0.086655
     25 H                     0.086028
     26 H                     0.083885
     27 H                     0.079158
     28 H                     0.076105
     29 H                     0.078296
     30 H                     0.074327
     31 H                     0.082525
     32 O                    -0.188670
     33 C                    -0.126130
     34 C                     0.024837
     35 C                    -0.141811
     36 C                    -0.145068
     37 C                     0.023031
     38 O                    -0.192605
     39 H                     0.087231
     40 H                     0.085799
     41 H                     0.092026
     42 H                     0.084369
     43 H                     0.079813
     44 H                     0.076104
     45 H                     0.079965
     46 H                     0.075344
     47 H                     0.089580
     48 H                     0.094247
     49 H                     0.094382
     50 H                     0.087824
     51 H                     0.087199
     52 H                     0.091360
     53 H                     0.083169
     54 H                     0.080027
     55 H                     0.100035
     56 H                     0.079661
  ----------------------------------------
  Sum of atomic charges =     0.000000

                    Cartesian Multipole Moments
 -----------------------------------------------------------------
    Charge (ESU x 10^10)
                 0.0000
    Dipole Moment (Debye)
         X      -0.8183      Y       0.3969      Z       0.3468
       Tot       0.9733
    Quadrupole Moments (Debye-Ang)
        XX    -149.2124     XY       8.0514     YY    -163.3150
        XZ      14.4503     YZ      -1.1394     ZZ    -156.4352

 Total job time:  45.87s(wall), 2181.91s(cpu)
        *  Thank you very much for using Q-Chem.  Have a nice day.  *
