 Q-Chem 5.0, Q-Chem, Inc., Pleasanton, CA (2017)
 Q-Chem 5.0.1 for Intel X86 EM64T Linux

User input:
--------------------------------------------------------------
$molecule
0  1
O -6.0809503168 -0.3139696658 2.0182127584
C -5.0547060389 -0.1412131208 1.3243345594
C -4.9950783518 -0.0981875479 -0.2381177498
C -3.9973087321 0.9482541924 -0.8999353639
C -2.8998141013 1.617020367 0.047259561
O -1.5454377048 1.1124758948 -0.0948853637
C -1.2473794361 -0.0932285297 0.7000123369
C 0.0332414353 -0.7471120705 0.0558298815
O 1.0516142753 -0.8485521523 1.1242309411
C 2.3825777375 -1.01471704 0.5397626453
C 3.1774641378 0.3406649964 0.6373196652
C 4.7530667342 0.277771471 0.4969423638
C 5.3144603995 -0.9806746361 -0.2566805161
O 4.9310395825 -1.4687988203 -1.3398164146
O -3.7516910981 0.0532678043 1.872686094
O 6.4070186511 -1.5020183079 0.5148692763
O 2.7994435756 -2.1223347221 0.1480438245
C 6.9751052983 -2.6913743291 -0.1601468118
C 2.8121054376 1.4505675231 -0.4577209281
C 3.0508388156 2.8551342466 0.2197203572
C 4.6213971345 2.8676933103 0.3159954986
C 4.9924077585 1.5355103205 -0.4489300122
O 3.9078764385 1.3716946227 -1.4461640891
H 2.9196076292 0.7430654502 1.6346107135
H 5.2617170974 0.369155242 1.4722003089
H 1.8311384903 1.3298039152 -0.9535630885
H 2.6816203732 3.6604252682 -0.4356897096
H 2.556322707 2.941786858 1.2002312603
H 5.0537756132 3.741602082 -0.1963556409
H 4.9815580502 2.8556277262 1.3572839267
H 5.978923868 1.5436579404 -0.9516139349
O -3.1123542618 2.6785178368 0.6718448401
C -3.8036291577 0.0763510813 3.3510703805
C -4.5373660715 -1.4588658019 -0.9354716552
C -5.1879111595 -1.4867799451 -2.3730617171
C -4.3405539069 -0.3761520241 -3.0995339227
C -3.3003779999 0.0116901284 -1.9754322276
O -3.1040186936 -1.2548500355 -1.225197115
H -6.0278456624 0.134242768 -0.5546962297
H -4.5660162684 1.7735922207 -1.3647762584
H -4.1970682638 -0.8773626773 3.7580838767
H -4.6880142078 -2.3705626159 -0.3248434072
H -5.0413411277 -2.4743996986 -2.8391402095
H -6.2658433373 -1.2607617839 -2.3515927267
H -3.821903146 -0.7766318295 -3.9848873002
H -4.9502199724 0.4877557777 -3.4091310618
H -2.325998752 0.3918239621 -2.3376433906
H -4.4365978391 0.9087842171 3.7200959981
H -2.7616792276 0.2241222854 3.6892114424
H 7.8090335956 -3.0368056532 0.4782270675
H 7.3587645238 -2.4448073968 -1.1712977205
H 6.2225125058 -3.500259898 -0.2587914515
H -0.2131102537 -1.7478560639 -0.3669256955
H 0.3648732058 -0.0974893652 -0.7831528477
H -2.0961636807 -0.8066704194 0.6681254922
H -1.0237418176 0.1729725599 1.7586271786
$end

$rem
JOBTYPE                   OPT
METHOD                    B3LYP
DFT_D                     d3_op
BASIS                     STO-3G
GEOM_OPT_MAX_CYCLES       100
GEOM_OPT_TOL_GRADIENT     300
GEOM_OPT_TOL_DISPLACEMENT 1200
GEOM_OPT_TOL_ENERGY       100
SYMMETRY                  False
THRESH                    12
SCF_CONVERGENCE           8
MAX_SUB_FILE_NUM          128
MEM_STATIC                400
MEM_TOTAL                 4000
$end
--------------------------------------------------------------

   16   -1510.2342384201      4.61E-09 Convergence criterion met
 Total energy in the final basis set = -1510.23423842
   14   -1510.2377743229      6.45E-09 Convergence criterion met
 Total energy in the final basis set = -1510.23777432
   14   -1510.2421050028      2.66E-09 Convergence criterion met
 Total energy in the final basis set = -1510.24210500
   15   -1510.2469359177      2.73E-09 Convergence criterion met
 Total energy in the final basis set = -1510.24693592
   15   -1510.2516134832      3.17E-09 Convergence criterion met
 Total energy in the final basis set = -1510.25161348
   14   -1510.2558595696      8.36E-09 Convergence criterion met
 Total energy in the final basis set = -1510.25585957
   14   -1510.2592595374      7.35E-09 Convergence criterion met
 Total energy in the final basis set = -1510.25925954
   14   -1510.2624392283      8.54E-09 Convergence criterion met
   12   -1510.2844968572      3.16E-09 Convergence criterion met
 Total energy in the final basis set = -1510.28449686
   11   -1510.2844942284      5.47E-09 Convergence criterion met
 Total energy in the final basis set = -1510.28449423
   10   -1510.2844913718      8.92E-09 Convergence criterion met
 Total energy in the final basis set = -1510.28449137
   11   -1510.2844850751      3.79E-09 Convergence criterion met
 Total energy in the final basis set = -1510.28448508
   11   -1510.2844783405      3.00E-09 Convergence criterion met
 Total energy in the final basis set = -1510.28447834
   11   -1510.2844545709      5.91E-09 Convergence criterion met
 Total energy in the final basis set = -1510.28445457

             Standard Nuclear Orientation (Angstroms)
    I     Atom           X                Y                Z
 ----------------------------------------------------------------
    1      O      -5.1678787518     1.3179550691    -0.9574823332
    2      C      -4.0975498173     0.8558624365    -0.5062616440
    3      C      -3.1783069681    -0.2087373642    -1.1883478078
    4      C      -1.6127824155     0.0112614742    -1.0204013110
    5      C      -1.2244441061     1.3034279594    -0.1667190691
    6      O      -0.6254800070     1.2028686283     1.1415030949
    7      C      -1.2564252555     0.2632630428     2.0989388418
    8      C      -0.0840381435    -0.3120010227     3.0083503778
    9      O       1.1980679631     0.3649178379     2.6771363041
   10      C       1.7055019837    -0.1664585927     1.4583911892
   11      C       2.7854585278     0.7823835055     0.8502391678
   12      C       3.3986896694     0.2161971255    -0.4958969919
   13      C       2.8390329940    -1.1925099693    -0.9270780294
   14      O       1.9893349275    -1.4273050665    -1.8131963575
   15      O      -3.5340058161     1.2399142615     0.7514534743
   16      O       3.5962717656    -2.2030628850    -0.2406200912
   17      O       1.3158388470    -1.2515569382     0.9567817012
   18      C       3.0471503725    -3.5374869496    -0.5652317747
   19      C       2.0843792765     2.1153017912     0.3269866796
   20      C       3.1987164259     3.1880027787     0.0219651513
   21      C       3.8094184477     2.6209946922    -1.3142062239
   22      C       2.9313447336     1.3268807058    -1.5261288668
   23      O       1.5985234292     1.7215742901    -1.0139588632
   24      H       3.5573703427     0.9969838100     1.6107611071
   25      H       4.4985456025     0.1449349220    -0.4248215853
   26      H       1.2344609805     2.4432681838     0.9578856147
   27      H       2.7410001715     4.1781872722    -0.1314811336
   28      H       3.9407810922     3.2633431282     0.8330536466
   29      H       3.6671320356     3.3224342099    -2.1514518703
   30      H       4.8824545861     2.3866668931    -1.2272989819
   31      H       2.8499458901     0.9658505005    -2.5695239215
   32      O      -1.2297137207     2.4375969299    -0.6947629312
   33      C      -4.3320056697     2.3229939154     1.3672375843
   34      C      -3.3399292964    -1.6782500279    -0.5894770829
   35      C      -2.8552436523    -2.6934010530    -1.6951435877
   36      C      -1.2982313701    -2.4552641653    -1.6577803524
   37      C      -1.1608158975    -1.4072247312    -0.4894897815
   38      O      -2.2697492175    -1.7837008983     0.4306315616
   39      H      -3.4576042465    -0.2126907251    -2.2567946551
   40      H      -1.1591533856     0.2046655754    -2.0092254394
   41      H      -5.3616086552     1.9843295563     1.6030007243
   42      H      -4.3294607227    -1.8958549005    -0.1419970665
   43      H      -3.1133954209    -3.7251550229    -1.4069365514
   44      H      -3.2993360853    -2.4784642488    -2.6800847740
   45      H      -0.7542780996    -3.3796981594    -1.4075292618
   46      H      -0.9008778521    -2.0631704880    -2.6072262491
   47      H      -0.1836237839    -1.4189942503     0.0475283440
   48      H      -4.3922299407     3.2088953181     0.7031567677
   49      H      -3.8066316032     2.5949660009     2.3009231525
   50      H       3.7078727116    -4.2732591705    -0.0709156204
   51      H       3.0343848865    -3.7225836001    -1.6588228771
   52      H       2.0134938552    -3.6481543968    -0.1770046760
   53      H      -0.2665373671    -0.0930485615     4.0781770070
   54      H       0.0171405012    -1.4083289255     2.8646768767
   55      H      -1.8177274549    -0.5599924756     1.5825460826
   56      H      -1.9586105664     0.8411553035     2.7366544904
 ----------------------------------------------------------------

    9   -1510.2844553453      8.01E-09 Convergence criterion met
 Total energy in the final basis set = -1510.28445535
 Final energy is   -1510.28445534532
 **  OPTIMIZATION CONVERGED  **

                    Orbital Energies (a.u.)
 --------------------------------------------------------------

 Alpha MOs
 -- Occupied --
-18.945 -18.941 -18.917 -18.906 -18.900 -18.890 -18.881 -18.878
-18.860 -18.855 -10.113 -10.102 -10.091 -10.088 -10.069 -10.068
-10.066 -10.054 -10.052 -10.051 -10.044 -10.044 -10.038 -10.037
-10.030 -10.028 -10.020 -10.015 -10.014 -10.014  -1.024  -1.016
 -0.996  -0.987  -0.976  -0.964  -0.946  -0.940  -0.922  -0.918
 -0.761  -0.758  -0.720  -0.718  -0.707  -0.702  -0.689  -0.663
 -0.653  -0.607  -0.595  -0.576  -0.548  -0.540  -0.534  -0.529
 -0.512  -0.506  -0.487  -0.476  -0.461  -0.455  -0.450  -0.440
 -0.430  -0.427  -0.422  -0.415  -0.410  -0.405  -0.403  -0.398
 -0.388  -0.385  -0.373  -0.370  -0.361  -0.356  -0.349  -0.342
 -0.342  -0.336  -0.331  -0.328  -0.321  -0.318  -0.314  -0.311
 -0.306  -0.303  -0.299  -0.295  -0.291  -0.286  -0.275  -0.271
 -0.266  -0.256  -0.252  -0.245  -0.243  -0.231  -0.217  -0.184
 -0.180  -0.163  -0.163  -0.160  -0.156  -0.145  -0.140  -0.139
 -0.134

          Ground-State Mulliken Net Atomic Charges

     Atom                 Charge (a.u.)
  ----------------------------------------
      1 O                    -0.209677
      2 C                     0.209644
      3 C                    -0.083225
      4 C                    -0.083576
      5 C                     0.221541
      6 O                    -0.190870
      7 C                    -0.068607
      8 C                    -0.052944
      9 O                    -0.161859
     10 C                     0.229297
     11 C                    -0.078228
     12 C                    -0.082323
     13 C                     0.215393
     14 O                    -0.225488
     15 O                    -0.170781
     16 O                    -0.176268
     17 O                    -0.217641
     18 C                    -0.128399
     19 C                     0.023346
     20 C                    -0.143994
     21 C                    -0.144194
     22 C                     0.024583
     23 O                    -0.189970
     24 H                     0.087735
     25 H                     0.083442
     26 H                     0.102637
     27 H                     0.080212
     28 H                     0.072368
     29 H                     0.077984
     30 H                     0.071973
     31 H                     0.086211
     32 O                    -0.204251
     33 C                    -0.126398
     34 C                     0.026355
     35 C                    -0.142323
     36 C                    -0.142419
     37 C                     0.006472
     38 O                    -0.194032
     39 H                     0.088048
     40 H                     0.094371
     41 H                     0.089593
     42 H                     0.083151
     43 H                     0.077361
     44 H                     0.075470
     45 H                     0.078208
     46 H                     0.081873
     47 H                     0.112140
     48 H                     0.095285
     49 H                     0.092024
     50 H                     0.085756
     51 H                     0.086208
     52 H                     0.088157
     53 H                     0.087784
     54 H                     0.092343
     55 H                     0.117717
     56 H                     0.072782
  ----------------------------------------
  Sum of atomic charges =     0.000000

                    Cartesian Multipole Moments
 -----------------------------------------------------------------
    Charge (ESU x 10^10)
                 0.0000
    Dipole Moment (Debye)
         X       0.8184      Y      -1.4997      Z       1.6506
       Tot       2.3756
    Quadrupole Moments (Debye-Ang)
        XX    -153.1247     XY       5.9134     YY    -158.3126
        XZ      -5.8266     YZ       5.2952     ZZ    -155.7376

 Total job time:  220.65s(wall), 10521.43s(cpu)
        *  Thank you very much for using Q-Chem.  Have a nice day.  *
