 Q-Chem 5.0, Q-Chem, Inc., Pleasanton, CA (2017)
 Q-Chem 5.0.1 for Intel X86 EM64T Linux

User input:
--------------------------------------------------------------
$molecule
0  1
O 6.1925401619 -2.3406893929 0.5742933724
C 5.2344279509 -1.5355297151 0.5727138736
C 5.0255832655 -0.3768153337 -0.4634009918
C 3.5779107754 0.2467104009 -0.6104882028
C 2.6065801526 0.1000412553 0.6229961322
O 1.4027363169 -0.5730068217 0.1761399703
C 0.2213310618 0.0099201227 0.8496906122
C -0.2735676556 1.2817687897 0.0535459659
O -1.6710055154 1.6303459277 0.3977641489
C -2.5900119086 0.8729325378 -0.4032203317
C -4.050763894 1.2948899095 0.0165569939
C -5.155760335 0.2467673199 -0.4095274259
C -4.8408623289 -0.5899658728 -1.7026685373
O -4.4281443765 -0.1503600901 -2.7970460822
O 4.1359207681 -1.6204033918 1.4794514115
O -5.1224853081 -1.9722859884 -1.4540147498
O -2.2317799416 0.0004429357 -1.2216124879
C -4.8225980743 -2.7703543131 -2.6644494253
C -4.1314111048 1.1272719959 1.5947578209
C -5.5524938151 1.5627125027 2.1341247433
C -6.4205893171 0.2937886368 1.7936153127
C -5.3831793537 -0.5440335719 0.9528477906
O -4.1271085754 -0.3527932251 1.7157301203
H -4.2684138904 2.3187181971 -0.3374461021
H -6.0795617767 0.8082425987 -0.6490316074
H -3.2646047886 1.5639098729 2.1268887285
H -5.5138712117 1.7534646474 3.2180682285
H -5.9182729692 2.4715680713 1.6296466884
H -6.7039842488 -0.2543021594 2.7066433474
H -7.3328752147 0.5352690968 1.2253238595
H -5.6089093667 -1.6198848737 0.8257600252
O 2.7050668364 0.672709798 1.7286787249
C 4.3180071561 -2.7529410717 2.4145695889
C 5.9075233011 0.9310288394 -0.2074268083
C 6.2064551029 1.5646093535 -1.6208899934
C 4.7719743726 2.0801277426 -2.014929601
C 3.9601558616 1.7899431311 -0.6890087475
O 4.9682221134 1.9043828267 0.3912343025
H 5.3276237196 -0.8105046693 -1.4345523177
H 3.0615213361 -0.1268459344 -1.5116391497
H 5.2224356798 -2.6191481182 3.0423890261
H 6.7887065283 0.7805081449 0.4459258971
H 6.918732799 2.3994159506 -1.5208460412
H 6.6133628155 0.8326249875 -2.3366598677
H 4.7733912872 3.1581208864 -2.2403797793
H 4.3503606391 1.5403929947 -2.8782144101
H 3.1132147558 2.4774670493 -0.4991649288
H 4.4015351957 -3.7177725436 1.8736936733
H 3.4181478888 -2.7612795373 3.0566619255
H -5.0454537201 -3.8206047322 -2.4005557695
H -3.7569450383 -2.6771778444 -2.9572895684
H -5.4520131206 -2.4623182003 -3.5243978044
H 0.3399411031 2.1661436706 0.3186261697
H -0.1814386991 1.0732840702 -1.034159435
H 0.453513716 0.27633467 1.9024306053
H -0.5706895987 -0.7664994221 0.8286980721
$end

$rem
JOBTYPE                   OPT
METHOD                    B3LYP
DFT_D                     d3_op
BASIS                     STO-3G
GEOM_OPT_MAX_CYCLES       100
GEOM_OPT_TOL_GRADIENT     300
GEOM_OPT_TOL_DISPLACEMENT 1200
GEOM_OPT_TOL_ENERGY       100
SYMMETRY                  False
THRESH                    12
SCF_CONVERGENCE           8
MAX_SUB_FILE_NUM          128
MEM_STATIC                400
MEM_TOTAL                 4000
$end
--------------------------------------------------------------

   16   -1510.2631535249      6.26E-09 Convergence criterion met
 Total energy in the final basis set = -1510.26315352
   14   -1510.2680106102      3.19E-09 Convergence criterion met
 Total energy in the final basis set = -1510.26801061
   14   -1510.2716837819      2.69E-09 Convergence criterion met
 Total energy in the final basis set = -1510.27168378
   14   -1510.2746263721      1.72E-09 Convergence criterion met
 Total energy in the final basis set = -1510.27462637
   13   -1510.2768586677      6.17E-09 Convergence criterion met
 Total energy in the final basis set = -1510.27685867
   13   -1510.2784519672      5.67E-09 Convergence criterion met
 Total energy in the final basis set = -1510.27845197
   13   -1510.2797113582      8.97E-09 Convergence criterion met
 Total energy in the final basis set = -1510.27971136
   13   -1510.2806621361      4.75E-09 Convergence criterion met
    9   -1510.2957112908      7.76E-09 Convergence criterion met
 Total energy in the final basis set = -1510.29571129
    9   -1510.2957130028      5.54E-09 Convergence criterion met
 Total energy in the final basis set = -1510.29571300
    9   -1510.2957152298      3.70E-09 Convergence criterion met
 Total energy in the final basis set = -1510.29571523
    9   -1510.2957177681      4.41E-09 Convergence criterion met
 Total energy in the final basis set = -1510.29571777
    9   -1510.2957212092      8.31E-09 Convergence criterion met
 Total energy in the final basis set = -1510.29572121
    9   -1510.2957240022      7.95E-09 Convergence criterion met
 Total energy in the final basis set = -1510.29572400

             Standard Nuclear Orientation (Angstroms)
    I     Atom           X                Y                Z
 ----------------------------------------------------------------
    1      O      -1.3873505100    -0.0563862764     2.6038876723
    2      C      -2.0144755456    -0.1555549263     1.5219786733
    3      C      -3.3559594917     0.5764376453     1.1680168368
    4      C      -3.3281559588     1.3494322704    -0.2182645344
    5      C      -1.9470452956     1.2334416598    -0.9492093177
    6      O      -0.9311261473     1.6791995927    -0.0368864829
    7      C       0.4103318793     1.3638170263    -0.5734971936
    8      C       1.2222856529     2.6393818306    -1.0120521546
    9      O       2.5043123167     2.1269210878    -1.5633305222
   10      C       3.3154433089     1.6382047448    -0.4822370844
   11      C       4.0923786749     0.3391864512    -0.9169510409
   12      C       4.0874199873    -0.7387510217     0.2540743914
   13      C       3.4787993959    -0.2401692712     1.6136032692
   14      O       4.1189516281    -0.0283660782     2.6650370066
   15      O      -1.6576803998    -1.0167614617     0.4444712583
   16      O       2.0394733515    -0.1478705229     1.5313692186
   17      O       3.3371072321     2.1433154024     0.6627385505
   18      C       1.4966855240     0.3618241728     2.8170593196
   19      C       3.3116247336    -0.4472751269    -2.0492755229
   20      C       4.2395726270    -1.5911688387    -2.6169717932
   21      C       4.1645112452    -2.6514719443    -1.4567234571
   22      C       3.2384928708    -1.9019494043    -0.4212775931
   23      O       2.2751066590    -1.1788524109    -1.2815041406
   24      H       5.1236150968     0.6000907694    -1.2182506213
   25      H       5.1163811822    -1.0714312612     0.4771534555
   26      H       2.8401045675     0.2144807163    -2.8000580450
   27      H       3.8279201404    -1.9903568959    -3.5575306926
   28      H       5.2657299830    -1.2363564703    -2.8039610522
   29      H       3.6851042601    -3.5844621734    -1.7933728425
   30      H       5.1524150538    -2.8943407850    -1.0339257150
   31      H       2.7049182611    -2.5565233595     0.2943828806
   32      O      -1.7315563452     0.8274465546    -2.1102147789
   33      C      -0.4488341271    -1.8180792341     0.7616356638
   34      C      -4.5342090911    -0.4584910418     0.8950709944
   35      C      -5.9047732104     0.3274098692     0.9261193910
   36      C      -5.8651251075     1.0684502746    -0.4619458003
   37      C      -4.4668493331     0.5933927355    -1.0185161407
   38      O      -4.3597309493    -0.8029799305    -0.5331819742
   39      H      -3.5910714358     1.2549383784     2.0065084409
   40      H      -3.5660986821     2.4192872192    -0.0733850525
   41      H      -0.6009494814    -2.4154632119     1.6833879048
   42      H      -4.5002688962    -1.3702923937     1.5222755731
   43      H      -6.7495827684    -0.3772862504     0.9846597962
   44      H      -5.9660220851     1.0228515830     1.7785216383
   45      H      -6.6780493270     0.7290953253    -1.1235052326
   46      H      -5.9244887488     2.1641904034    -0.3629040727
   47      H      -4.3411374259     0.6302472709    -2.1181509806
   48      H       0.4650936017    -1.1940141265     0.8821206380
   49      H      -0.3150931464    -2.4962018281    -0.1007355179
   50      H       0.3932726850     0.2013209684     2.7743804154
   51      H       1.7290856149     1.4396824628     2.9285369977
   52      H       1.9357933607    -0.1852042844     3.6734145702
   53      H       0.7201978540     3.1824143846    -1.8374019290
   54      H       1.3902693172     3.3271947054    -0.1559497195
   55      H       0.3018195740     0.6961291043    -1.4538504736
   56      H       0.9833522738     0.8326356974     0.2234545601
 ----------------------------------------------------------------

   10   -1510.2957240087      7.36E-09 Convergence criterion met
 Total energy in the final basis set = -1510.29572401
 Final energy is   -1510.29572400868
 **  OPTIMIZATION CONVERGED  **

                    Orbital Energies (a.u.)
 --------------------------------------------------------------

 Alpha MOs
 -- Occupied --
-18.937 -18.932 -18.931 -18.928 -18.891 -18.890 -18.888 -18.878
-18.877 -18.875 -10.108 -10.104 -10.100 -10.099 -10.070 -10.064
-10.061 -10.061 -10.058 -10.050 -10.050 -10.043 -10.040 -10.039
-10.037 -10.036 -10.024 -10.022 -10.021 -10.020  -1.019  -1.015
 -1.006  -1.004  -0.974  -0.969  -0.945  -0.937  -0.935  -0.933
 -0.766  -0.763  -0.727  -0.724  -0.712  -0.706  -0.693  -0.656
 -0.646  -0.617  -0.597  -0.581  -0.548  -0.545  -0.540  -0.537
 -0.514  -0.511  -0.487  -0.475  -0.473  -0.463  -0.446  -0.442
 -0.437  -0.435  -0.428  -0.422  -0.408  -0.403  -0.398  -0.394
 -0.391  -0.379  -0.376  -0.365  -0.361  -0.358  -0.356  -0.348
 -0.342  -0.339  -0.334  -0.331  -0.327  -0.325  -0.323  -0.316
 -0.309  -0.308  -0.305  -0.304  -0.293  -0.290  -0.284  -0.281
 -0.276  -0.257  -0.254  -0.243  -0.241  -0.237  -0.234  -0.189
 -0.178  -0.173  -0.164  -0.161  -0.159  -0.152  -0.151  -0.147
 -0.143

          Ground-State Mulliken Net Atomic Charges

     Atom                 Charge (a.u.)
  ----------------------------------------
      1 O                    -0.219836
      2 C                     0.219995
      3 C                    -0.077788
      4 C                    -0.078137
      5 C                     0.217334
      6 O                    -0.179544
      7 C                    -0.070947
      8 C                    -0.050624
      9 O                    -0.177115
     10 C                     0.214508
     11 C                    -0.078846
     12 C                    -0.081673
     13 C                     0.213786
     14 O                    -0.206122
     15 O                    -0.164988
     16 O                    -0.181209
     17 O                    -0.202421
     18 C                    -0.149255
     19 C                     0.022317
     20 C                    -0.144592
     21 C                    -0.143459
     22 C                     0.024383
     23 O                    -0.192388
     24 H                     0.087247
     25 H                     0.086329
     26 H                     0.094608
     27 H                     0.079379
     28 H                     0.074181
     29 H                     0.078536
     30 H                     0.074678
     31 H                     0.083099
     32 O                    -0.208486
     33 C                    -0.139838
     34 C                     0.025815
     35 C                    -0.143902
     36 C                    -0.143941
     37 C                     0.024789
     38 O                    -0.185295
     39 H                     0.085707
     40 H                     0.084951
     41 H                     0.081731
     42 H                     0.082505
     43 H                     0.078112
     44 H                     0.073852
     45 H                     0.078277
     46 H                     0.073065
     47 H                     0.090722
     48 H                     0.107256
     49 H                     0.092227
     50 H                     0.115270
     51 H                     0.084397
     52 H                     0.085051
     53 H                     0.089414
     54 H                     0.092826
     55 H                     0.100917
     56 H                     0.103142
  ----------------------------------------
  Sum of atomic charges =     0.000000

                    Cartesian Multipole Moments
 -----------------------------------------------------------------
    Charge (ESU x 10^10)
                 0.0000
    Dipole Moment (Debye)
         X      -0.5249      Y      -0.2339      Z      -0.9385
       Tot       1.1005
    Quadrupole Moments (Debye-Ang)
        XX    -146.6939     XY     -12.7850     YY    -154.5375
        XZ     -15.0366     YZ      -3.9742     ZZ    -168.4385

 Total job time:  208.90s(wall), 9950.40s(cpu)
        *  Thank you very much for using Q-Chem.  Have a nice day.  *
