 Q-Chem 5.0, Q-Chem, Inc., Pleasanton, CA (2017)
 Q-Chem 5.0.1 for Intel X86 EM64T Linux

User input:
--------------------------------------------------------------
$molecule
0  1
O -3.94934 -3.66094 2.70899
C -3.26408 -4.56952 2.26188
C -3.36658 -6.02376 2.66595
C -2.76261 -7.06348 1.7078
C -1.9673 -6.5228 0.54022
O -2.49374 -6.98349 -0.63283
C -1.49796 -7.29601 -1.61263
C -0.98029 -8.71506 -1.40184
O -0.33847 -9.18459 -2.59787
C -1.16226 -9.73413 -3.52443
C -0.42889 -10.20775 -4.75671
C -1.31097 -10.40929 -5.99752
C -2.68966 -9.78299 -5.93694
O -3.46888 -9.87388 -4.99933
O -2.12213 -4.16173 1.65055
O -3.04468 -8.96165 -6.96372
O -2.11632 -10.38916 -3.1243
C -4.23641 -8.27096 -7.03957
C 0.60675 -9.20763 -5.32986
C 1.67947 -9.97996 -6.09392
C 0.88152 -10.46114 -7.28879
C -0.43742 -9.71032 -7.0577
O -0.05855 -8.54051 -6.37575
H 0.11002 -11.13741 -4.4617
H -1.47842 -11.4927 -6.18273
H 1.08425 -8.55674 -4.56632
H 2.42194 -9.22573 -6.44192
H 2.21099 -10.77529 -5.5285
H 1.3952 -10.11729 -8.21375
H 0.70645 -11.55817 -7.33145
H -0.96154 -9.56785 -8.02736
O -0.83656 -6.05562 0.64469
C -1.8138 -2.85695 1.31957
C -2.524 -6.30843 3.92735
C -3.0507 -7.55574 4.63649
C -2.59137 -8.63793 3.68169
C -1.80939 -7.7978 2.66646
O -1.28071 -6.74496 3.43468
H -4.43736 -6.21828 2.90091
H -3.55544 -7.74335 1.31855
H -1.7705 -2.22756 2.23398
H -2.495 -5.45037 4.63476
H -2.48093 -7.65935 5.58777
H -4.13913 -7.54868 4.86033
H -1.90401 -9.32089 4.22884
H -3.40385 -9.22347 3.19953
H -1.07118 -8.42992 2.12461
H -2.57436 -2.45189 0.61818
H -0.82207 -2.83319 0.82336
H -4.25734 -7.68439 -7.98082
H -4.32903 -7.57228 -6.1807
H -5.09075 -8.98114 -7.04092
H -0.24935 -8.70072 -0.56643
H -1.80065 -9.39084 -1.07213
H -0.7001 -6.52977 -1.73791
H -2.05029 -7.31089 -2.57608
$end

$opt
CONSTRAINT
tors           1           2           3           4    +161.053
tors           3           4           5           6    -123.158
tors           4           5           6           7    -142.105
tors           5           6           7           8     +85.263
tors           6           7           8           9    +161.053
tors           7           8           9          10     -85.263
tors           8           9          10          11    -180.000
tors           9          10          11          12    -161.053
tors          11          12          13          14     -47.368
ENDCONSTRAINT
$end

$rem
JOBTYPE                   OPT
METHOD                    B3LYP
DFT_D                     d3_op
BASIS                     STO-3G
GEOM_OPT_MAX_CYCLES       100
GEOM_OPT_TOL_GRADIENT     300
GEOM_OPT_TOL_DISPLACEMENT 1200
GEOM_OPT_TOL_ENERGY       100
SYMMETRY                  False
THRESH                    12
SCF_CONVERGENCE           8
MAX_SUB_FILE_NUM          128
MEM_STATIC                400
MEM_TOTAL                 4000
$end
--------------------------------------------------------------

   15   -1510.1032181271      8.05E-09 Convergence criterion met
 Total energy in the final basis set = -1510.10321813
   13   -1510.1781243812      8.66E-09 Convergence criterion met
 Total energy in the final basis set = -1510.17812438
   14   -1510.2192923600      7.62E-09 Convergence criterion met
 Total energy in the final basis set = -1510.21929236
   14   -1510.2399338289      8.84E-09 Convergence criterion met
 Total energy in the final basis set = -1510.23993383
   13   -1510.2495828703      8.22E-09 Convergence criterion met
 Total energy in the final basis set = -1510.24958287
   13   -1510.2542322000      7.68E-09 Convergence criterion met
 Total energy in the final basis set = -1510.25423220
   13   -1510.2567431219      3.65E-09 Convergence criterion met
 Total energy in the final basis set = -1510.25674312
   13   -1510.2578787742      5.75E-09 Convergence criterion met
   12   -1510.2631648166      6.30E-09 Convergence criterion met
 Total energy in the final basis set = -1510.26316482
   12   -1510.2632052030      5.01E-09 Convergence criterion met
 Total energy in the final basis set = -1510.26320520
   11   -1510.2632237483      5.96E-09 Convergence criterion met
 Total energy in the final basis set = -1510.26322375
   11   -1510.2632249953      3.23E-09 Convergence criterion met
 Total energy in the final basis set = -1510.26322500
   10   -1510.2632262806      3.22E-09 Convergence criterion met
 Total energy in the final basis set = -1510.26322628
    9   -1510.2632335486      7.80E-09 Convergence criterion met
 Total energy in the final basis set = -1510.26323355

             Standard Nuclear Orientation (Angstroms)
    I     Atom           X                Y                Z
 ----------------------------------------------------------------
    1      O       6.1925401619    -2.3406893929     0.5742933724
    2      C       5.2344279509    -1.5355297151     0.5727138736
    3      C       5.0255832655    -0.3768153337    -0.4634009918
    4      C       3.5779107754     0.2467104009    -0.6104882028
    5      C       2.6065801526     0.1000412553     0.6229961322
    6      O       1.4027363169    -0.5730068217     0.1761399703
    7      C       0.2213310618     0.0099201227     0.8496906122
    8      C      -0.2735676556     1.2817687897     0.0535459659
    9      O      -1.6710055154     1.6303459277     0.3977641489
   10      C      -2.5900119086     0.8729325378    -0.4032203317
   11      C      -4.0507638940     1.2948899095     0.0165569939
   12      C      -5.1557603350     0.2467673199    -0.4095274259
   13      C      -4.8408623289    -0.5899658728    -1.7026685373
   14      O      -4.4281443765    -0.1503600901    -2.7970460822
   15      O       4.1359207681    -1.6204033918     1.4794514115
   16      O      -5.1224853081    -1.9722859884    -1.4540147498
   17      O      -2.2317799416     0.0004429357    -1.2216124879
   18      C      -4.8225980743    -2.7703543131    -2.6644494253
   19      C      -4.1314111048     1.1272719959     1.5947578209
   20      C      -5.5524938151     1.5627125027     2.1341247433
   21      C      -6.4205893171     0.2937886368     1.7936153127
   22      C      -5.3831793537    -0.5440335719     0.9528477906
   23      O      -4.1271085754    -0.3527932251     1.7157301203
   24      H      -4.2684138904     2.3187181971    -0.3374461021
   25      H      -6.0795617767     0.8082425987    -0.6490316074
   26      H      -3.2646047886     1.5639098729     2.1268887285
   27      H      -5.5138712117     1.7534646474     3.2180682285
   28      H      -5.9182729692     2.4715680713     1.6296466884
   29      H      -6.7039842488    -0.2543021594     2.7066433474
   30      H      -7.3328752147     0.5352690968     1.2253238595
   31      H      -5.6089093667    -1.6198848737     0.8257600252
   32      O       2.7050668364     0.6727097980     1.7286787249
   33      C       4.3180071561    -2.7529410717     2.4145695889
   34      C       5.9075233011     0.9310288394    -0.2074268083
   35      C       6.2064551029     1.5646093535    -1.6208899934
   36      C       4.7719743726     2.0801277426    -2.0149296010
   37      C       3.9601558616     1.7899431311    -0.6890087475
   38      O       4.9682221134     1.9043828267     0.3912343025
   39      H       5.3276237196    -0.8105046693    -1.4345523177
   40      H       3.0615213361    -0.1268459344    -1.5116391497
   41      H       5.2224356798    -2.6191481182     3.0423890261
   42      H       6.7887065283     0.7805081449     0.4459258971
   43      H       6.9187327990     2.3994159506    -1.5208460412
   44      H       6.6133628155     0.8326249875    -2.3366598677
   45      H       4.7733912872     3.1581208864    -2.2403797793
   46      H       4.3503606391     1.5403929947    -2.8782144101
   47      H       3.1132147558     2.4774670493    -0.4991649288
   48      H       4.4015351957    -3.7177725436     1.8736936733
   49      H       3.4181478888    -2.7612795373     3.0566619255
   50      H      -5.0454537201    -3.8206047322    -2.4005557695
   51      H      -3.7569450383    -2.6771778444    -2.9572895684
   52      H      -5.4520131206    -2.4623182003    -3.5243978044
   53      H       0.3399411031     2.1661436706     0.3186261697
   54      H      -0.1814386991     1.0732840702    -1.0341594350
   55      H       0.4535137160     0.2763346700     1.9024306053
   56      H      -0.5706895987    -0.7664994221     0.8286980721
 ----------------------------------------------------------------

    9   -1510.2632341213      4.03E-09 Convergence criterion met
 Total energy in the final basis set = -1510.26323412
 Final energy is   -1510.26323412128
 **  OPTIMIZATION CONVERGED  **

                    Orbital Energies (a.u.)
 --------------------------------------------------------------

 Alpha MOs
 -- Occupied --
-18.940 -18.935 -18.929 -18.915 -18.890 -18.885 -18.881 -18.872
-18.870 -18.867 -10.102 -10.101 -10.095 -10.095 -10.070 -10.065
-10.064 -10.062 -10.061 -10.060 -10.058 -10.056 -10.040 -10.038
-10.036 -10.035 -10.022 -10.021 -10.021 -10.019  -1.016  -1.014
 -1.004  -1.000  -0.972  -0.969  -0.940  -0.936  -0.929  -0.927
 -0.763  -0.762  -0.726  -0.722  -0.710  -0.706  -0.692  -0.662
 -0.657  -0.619  -0.598  -0.580  -0.545  -0.544  -0.538  -0.537
 -0.513  -0.511  -0.484  -0.474  -0.463  -0.461  -0.451  -0.444
 -0.435  -0.434  -0.427  -0.412  -0.409  -0.407  -0.405  -0.394
 -0.389  -0.380  -0.376  -0.369  -0.361  -0.357  -0.355  -0.345
 -0.340  -0.335  -0.333  -0.330  -0.327  -0.325  -0.319  -0.313
 -0.312  -0.309  -0.308  -0.300  -0.297  -0.293  -0.281  -0.275
 -0.272  -0.260  -0.249  -0.244  -0.235  -0.234  -0.232  -0.186
 -0.179  -0.174  -0.159  -0.156  -0.153  -0.148  -0.147  -0.141
 -0.141

          Ground-State Mulliken Net Atomic Charges

     Atom                 Charge (a.u.)
  ----------------------------------------
      1 O                    -0.215777
      2 C                     0.208593
      3 C                    -0.080595
      4 C                    -0.079087
      5 C                     0.217631
      6 O                    -0.180235
      7 C                    -0.053818
      8 C                    -0.053626
      9 O                    -0.175003
     10 C                     0.213235
     11 C                    -0.075145
     12 C                    -0.081606
     13 C                     0.213319
     14 O                    -0.212332
     15 O                    -0.164208
     16 O                    -0.171850
     17 O                    -0.207063
     18 C                    -0.127772
     19 C                     0.022423
     20 C                    -0.145884
     21 C                    -0.141855
     22 C                     0.021976
     23 O                    -0.194435
     24 H                     0.087333
     25 H                     0.081610
     26 H                     0.090355
     27 H                     0.078424
     28 H                     0.073390
     29 H                     0.077627
     30 H                     0.072989
     31 H                     0.093373
     32 O                    -0.206656
     33 C                    -0.125294
     34 C                     0.026097
     35 C                    -0.141699
     36 C                    -0.145559
     37 C                     0.026258
     38 O                    -0.183804
     39 H                     0.085250
     40 H                     0.086595
     41 H                     0.091194
     42 H                     0.085802
     43 H                     0.078625
     44 H                     0.074985
     45 H                     0.078544
     46 H                     0.074420
     47 H                     0.080549
     48 H                     0.090547
     49 H                     0.094550
     50 H                     0.088833
     51 H                     0.093415
     52 H                     0.087057
     53 H                     0.086049
     54 H                     0.094612
     55 H                     0.094891
     56 H                     0.092753
  ----------------------------------------
  Sum of atomic charges =     0.000000

                    Cartesian Multipole Moments
 -----------------------------------------------------------------
    Charge (ESU x 10^10)
                 0.0000
    Dipole Moment (Debye)
         X      -1.7834      Y       0.5014      Z      -0.8183
       Tot       2.0252
    Quadrupole Moments (Debye-Ang)
        XX    -149.7562     XY      -0.1092     YY    -155.3465
        XZ      -9.8494     YZ      -2.2747     ZZ    -160.9011

 Total job time:  74.54s(wall), 3540.43s(cpu)
        *  Thank you very much for using Q-Chem.  Have a nice day.  *
