 Q-Chem 5.0, Q-Chem, Inc., Pleasanton, CA (2017)
 Q-Chem 5.0.1 for Intel X86 EM64T Linux

User input:
--------------------------------------------------------------
$molecule
0  1
O 5.5180004578 -0.7983018286 1.3904658496
C 4.3912969399 -0.0553980689 0.6999989876
C 3.1380566036 -0.7394436733 1.2101076683
C 1.707482718 -0.0141942935 0.2781833967
C 2.2854792879 1.4142111644 -0.1500466064
O 2.3427754453 1.7693327306 -1.5636034158
C 1.1397637591 1.5305331054 -2.3953251751
C -0.2251344139 2.0649305782 -1.7261978888
O -1.4754394036 1.4882011688 -2.275837269
C -2.622299038 1.1872567282 -1.4143167336
C -3.0856703195 -0.2400474148 -0.9128270643
C -2.4368002199 -0.8546534692 0.3846801868
C -1.7713412605 0.1900397955 1.3398073693
O -0.5922756582 0.2410736463 1.7634477272
O 4.4420388052 0.5480921584 -0.5044205891
O -2.7444977316 1.1513257849 1.7045505456
O -3.3741799985 2.1582501251 -1.1478727096
C -2.1381068159 2.1685409539 2.588491526
C -4.6381667009 -0.2845478692 -0.5341589375
C -5.1445492854 -1.7352218491 -0.8796555852
C -4.3750741018 -2.5661139609 0.2129049946
C -3.7460073222 -1.41541375 1.0985442258
O -4.6833853026 -0.2867916491 0.9432902713
H -2.9119519544 -0.9545511421 -1.7416434465
H -1.7290823774 -1.65415779 0.1488690428
H -5.2311252531 0.5559526536 -0.940216499
H -6.2349831337 -1.8015169156 -0.7343076916
H -4.9109853513 -2.0384831189 -1.9132342466
H -5.0545970685 -3.1868881983 0.8169022125
H -3.6008211022 -3.2152180904 -0.2244036617
H -3.5995809671 -1.6707854792 2.1672585098
O 2.7337814824 2.2593676714 0.6510947092
C 5.8177724178 0.8963775811 -0.8659328204
C 2.9820035721 -2.1681831257 0.6696040285
C 1.5712436245 -2.8480777824 0.9423945433
C 0.7410394935 -2.324760268 -0.2795522951
C 1.6834504888 -1.1894078505 -0.8048474429
O 2.9873397934 -1.9091463526 -0.790749238
H 2.8885412053 -0.5450311644 2.2883904754
H 0.8296663348 0.0729829238 0.9202607148
H 6.4431396384 -0.0073541105 -1.0129693782
H 3.8358918639 -2.7810558979 0.9825788115
H 1.6477943423 -3.950950883 0.9344413718
H 1.1482953203 -2.5337777114 1.9118096779
H 0.6274491567 -3.0952377494 -1.0612503211
H -0.2511459957 -1.9696875416 0.0100657366
H 1.4865369975 -0.8546427037 -1.8358891397
H 6.2801368194 1.551737848 -0.1027174898
H 5.7023055273 1.4310003889 -1.8184600429
H -2.9429923227 2.8920054296 2.7993471129
H -1.2936993053 2.6805688201 2.0857105809
H -1.7758317326 1.7216457179 3.535664616
H -0.1432277581 1.8562272091 -0.6384141366
H -0.2569840261 3.170089899 -1.8527900703
H 0.9942731053 0.4752620806 -2.7252841767
H 1.3445582211 2.1272578605 -3.3181297202
$end

$rem
JOBTYPE                   OPT
METHOD                    B3LYP
DFT_D                     d3_op
BASIS                     STO-3G
GEOM_OPT_MAX_CYCLES       100
GEOM_OPT_TOL_GRADIENT     300
GEOM_OPT_TOL_DISPLACEMENT 1200
GEOM_OPT_TOL_ENERGY       100
SYMMETRY                  False
THRESH                    12
SCF_CONVERGENCE           8
MAX_SUB_FILE_NUM          128
MEM_STATIC                400
MEM_TOTAL                 4000
$end
--------------------------------------------------------------

   20   -1510.0890234282      2.66E-09 Convergence criterion met
 Total energy in the final basis set = -1510.08902343
   16   -1510.1137813399      4.17E-09 Convergence criterion met
 Total energy in the final basis set = -1510.11378134
   14   -1510.1630842508      8.85E-09 Convergence criterion met
 Total energy in the final basis set = -1510.16308425
   15   -1510.1970502871      2.79E-09 Convergence criterion met
 Total energy in the final basis set = -1510.19705029
   14   -1510.2188030946      6.50E-09 Convergence criterion met
 Total energy in the final basis set = -1510.21880309
   13   -1510.2314415805      7.99E-09 Convergence criterion met
 Total energy in the final basis set = -1510.23144158
   13   -1510.2388941137      9.98E-09 Convergence criterion met
 Total energy in the final basis set = -1510.23889411
   14   -1510.2446146197      1.97E-09 Convergence criterion met
   11   -1510.2939186848      4.13E-09 Convergence criterion met
 Total energy in the final basis set = -1510.29391868
   11   -1510.2939224718      3.09E-09 Convergence criterion met
 Total energy in the final basis set = -1510.29392247
   10   -1510.2939252293      6.08E-09 Convergence criterion met
 Total energy in the final basis set = -1510.29392523
   10   -1510.2939271768      3.59E-09 Convergence criterion met
 Total energy in the final basis set = -1510.29392718
    9   -1510.2939292178      8.14E-09 Convergence criterion met
 Total energy in the final basis set = -1510.29392922
    9   -1510.2939333758      9.90E-09 Convergence criterion met
 Total energy in the final basis set = -1510.29393338

             Standard Nuclear Orientation (Angstroms)
    I     Atom           X                Y                Z
 ----------------------------------------------------------------
    1      O       2.5115219581     0.6499813123     2.2620266670
    2      C       2.9407246915    -0.1262261738     1.3682847010
    3      C       2.0356067540    -0.8227784441     0.2959147372
    4      C       1.6217491342     0.1346382482    -0.8947555918
    5      C       2.4570838335     1.4670630182    -0.8754379231
    6      O       2.1022836501     2.5540637928    -1.7468454882
    7      C       0.7909916995     2.4439937371    -2.4169630715
    8      C      -0.4342967153     2.5975809410    -1.4364157634
    9      O      -1.0484712898     1.2570187427    -1.2817878304
   10      C      -2.3491317780     1.3724406896    -0.6666723581
   11      C      -3.0252757059    -0.0441372876    -0.6680130136
   12      C      -2.4319988335    -1.1069946231     0.3461353466
   13      C      -1.2676423463    -0.6251807360     1.2747947294
   14      O      -0.4011290323    -1.3768187500     1.7868810070
   15      O       4.2787532484    -0.6141555312     1.3145331015
   16      O      -1.3518305678     0.7715300380     1.4894089384
   17      O      -2.8651058479     2.4626754179    -0.3484895311
   18      C      -0.3341148575     1.2497594947     2.4648273428
   19      C      -4.5274098768     0.0542058195    -0.1664877401
   20      C      -5.2984735824    -1.2390070476    -0.6381504418
   21      C      -4.7071837691    -2.3167148712     0.3450381013
   22      C      -3.7298171085    -1.4330034371     1.2159729551
   23      O      -4.4135165156    -0.1250209050     1.2996276193
   24      H      -2.9663190004    -0.4363404621    -1.7002533037
   25      H      -2.0764246176    -2.0099356898    -0.1814622349
   26      H      -5.0129002200     1.0216946941    -0.3991461223
   27      H      -6.3833872634    -1.1134908287    -0.4939527144
   28      H      -5.1077089429    -1.4769772125    -1.6968436955
   29      H      -5.4910963878    -2.7591512982     0.9800473302
   30      H      -4.1773519432    -3.1279541004    -0.1794270442
   31      H      -3.5130828570    -1.8275743040     2.2278308481
   32      O       3.4813625859     1.6384430944    -0.1724785504
   33      C       5.1107621396     0.0951021503     2.3126272173
   34      C       2.6864431497    -2.0322674557    -0.4893839128
   35      C       1.5021566482    -2.8901757556    -1.0893910457
   36      C       1.0134421333    -1.9532809768    -2.2562318529
   37      C       2.0461443977    -0.7598074540    -2.1413528773
   38      O       3.2948320726    -1.4073747084    -1.6875182044
   39      H       1.1307459930    -1.1541009035     0.8487840071
   40      H       0.5330232927     0.3562113055    -0.8990416488
   41      H       4.6912433705     0.0020111191     3.3350780509
   42      H       3.4470257284    -2.6000308910     0.0794301602
   43      H       1.8749868417    -3.8526463512    -1.4743918516
   44      H       0.7161228565    -3.0834954692    -0.3420265109
   45      H       1.0958071197    -2.4468304529    -3.2376623319
   46      H      -0.0245924190    -1.6093804067    -2.1176350483
   47      H       2.2251714168    -0.2011808542    -3.0805791186
   48      H       5.1981039313     1.1715909586     2.0599161462
   49      H       6.1085648413    -0.3788255432     2.2716989674
   50      H      -0.4214288637     2.3513775202     2.4473547664
   51      H       0.7248149055     0.9451665623     2.2291243526
   52      H      -0.5919662729     0.8858588176     3.4796691508
   53      H      -0.0896002096     2.9904699477    -0.4540384582
   54      H      -1.1812923607     3.3107718300    -1.8448797850
   55      H       0.6783347437     1.4972139516    -2.9873712877
   56      H       0.7883233798     3.2846650987    -3.1401757659
 ----------------------------------------------------------------

    9   -1510.2939352852      4.97E-09 Convergence criterion met
 Total energy in the final basis set = -1510.29393529
 Final energy is   -1510.29393528525
 **  OPTIMIZATION CONVERGED  **

                    Orbital Energies (a.u.)
 --------------------------------------------------------------

 Alpha MOs
 -- Occupied --
-18.947 -18.945 -18.939 -18.926 -18.896 -18.887 -18.883 -18.883
-18.882 -18.858 -10.114 -10.111 -10.103 -10.093 -10.088 -10.084
-10.069 -10.065 -10.059 -10.053 -10.051 -10.048 -10.047 -10.042
-10.027 -10.026 -10.025 -10.019 -10.016 -10.015  -1.026  -1.017
 -1.012  -0.999  -0.978  -0.966  -0.950  -0.944  -0.941  -0.924
 -0.772  -0.757  -0.734  -0.720  -0.716  -0.710  -0.701  -0.656
 -0.651  -0.624  -0.598  -0.592  -0.554  -0.546  -0.543  -0.535
 -0.521  -0.511  -0.495  -0.482  -0.475  -0.466  -0.457  -0.444
 -0.435  -0.430  -0.427  -0.413  -0.411  -0.407  -0.405  -0.402
 -0.399  -0.392  -0.378  -0.377  -0.364  -0.363  -0.358  -0.355
 -0.349  -0.340  -0.332  -0.331  -0.330  -0.325  -0.316  -0.315
 -0.314  -0.313  -0.308  -0.305  -0.302  -0.290  -0.285  -0.276
 -0.268  -0.260  -0.251  -0.249  -0.241  -0.238  -0.229  -0.190
 -0.183  -0.179  -0.167  -0.164  -0.158  -0.152  -0.152  -0.141
 -0.136

          Ground-State Mulliken Net Atomic Charges

     Atom                 Charge (a.u.)
  ----------------------------------------
      1 O                    -0.231785
      2 C                     0.223454
      3 C                    -0.097784
      4 C                    -0.102004
      5 C                     0.210017
      6 O                    -0.168667
      7 C                    -0.048548
      8 C                    -0.052340
      9 O                    -0.182673
     10 C                     0.223521
     11 C                    -0.080196
     12 C                    -0.079936
     13 C                     0.214879
     14 O                    -0.219296
     15 O                    -0.164535
     16 O                    -0.166409
     17 O                    -0.206320
     18 C                    -0.147972
     19 C                     0.025595
     20 C                    -0.144070
     21 C                    -0.143679
     22 C                     0.026165
     23 O                    -0.185732
     24 H                     0.083459
     25 H                     0.084375
     26 H                     0.091127
     27 H                     0.079931
     28 H                     0.073376
     29 H                     0.080032
     30 H                     0.074409
     31 H                     0.085503
     32 O                    -0.194725
     33 C                    -0.126461
     34 C                     0.024960
     35 C                    -0.144368
     36 C                    -0.144685
     37 C                     0.022425
     38 O                    -0.189606
     39 H                     0.102611
     40 H                     0.099414
     41 H                     0.088208
     42 H                     0.089328
     43 H                     0.075704
     44 H                     0.076078
     45 H                     0.075294
     46 H                     0.069825
     47 H                     0.076292
     48 H                     0.094557
     49 H                     0.088672
     50 H                     0.084566
     51 H                     0.120665
     52 H                     0.082174
     53 H                     0.094676
     54 H                     0.095078
     55 H                     0.089716
     56 H                     0.095706
  ----------------------------------------
  Sum of atomic charges =     0.000000

                    Cartesian Multipole Moments
 -----------------------------------------------------------------
    Charge (ESU x 10^10)
                -0.0000
    Dipole Moment (Debye)
         X      -2.9554      Y      -1.7060      Z      -2.4413
       Tot       4.1958
    Quadrupole Moments (Debye-Ang)
        XX    -168.1194     XY       4.9121     YY    -160.2644
        XZ      10.6990     YZ      -3.4538     ZZ    -154.9416

 Total job time:  212.66s(wall), 10146.97s(cpu)
        *  Thank you very much for using Q-Chem.  Have a nice day.  *
