 Q-Chem 5.0, Q-Chem, Inc., Pleasanton, CA (2017)
 Q-Chem 5.0.1 for Intel X86 EM64T Linux

User input:
--------------------------------------------------------------
$molecule
0  1
O -3.94934 -3.66094 2.70899
C -3.26408 -4.56952 2.26188
C -3.36658 -6.02376 2.66595
C -4.10165 -6.33796 3.97927
C -4.80615 -5.18039 4.65143
O -5.63937 -5.64789 5.62744
C -6.88542 -6.13513 5.11833
C -6.9975 -5.83476 3.62724
O -8.16363 -6.47464 3.0854
C -8.07262 -7.81894 2.93143
C -8.17743 -8.2544 1.48919
C -8.93947 -7.28485 0.57401
C -9.16616 -5.89285 1.12869
O -9.84856 -5.02383 0.60552
O -2.40341 -4.29856 1.2457
O -7.8996 -5.32382 1.17786
O -7.70131 -8.59193 3.79877
C -7.49594 -4.00367 0.95529
C -6.98744 -8.62968 0.59922
C -7.43337 -9.57109 -0.52869
C -8.18481 -8.61677 -1.432
C -8.00919 -7.31067 -0.66162
O -6.71655 -7.43735 -0.09954
H -8.79891 -9.17446 1.58486
H -9.96015 -7.66883 0.34949
H -6.1741 -9.14765 1.13998
H -6.52498 -9.922 -1.06909
H -8.01486 -10.45368 -0.18513
H -7.63994 -8.54401 -2.3999
H -9.25006 -8.87348 -1.61725
H -8.17223 -6.43872 -1.33225
O -4.15095 -4.20309 4.98309
C -2.20934 -3.04446 0.70585
C -3.80176 -7.133 1.71411
C -2.99103 -8.39596 1.99603
C -3.53369 -8.77159 3.3681
C -4.65514 -7.72329 3.53829
O -5.04818 -7.5134 2.20778
H -2.2854 -6.20149 2.87912
H -3.36305 -6.5911 4.77584
H -1.8379 -2.34564 1.48563
H -3.76016 -6.84102 0.64303
H -3.31901 -9.16213 1.25691
H -1.88677 -8.28545 1.93793
H -3.96032 -9.79708 3.2969
H -2.79552 -8.73366 4.19774
H -5.38551 -8.1442 4.2404
H -3.16044 -2.66025 0.27884
H -1.45469 -3.11002 -0.1045
H -6.90346 -3.62302 1.80593
H -8.33757 -3.30012 0.79561
H -6.84142 -3.97754 0.0614
H -7.20281 -4.74561 3.63285
H -6.23508 -5.88228 2.87585
H -7.73229 -5.65226 5.65272
H -6.92828 -7.19606 5.39947
$end

$opt
CONSTRAINT
tors           1           2           3           4     -17.218
tors           3           4           5           6    +167.084
tors           4           5           6           7     -80.229
tors           5           6           7           8      -6.906
tors           6           7           8           9    +172.542
tors           7           8           9          10     -73.880
tors           8           9          10          11    -117.006
tors           9          10          11          12     -25.197
tors          11          12          13          14    -173.153
ENDCONSTRAINT
$end

$rem
JOBTYPE                   OPT
METHOD                    B3LYP
DFT_D                     d3_op
BASIS                     STO-3G
GEOM_OPT_MAX_CYCLES       100
GEOM_OPT_TOL_GRADIENT     300
GEOM_OPT_TOL_DISPLACEMENT 1200
GEOM_OPT_TOL_ENERGY       100
SYMMETRY                  False
THRESH                    12
SCF_CONVERGENCE           8
MAX_SUB_FILE_NUM          128
MEM_STATIC                400
MEM_TOTAL                 4000
$end
--------------------------------------------------------------

   16   -1509.9686536859      6.35E-09 Convergence criterion met
 Total energy in the final basis set = -1509.96865369
   15   -1510.0579582654      3.60E-09 Convergence criterion met
 Total energy in the final basis set = -1510.05795827
   14   -1510.1142144313      8.21E-09 Convergence criterion met
 Total energy in the final basis set = -1510.11421443
   15   -1510.1514968222      1.76E-09 Convergence criterion met
 Total energy in the final basis set = -1510.15149682
   15   -1510.1740298855      1.50E-09 Convergence criterion met
 Total energy in the final basis set = -1510.17402989
   14   -1510.1913324169      8.12E-09 Convergence criterion met
 Total energy in the final basis set = -1510.19133242
   13   -1510.2026166474      7.02E-09 Convergence criterion met
 Total energy in the final basis set = -1510.20261665
   13   -1510.2104204278      5.45E-09 Convergence criterion met
   12   -1510.2333004976      5.12E-09 Convergence criterion met
 Total energy in the final basis set = -1510.23330050
   11   -1510.2333549327      8.43E-09 Convergence criterion met
 Total energy in the final basis set = -1510.23335493
   11   -1510.2333814685      4.41E-09 Convergence criterion met
 Total energy in the final basis set = -1510.23338147
   11   -1510.2334118408      3.84E-09 Convergence criterion met
 Total energy in the final basis set = -1510.23341184
   10   -1510.2334248516      9.15E-09 Convergence criterion met
 Total energy in the final basis set = -1510.23342485
   10   -1510.2334299366      9.35E-09 Convergence criterion met
 Total energy in the final basis set = -1510.23342994

             Standard Nuclear Orientation (Angstroms)
    I     Atom           X                Y                Z
 ----------------------------------------------------------------
    1      O      -2.3007550298    -0.6235157852     1.4979625795
    2      C      -2.8674626039    -1.1564894048     0.5178224310
    3      C      -2.9357165511    -0.6408870130    -0.9661687730
    4      C      -2.5748507156     0.8872079927    -1.1364313082
    5      C      -2.9022904229     1.7975465205     0.1307191275
    6      O      -2.3080335502     3.1132018235     0.0812247628
    7      C      -0.8681021820     3.1024386378     0.4837626473
    8      C      -0.2665743254     1.7429497067     1.0511005675
    9      O       1.2008795237     1.8333326105     1.2384470009
   10      C       1.8716188287     1.7913382181    -0.0389476623
   11      C       2.8322136429     0.5658194078    -0.2883912806
   12      C       3.5175467893    -0.2204067482     0.8943816369
   13      C       2.6261246025    -0.6099475887     2.1389462534
   14      O       3.0490988573    -1.1226801951     3.2000629867
   15      O      -3.5354667116    -2.4177118632     0.5700779230
   16      O       1.2505740296    -0.5925585236     1.7647027176
   17      O       1.6591236182     2.6404164202    -0.9404586452
   18      C       0.3995153057    -1.1650266750     2.8315686338
   19      C       2.2826604521    -0.6439093590    -1.1996610038
   20      C       3.4573001340    -0.9519271307    -2.2036088790
   21      C       4.5496242895    -1.4756946142    -1.1906374356
   22      C       3.7070253446    -1.6205418854     0.1436861131
   23      O       2.3221175306    -1.8428502429    -0.3336717102
   24      H       3.6578299314     1.0298408020    -0.8609604907
   25      H       4.4617765160     0.2417717755     1.2311990216
   26      H       1.2446597166    -0.5213780409    -1.5885180406
   27      H       3.1612254710    -1.7419495004    -2.9131973474
   28      H       3.7858678491    -0.0664051619    -2.7708232158
   29      H       4.9560713565    -2.4526466987    -1.4962964217
   30      H       5.3876612867    -0.7697501831    -1.0731934966
   31      H       4.0298173034    -2.4437179242     0.8108474500
   32      O      -3.8430653363     1.5492633840     0.9123655615
   33      C      -3.4308895312    -2.9930928065     1.9320674906
   34      C      -1.6914656354    -1.2943151932    -1.7224589530
   35      C      -1.8098963766    -1.0293822292    -3.2716002534
   36      C      -1.3804057747     0.4811178875    -3.3615458041
   37      C      -1.1605481989     0.8325884082    -1.8391822123
   38      O      -0.5727760042    -0.4133562702    -1.2908848924
   39      H      -3.9036599415    -0.9183352201    -1.4162187196
   40      H      -3.2818068633     1.3037471645    -1.8832980103
   41      H      -3.8084982007    -2.2891239967     2.7009376929
   42      H      -1.4827645335    -2.3438001501    -1.4369272344
   43      H      -1.1207838849    -1.6824886703    -3.8301200105
   44      H      -2.8348255601    -1.2027341874    -3.6363813482
   45      H      -0.4346037098     0.5981522554    -3.9147589590
   46      H      -2.1459423235     1.1190107233    -3.8307572073
   47      H      -0.4882951808     1.6925133524    -1.6700849309
   48      H      -2.3824959140    -3.2588955822     2.1792847780
   49      H      -4.0513238711    -3.9079139090     1.9249144749
   50      H       0.5101537557    -0.6087841782     3.7842065967
   51      H       0.6471536825    -2.2304334694     3.0161349376
   52      H      -0.6430837904    -1.0709460477     2.4581615761
   53      H      -0.6767613058     1.5527289293     2.0630776124
   54      H      -0.5101021201     0.8641944332     0.4171054023
   55      H      -0.7565985820     3.8852530971     1.2646101447
   56      H      -0.2386339843     3.4024305739    -0.3860015576
 ----------------------------------------------------------------

    9   -1510.2334318053      5.93E-09 Convergence criterion met
 Total energy in the final basis set = -1510.23343181
 Final energy is   -1510.23343180533
 **  OPTIMIZATION CONVERGED  **

                    Orbital Energies (a.u.)
 --------------------------------------------------------------

 Alpha MOs
 -- Occupied --
-18.947 -18.919 -18.917 -18.909 -18.906 -18.899 -18.888 -18.887
-18.878 -18.854 -10.112 -10.111 -10.105 -10.084 -10.078 -10.075
-10.072 -10.060 -10.057 -10.053 -10.051 -10.044 -10.042 -10.041
-10.034 -10.032 -10.031 -10.027 -10.017 -10.014  -1.023  -1.007
 -1.004  -0.995  -0.993  -0.962  -0.947  -0.937  -0.931  -0.918
 -0.776  -0.755  -0.735  -0.720  -0.717  -0.698  -0.688  -0.672
 -0.645  -0.615  -0.596  -0.586  -0.560  -0.553  -0.536  -0.531
 -0.524  -0.505  -0.482  -0.473  -0.468  -0.460  -0.455  -0.445
 -0.433  -0.426  -0.423  -0.419  -0.418  -0.409  -0.405  -0.394
 -0.391  -0.380  -0.369  -0.369  -0.365  -0.360  -0.351  -0.349
 -0.347  -0.340  -0.338  -0.334  -0.328  -0.326  -0.323  -0.317
 -0.313  -0.311  -0.307  -0.303  -0.297  -0.290  -0.287  -0.284
 -0.264  -0.262  -0.250  -0.246  -0.235  -0.229  -0.222  -0.188
 -0.175  -0.171  -0.168  -0.162  -0.156  -0.148  -0.144  -0.136
 -0.132

          Ground-State Mulliken Net Atomic Charges

     Atom                 Charge (a.u.)
  ----------------------------------------
      1 O                    -0.213613
      2 C                     0.219850
      3 C                    -0.078090
      4 C                    -0.086465
      5 C                     0.223835
      6 O                    -0.189934
      7 C                    -0.063333
      8 C                    -0.056459
      9 O                    -0.182930
     10 C                     0.216629
     11 C                    -0.083385
     12 C                    -0.076121
     13 C                     0.212050
     14 O                    -0.223574
     15 O                    -0.167861
     16 O                    -0.161590
     17 O                    -0.205620
     18 C                    -0.137488
     19 C                     0.011874
     20 C                    -0.141778
     21 C                    -0.146243
     22 C                     0.022605
     23 O                    -0.192337
     24 H                     0.079351
     25 H                     0.083084
     26 H                     0.105119
     27 H                     0.073574
     28 H                     0.072075
     29 H                     0.076472
     30 H                     0.072624
     31 H                     0.081843
     32 O                    -0.182276
     33 C                    -0.128917
     34 C                     0.027279
     35 C                    -0.144816
     36 C                    -0.142743
     37 C                     0.018691
     38 O                    -0.187131
     39 H                     0.092430
     40 H                     0.085584
     41 H                     0.094805
     42 H                     0.091007
     43 H                     0.081785
     44 H                     0.078438
     45 H                     0.081609
     46 H                     0.078512
     47 H                     0.095352
     48 H                     0.089342
     49 H                     0.093248
     50 H                     0.082995
     51 H                     0.079539
     52 H                     0.103013
     53 H                     0.093472
     54 H                     0.099883
     55 H                     0.084596
     56 H                     0.090138
  ----------------------------------------
  Sum of atomic charges =    -0.000000

                    Cartesian Multipole Moments
 -----------------------------------------------------------------
    Charge (ESU x 10^10)
                -0.0000
    Dipole Moment (Debye)
         X      -0.7755      Y      -2.1648      Z      -3.2940
       Tot       4.0172
    Quadrupole Moments (Debye-Ang)
        XX    -158.2824     XY       8.5742     YY    -163.2598
        XZ      -1.7673     YZ      -0.9085     ZZ    -158.5727

 Total job time:  123.37s(wall), 5889.80s(cpu)
        *  Thank you very much for using Q-Chem.  Have a nice day.  *
