 Q-Chem 5.0, Q-Chem, Inc., Pleasanton, CA (2017)
 Q-Chem 5.0.1 for Intel X86 EM64T Linux

User input:
--------------------------------------------------------------
$molecule
0  1
O 1.3267455552 -0.4293177735 -1.4287857565
C 2.1871325575 0.4721990045 -1.4184765329
C 3.3342800679 0.8506174152 -0.4073338953
C 3.6680565009 0.0151013431 0.8999417763
C 3.2572517141 -1.5060585403 1.0956301962
O 2.3518738924 -2.0652830771 0.1193129316
C 1.0789738481 -2.4374808309 0.7645184849
C 0.2126643419 -1.1913868015 1.214052141
O -0.8752487453 -1.0359126892 0.2203108437
C -1.9407535163 -0.225712002 0.7678377508
C -3.29782589 -1.0192840748 0.7212157828
C -4.5905510814 -0.1045627238 0.8019321078
C -4.2953693602 1.3987796871 1.1535799259
O -4.2878259888 1.9072047359 2.2957612812
O 2.2735891223 1.4704806132 -2.4528405155
O -4.0505003299 2.1234986176 -0.0571896092
O -1.7693576822 0.9178794224 1.2424495464
C -3.6718636974 3.5175248344 0.2629638674
C -3.4986809649 -1.6935991312 -0.702270351
C -4.6948884075 -2.7226229066 -0.6220694489
C -5.9341218728 -1.7521140095 -0.6219285886
C -5.2150124825 -0.3454312008 -0.6395467746
O -4.0402882246 -0.5778676986 -1.5106870304
H -3.2685435985 -1.7692786934 1.5339799891
H -5.26618695 -0.485381382 1.5886758685
H -2.5595626114 -2.0805774818 -1.1432394586
H -4.6956036738 -3.3829446776 -1.50362397
H -4.6418280658 -3.3455470766 0.2851164241
H -6.5462274096 -1.8817569043 -1.5289000261
H -6.5791902421 -1.882460256 0.2615606462
H -5.8225332817 0.495246335 -1.0257833795
O 3.6901378169 -2.1700138127 2.0640184231
C 1.2188033459 1.2367854714 -3.4646882719
C 4.7759776235 0.9369351601 -1.0975887007
C 5.5532022526 2.1239254549 -0.410469324
C 5.8055259524 1.5130512923 1.0181198848
C 5.2594640741 0.041569811 0.8289885233
O 5.4972796857 -0.2557009265 -0.6034236246
H 3.0626763998 1.8697541103 -0.0717988577
H 3.2919839957 0.5437847217 1.7961610661
H 0.2066742789 1.2382656039 -3.010685526
H 4.7509492753 0.9571045486 -2.204100661
H 6.5011689534 2.3166122831 -0.9382287527
H 4.9649535448 3.0549239298 -0.3849249731
H 6.8772113585 1.4973772802 1.2715451617
H 5.2644725386 2.051488173 1.812911129
H 5.7344640961 -0.7240859227 1.4732645762
H 1.3632348805 0.2710662361 -3.9914390632
H 1.301872301 2.0672645382 -4.1897063002
H -3.4929208661 4.0165150739 -0.7072149867
H -2.7479787996 3.5501833445 0.8759240878
H -4.4784562181 4.0474258203 0.810146974
H -0.2096458843 -1.3820792951 2.2254607694
H 0.8462402293 -0.2787420166 1.2742474901
H 1.2559972627 -3.0981143758 1.6436123235
H 0.5063125798 -3.0028726273 0.0005570636
$end

$rem
JOBTYPE                   OPT
METHOD                    B3LYP
DFT_D                     d3_op
BASIS                     STO-3G
GEOM_OPT_MAX_CYCLES       100
GEOM_OPT_TOL_GRADIENT     300
GEOM_OPT_TOL_DISPLACEMENT 1200
GEOM_OPT_TOL_ENERGY       100
SYMMETRY                  False
THRESH                    12
SCF_CONVERGENCE           8
MAX_SUB_FILE_NUM          128
MEM_STATIC                400
MEM_TOTAL                 4000
$end
--------------------------------------------------------------

   16   -1510.2352359822      3.84E-09 Convergence criterion met
 Total energy in the final basis set = -1510.23523598
   14   -1510.2410221051      3.00E-09 Convergence criterion met
 Total energy in the final basis set = -1510.24102211
   14   -1510.2468759760      2.73E-09 Convergence criterion met
 Total energy in the final basis set = -1510.24687598
   14   -1510.2524677475      3.79E-09 Convergence criterion met
 Total energy in the final basis set = -1510.25246775
   14   -1510.2577224093      3.37E-09 Convergence criterion met
 Total energy in the final basis set = -1510.25772241
   14   -1510.2626557791      2.76E-09 Convergence criterion met
 Total energy in the final basis set = -1510.26265578
   14   -1510.2676920529      1.97E-09 Convergence criterion met
 Total energy in the final basis set = -1510.26769205
   13   -1510.2683042625      9.36E-09 Convergence criterion met
   13   -1510.2924650186      2.94E-09 Convergence criterion met
 Total energy in the final basis set = -1510.29246502
   13   -1510.2924398094      1.98E-09 Convergence criterion met
 Total energy in the final basis set = -1510.29243981
   12   -1510.2924623479      6.27E-09 Convergence criterion met
 Total energy in the final basis set = -1510.29246235
   12   -1510.2924701272      2.72E-09 Convergence criterion met
 Total energy in the final basis set = -1510.29247013
   11   -1510.2924745580      4.35E-09 Convergence criterion met
 Total energy in the final basis set = -1510.29247456
    9   -1510.2924749997      8.53E-09 Convergence criterion met
 Total energy in the final basis set = -1510.29247500

             Standard Nuclear Orientation (Angstroms)
    I     Atom           X                Y                Z
 ----------------------------------------------------------------
    1      O      -0.6414362792    -0.3409618995    -0.3422356953
    2      C      -1.4507023267    -1.0856920007    -0.9408717175
    3      C      -2.9563579988    -1.3193464226    -0.5679226103
    4      C      -3.4144653391    -0.5413820883     0.7300856628
    5      C      -2.2740673971     0.1466290560     1.5741231196
    6      O      -2.1155631451     1.5152365754     1.1687156225
    7      C      -1.3572188616     2.3019559307     2.1708069286
    8      C       0.1055599395     1.8264325494     2.4748712435
    9      O       0.9177714848     1.9578011280     1.2421347617
   10      C       2.1696082748     1.2989962590     1.4200334685
   11      C       2.9515127601     1.3310532900     0.0612615995
   12      C       4.1784163899     0.3252482198     0.0347874484
   13      C       4.4733981837    -0.3750769607     1.4149828917
   14      O       5.3493672731    -0.0415921401     2.2422251532
   15      O      -1.1891999827    -1.8648964590    -2.1009171530
   16      O       3.6621003986    -1.5529018544     1.5183369889
   17      O       2.5425545533     0.7716558510     2.4923878523
   18      C       3.8680695924    -2.1878687932     2.8375654713
   19      C       2.0462929019     0.7460156371    -1.0937228478
   20      C       2.7214806702     1.0457053804    -2.4867124674
   21      C       3.8894608193    -0.0102915916    -2.4993765356
   22      C       3.7022067110    -0.6925786809    -1.0882799095
   23      O       2.2293799435    -0.7146404928    -0.9130096926
   24      H       3.2667723425     2.3693201552    -0.1498493699
   25      H       5.1006343478     0.8530241083    -0.2661865328
   26      H       0.9691327935     0.9874711253    -0.9964153679
   27      H       2.0106342531     0.8727169749    -3.3097687564
   28      H       3.0865991285     2.0830899152    -2.5488229175
   29      H       3.7535175123    -0.7503278201    -3.3041634663
   30      H       4.8831107026     0.4524298439    -2.6085145708
   31      H       4.1176026530    -1.7139524212    -0.9926679798
   32      O      -1.7016418531    -0.3794598990     2.5555047268
   33      C       0.1588802697    -1.6196640850    -2.6709749904
   34      C      -3.8983855882    -0.6544062364    -1.6630874432
   35      C      -5.3792177523    -1.1561907623    -1.4380948397
   36      C      -5.7994455468    -0.3119423511    -0.1784776690
   37      C      -4.4638692237     0.4801310360     0.1125829434
   38      O      -3.9355872694     0.7638634651    -1.2418495266
   39      H      -3.1379170231    -2.4059002683    -0.4829421702
   40      H      -3.9128252906    -1.2418022093     1.4238969108
   41      H       0.9474882422    -1.4124277607    -1.8994176594
   42      H      -3.5181875089    -0.7493454118    -2.6988367693
   43      H      -6.0041610553    -0.9182522523    -2.3135244016
   44      H      -5.4242129762    -2.2422390385    -1.2580042944
   45      H      -6.6162426841     0.3879308137    -0.4170787186
   46      H      -6.1085148856    -0.9380349329     0.6736390513
   47      H      -4.5809482463     1.4200373872     0.6849262751
   48      H       0.1095312773    -0.7607447017    -3.3716267395
   49      H       0.4124993835    -2.5285603297    -3.2471743005
   50      H       3.2583808765    -3.1101373655     2.8320782968
   51      H       3.5276945813    -1.5223289609     3.6571391223
   52      H       4.9335306984    -2.4452981486     3.0088284108
   53      H       0.5227506905     2.4622537081     3.2874492780
   54      H       0.0718736266     0.7715760417     2.8211568008
   55      H      -1.9051504502     2.3097682244     3.1400997122
   56      H      -1.3421749503     3.3335004132     1.7636053459
 ----------------------------------------------------------------

    9   -1510.2924741154      5.16E-09 Convergence criterion met
 Total energy in the final basis set = -1510.29247412
 Final energy is   -1510.29247411535
 **  OPTIMIZATION CONVERGED  **

                    Orbital Energies (a.u.)
 --------------------------------------------------------------

 Alpha MOs
 -- Occupied --
-18.934 -18.928 -18.927 -18.916 -18.900 -18.885 -18.878 -18.875
-18.864 -18.853 -10.100 -10.098 -10.095 -10.086 -10.073 -10.065
-10.061 -10.058 -10.056 -10.055 -10.048 -10.037 -10.035 -10.034
-10.032 -10.031 -10.022 -10.021 -10.019 -10.018  -1.014  -1.006
 -1.000  -0.993  -0.975  -0.968  -0.937  -0.933  -0.928  -0.919
 -0.763  -0.759  -0.727  -0.720  -0.714  -0.704  -0.694  -0.652
 -0.647  -0.612  -0.594  -0.576  -0.545  -0.541  -0.537  -0.535
 -0.513  -0.506  -0.480  -0.472  -0.462  -0.456  -0.442  -0.435
 -0.435  -0.431  -0.429  -0.409  -0.403  -0.400  -0.397  -0.394
 -0.391  -0.372  -0.369  -0.364  -0.361  -0.354  -0.348  -0.338
 -0.336  -0.333  -0.331  -0.329  -0.327  -0.325  -0.323  -0.312
 -0.310  -0.304  -0.302  -0.297  -0.295  -0.279  -0.278  -0.272
 -0.270  -0.255  -0.253  -0.241  -0.238  -0.232  -0.228  -0.177
 -0.173  -0.167  -0.159  -0.153  -0.152  -0.148  -0.144  -0.139
 -0.135

          Ground-State Mulliken Net Atomic Charges

     Atom                 Charge (a.u.)
  ----------------------------------------
      1 O                    -0.209134
      2 C                     0.216702
      3 C                    -0.077745
      4 C                    -0.081744
      5 C                     0.216541
      6 O                    -0.166559
      7 C                    -0.044902
      8 C                    -0.052463
      9 O                    -0.168713
     10 C                     0.218522
     11 C                    -0.076878
     12 C                    -0.080835
     13 C                     0.214337
     14 O                    -0.220734
     15 O                    -0.173814
     16 O                    -0.171585
     17 O                    -0.207773
     18 C                    -0.127350
     19 C                     0.022613
     20 C                    -0.145652
     21 C                    -0.144853
     22 C                     0.027507
     23 O                    -0.184430
     24 H                     0.085931
     25 H                     0.082563
     26 H                     0.109252
     27 H                     0.076648
     28 H                     0.075182
     29 H                     0.076726
     30 H                     0.075307
     31 H                     0.088972
     32 O                    -0.221603
     33 C                    -0.152952
     34 C                     0.024803
     35 C                    -0.144267
     36 C                    -0.144024
     37 C                     0.025598
     38 O                    -0.189800
     39 H                     0.086371
     40 H                     0.083076
     41 H                     0.122779
     42 H                     0.085720
     43 H                     0.077435
     44 H                     0.073831
     45 H                     0.076936
     46 H                     0.072918
     47 H                     0.085795
     48 H                     0.070077
     49 H                     0.078850
     50 H                     0.087086
     51 H                     0.093100
     52 H                     0.085067
     53 H                     0.083716
     54 H                     0.112659
     55 H                     0.083524
     56 H                     0.091668
  ----------------------------------------
  Sum of atomic charges =    -0.000000

                    Cartesian Multipole Moments
 -----------------------------------------------------------------
    Charge (ESU x 10^10)
                 0.0000
    Dipole Moment (Debye)
         X      -1.5797      Y       0.1900      Z      -1.8071
       Tot       2.4077
    Quadrupole Moments (Debye-Ang)
        XX    -154.4795     XY       2.0996     YY    -153.4694
        XZ     -14.3591     YZ       3.1550     ZZ    -158.2793

 Total job time:  151.37s(wall), 7222.39s(cpu)
        *  Thank you very much for using Q-Chem.  Have a nice day.  *
