 Q-Chem 5.0, Q-Chem, Inc., Pleasanton, CA (2017)
 Q-Chem 5.0.1 for Intel X86 EM64T Linux

User input:
--------------------------------------------------------------
$molecule
0  1
O -3.94934 -3.66094 2.70899
C -3.26408 -4.56952 2.26188
C -3.36658 -6.02376 2.66595
C -4.46404 -6.39666 3.67609
C -5.44972 -5.30655 4.03412
O -5.0182 -4.10951 3.53781
C -4.71055 -3.15454 4.55891
C -3.44687 -3.57091 5.30447
O -2.3341 -2.77756 4.86261
C -1.26253 -2.76206 5.69366
C -0.87217 -1.36826 6.12445
C 0.5692 -1.22853 6.63553
C 1.49892 -2.38137 6.31415
O 1.70801 -3.34571 7.03588
O -2.30967 -4.27319 1.34131
O 2.10909 -2.36364 5.09625
O -1.02556 -3.7168 6.4242
C 2.95869 -3.34567 4.63146
C -0.87727 -0.30847 4.99749
C -1.07059 1.07928 5.60698
C 0.264 1.2727 6.29758
C 1.00008 0.01324 5.82481
O 0.45378 -0.24716 4.55465
H -1.61798 -1.06748 6.89497
H 0.63391 -1.04817 7.73117
H -1.64331 -0.48267 4.21166
H -1.13796 1.79721 4.75793
H -1.96347 1.20096 6.25721
H 0.74066 2.19084 5.88806
H 0.2226 1.32476 7.40716
H 2.10084 0.17147 5.85929
O -6.37848 -5.43557 4.81966
C -2.04988 -3.00071 0.8773
C -3.78055 -6.90576 1.4727
C -3.36777 -8.35553 1.72545
C -4.3778 -8.75626 2.77969
C -5.20974 -7.47368 2.86965
O -5.1828 -6.9631 1.55922
H -2.35747 -6.31976 3.03056
H -4.05435 -6.79851 4.62893
H -1.74167 -2.3428 1.7184
H -3.36539 -6.55599 0.50211
H -3.57915 -8.93287 0.797
H -2.30221 -8.49157 2.01013
H -5.00155 -9.583 2.37218
H -3.94972 -9.05331 3.7615
H -6.21721 -7.698 3.28503
H -2.95271 -2.5815 0.38385
H -1.22517 -3.04464 0.13685
H 3.3081 -3.0725 3.61475
H 2.42498 -4.31856 4.57707
H 3.84067 -3.43673 5.30083
H -3.64472 -3.25218 6.35536
H -3.23387 -4.65762 5.35427
H -5.56587 -3.13754 5.27519
H -4.6625 -2.09152 4.21358
$end

$opt
CONSTRAINT
tors           1           2           3           4      +2.832
tors           3           4           5           6     -10.300
tors           4           5           6           7    -115.767
tors           5           6           7           8     +70.317
tors           6           7           8           9    +102.972
tors           7           8           9          10    +161.430
tors           8           9          10          11    -123.158
tors           9          10          11          12    -159.524
tors          11          12          13          14     -92.536
ENDCONSTRAINT
$end

$rem
JOBTYPE                   OPT
METHOD                    B3LYP
DFT_D                     d3_op
BASIS                     STO-3G
GEOM_OPT_MAX_CYCLES       100
GEOM_OPT_TOL_GRADIENT     300
GEOM_OPT_TOL_DISPLACEMENT 1200
GEOM_OPT_TOL_ENERGY       100
SYMMETRY                  False
THRESH                    12
SCF_CONVERGENCE           8
MAX_SUB_FILE_NUM          128
MEM_STATIC                400
MEM_TOTAL                 4000
$end
--------------------------------------------------------------

   22   -1509.7980961809      6.19E-09 Convergence criterion met
 Total energy in the final basis set = -1509.79809618
   16   -1509.9383621563      4.84E-09 Convergence criterion met
 Total energy in the final basis set = -1509.93836216
   15   -1510.0477757782      5.31E-09 Convergence criterion met
 Total energy in the final basis set = -1510.04777578
   14   -1510.1206891535      9.75E-09 Convergence criterion met
 Total energy in the final basis set = -1510.12068915
   14   -1510.1660925533      5.17E-09 Convergence criterion met
 Total energy in the final basis set = -1510.16609255
   14   -1510.1938867619      5.27E-09 Convergence criterion met
 Total energy in the final basis set = -1510.19388676
   13   -1510.2104253840      9.56E-09 Convergence criterion met
 Total energy in the final basis set = -1510.21042538
   13   -1510.2205378651      6.80E-09 Convergence criterion met
   10   -1510.2354496283      9.09E-09 Convergence criterion met
 Total energy in the final basis set = -1510.23544963
   11   -1510.2354609980      3.42E-09 Convergence criterion met
 Total energy in the final basis set = -1510.23546100
   11   -1510.2354671369      3.29E-09 Convergence criterion met
 Total energy in the final basis set = -1510.23546714
    9   -1510.2354797971      7.49E-09 Convergence criterion met
 Total energy in the final basis set = -1510.23547980
    9   -1510.2354820215      4.87E-09 Convergence criterion met
 Total energy in the final basis set = -1510.23548202
    9   -1510.2354833769      5.44E-09 Convergence criterion met
 Total energy in the final basis set = -1510.23548338

             Standard Nuclear Orientation (Angstroms)
    I     Atom           X                Y                Z
 ----------------------------------------------------------------
    1      O       1.3267455552    -0.4293177735    -1.4287857565
    2      C       2.1871325575     0.4721990045    -1.4184765329
    3      C       3.3342800679     0.8506174152    -0.4073338953
    4      C       3.6680565009     0.0151013431     0.8999417763
    5      C       3.2572517141    -1.5060585403     1.0956301962
    6      O       2.3518738924    -2.0652830771     0.1193129316
    7      C       1.0789738481    -2.4374808309     0.7645184849
    8      C       0.2126643419    -1.1913868015     1.2140521410
    9      O      -0.8752487453    -1.0359126892     0.2203108437
   10      C      -1.9407535163    -0.2257120020     0.7678377508
   11      C      -3.2978258900    -1.0192840748     0.7212157828
   12      C      -4.5905510814    -0.1045627238     0.8019321078
   13      C      -4.2953693602     1.3987796871     1.1535799259
   14      O      -4.2878259888     1.9072047359     2.2957612812
   15      O       2.2735891223     1.4704806132    -2.4528405155
   16      O      -4.0505003299     2.1234986176    -0.0571896092
   17      O      -1.7693576822     0.9178794224     1.2424495464
   18      C      -3.6718636974     3.5175248344     0.2629638674
   19      C      -3.4986809649    -1.6935991312    -0.7022703510
   20      C      -4.6948884075    -2.7226229066    -0.6220694489
   21      C      -5.9341218728    -1.7521140095    -0.6219285886
   22      C      -5.2150124825    -0.3454312008    -0.6395467746
   23      O      -4.0402882246    -0.5778676986    -1.5106870304
   24      H      -3.2685435985    -1.7692786934     1.5339799891
   25      H      -5.2661869500    -0.4853813820     1.5886758685
   26      H      -2.5595626114    -2.0805774818    -1.1432394586
   27      H      -4.6956036738    -3.3829446776    -1.5036239700
   28      H      -4.6418280658    -3.3455470766     0.2851164241
   29      H      -6.5462274096    -1.8817569043    -1.5289000261
   30      H      -6.5791902421    -1.8824602560     0.2615606462
   31      H      -5.8225332817     0.4952463350    -1.0257833795
   32      O       3.6901378169    -2.1700138127     2.0640184231
   33      C       1.2188033459     1.2367854714    -3.4646882719
   34      C       4.7759776235     0.9369351601    -1.0975887007
   35      C       5.5532022526     2.1239254549    -0.4104693240
   36      C       5.8055259524     1.5130512923     1.0181198848
   37      C       5.2594640741     0.0415698110     0.8289885233
   38      O       5.4972796857    -0.2557009265    -0.6034236246
   39      H       3.0626763998     1.8697541103    -0.0717988577
   40      H       3.2919839957     0.5437847217     1.7961610661
   41      H       0.2066742789     1.2382656039    -3.0106855260
   42      H       4.7509492753     0.9571045486    -2.2041006610
   43      H       6.5011689534     2.3166122831    -0.9382287527
   44      H       4.9649535448     3.0549239298    -0.3849249731
   45      H       6.8772113585     1.4973772802     1.2715451617
   46      H       5.2644725386     2.0514881730     1.8129111290
   47      H       5.7344640961    -0.7240859227     1.4732645762
   48      H       1.3632348805     0.2710662361    -3.9914390632
   49      H       1.3018723010     2.0672645382    -4.1897063002
   50      H      -3.4929208661     4.0165150739    -0.7072149867
   51      H      -2.7479787996     3.5501833445     0.8759240878
   52      H      -4.4784562181     4.0474258203     0.8101469740
   53      H      -0.2096458843    -1.3820792951     2.2254607694
   54      H       0.8462402293    -0.2787420166     1.2742474901
   55      H       1.2559972627    -3.0981143758     1.6436123235
   56      H       0.5063125798    -3.0028726273     0.0005570636
 ----------------------------------------------------------------

    9   -1510.2354836505      3.13E-09 Convergence criterion met
 Total energy in the final basis set = -1510.23548365
 Final energy is   -1510.23548365047
 **  OPTIMIZATION CONVERGED  **

                    Orbital Energies (a.u.)
 --------------------------------------------------------------

 Alpha MOs
 -- Occupied --
-18.924 -18.924 -18.917 -18.912 -18.899 -18.893 -18.888 -18.886
-18.878 -18.861 -10.109 -10.107 -10.096 -10.091 -10.076 -10.074
-10.059 -10.059 -10.059 -10.058 -10.057 -10.055 -10.040 -10.040
-10.037 -10.033 -10.021 -10.020 -10.019 -10.018  -1.014  -1.010
 -1.005  -0.999  -0.971  -0.968  -0.945  -0.936  -0.929  -0.925
 -0.762  -0.761  -0.723  -0.721  -0.711  -0.707  -0.696  -0.657
 -0.653  -0.612  -0.599  -0.585  -0.544  -0.541  -0.538  -0.537
 -0.516  -0.511  -0.483  -0.476  -0.464  -0.457  -0.444  -0.439
 -0.433  -0.432  -0.424  -0.414  -0.407  -0.406  -0.405  -0.402
 -0.396  -0.377  -0.374  -0.369  -0.365  -0.356  -0.351  -0.345
 -0.340  -0.339  -0.335  -0.330  -0.330  -0.326  -0.318  -0.313
 -0.310  -0.307  -0.304  -0.300  -0.295  -0.294  -0.284  -0.276
 -0.268  -0.252  -0.252  -0.242  -0.238  -0.234  -0.232  -0.176
 -0.173  -0.167  -0.166  -0.159  -0.157  -0.145  -0.145  -0.139
 -0.135

          Ground-State Mulliken Net Atomic Charges

     Atom                 Charge (a.u.)
  ----------------------------------------
      1 O                    -0.197889
      2 C                     0.208938
      3 C                    -0.081318
      4 C                    -0.080739
      5 C                     0.217626
      6 O                    -0.177522
      7 C                    -0.039683
      8 C                    -0.044553
      9 O                    -0.182228
     10 C                     0.220082
     11 C                    -0.078212
     12 C                    -0.082544
     13 C                     0.211844
     14 O                    -0.217979
     15 O                    -0.177428
     16 O                    -0.170374
     17 O                    -0.191201
     18 C                    -0.127777
     19 C                     0.023399
     20 C                    -0.144740
     21 C                    -0.143662
     22 C                     0.025835
     23 O                    -0.188772
     24 H                     0.083591
     25 H                     0.081750
     26 H                     0.092485
     27 H                     0.078118
     28 H                     0.072156
     29 H                     0.077447
     30 H                     0.072940
     31 H                     0.086869
     32 O                    -0.194700
     33 C                    -0.129496
     34 C                     0.026330
     35 C                    -0.142021
     36 C                    -0.145861
     37 C                     0.024298
     38 O                    -0.191076
     39 H                     0.084333
     40 H                     0.082656
     41 H                     0.091465
     42 H                     0.088510
     43 H                     0.078030
     44 H                     0.074620
     45 H                     0.078828
     46 H                     0.073139
     47 H                     0.087704
     48 H                     0.087685
     49 H                     0.088220
     50 H                     0.087762
     51 H                     0.092555
     52 H                     0.085915
     53 H                     0.076801
     54 H                     0.083774
     55 H                     0.083172
     56 H                     0.100898
  ----------------------------------------
  Sum of atomic charges =    -0.000000

                    Cartesian Multipole Moments
 -----------------------------------------------------------------
    Charge (ESU x 10^10)
                 0.0000
    Dipole Moment (Debye)
         X      -1.0322      Y       0.6011      Z       0.2843
       Tot       1.2278
    Quadrupole Moments (Debye-Ang)
        XX    -157.7403     XY      17.4022     YY    -155.1984
        XZ       3.0536     YZ      -5.4134     ZZ    -162.1320

 Total job time:  84.41s(wall), 4022.70s(cpu)
        *  Thank you very much for using Q-Chem.  Have a nice day.  *
