 Q-Chem 5.0, Q-Chem, Inc., Pleasanton, CA (2017)
 Q-Chem 5.0.1 for Intel X86 EM64T Linux

User input:
--------------------------------------------------------------
$molecule
0  1
O -3.94934 -3.66094 2.70899
C -3.26408 -4.56952 2.26188
C -3.36658 -6.02376 2.66595
C -2.75857 -6.42101 4.02108
C -2.27395 -5.28967 4.90046
O -3.33677 -4.69319 5.51693
C -2.95905 -3.59283 6.35107
C -4.19115 -2.78509 6.74553
O -3.81118 -1.70465 7.61222
C -3.81335 -1.9919 8.9376
C -2.42531 -2.1874 9.49953
C -1.90954 -1.03044 10.36769
C -2.95528 -0.03851 10.83589
O -4.16336 -0.22578 10.82865
O -2.43273 -4.30141 1.22039
O -2.47423 1.08142 11.43706
O -4.78612 -2.52087 9.46178
C -3.26435 2.07371 11.97847
C -2.2952 -3.35356 10.50652
C -0.84333 -3.82788 10.56035
C -0.18793 -2.65545 11.26314
C -1.42276 -1.81056 11.59787
O -2.45115 -2.75614 11.77113
H -1.72851 -2.38565 8.65541
H -1.12665 -0.44704 9.83418
H -2.96633 -4.21069 10.2802
H -0.8194 -4.70841 11.24209
H -0.39012 -4.11095 9.58593
H 0.30342 -3.03095 12.18799
H 0.53858 -2.0796 10.64959
H -1.21974 -1.14576 12.4665
O -1.10051 -5.11837 5.20849
C -2.24512 -3.0473 0.6779
C -4.81401 -6.51687 2.84706
C -4.87549 -8.03244 2.65694
C -4.19389 -8.50692 3.92578
C -3.9606 -7.16875 4.63583
O -5.05601 -6.38117 4.22743
H -2.87723 -6.60703 1.85182
H -1.88263 -7.09273 3.87457
H -1.84562 -2.35359 1.44841
H -5.53456 -6.01076 2.16794
H -5.94847 -8.32728 2.701
H -4.43145 -8.40768 1.70989
H -4.91669 -9.12704 4.50132
H -3.24726 -9.06961 3.77531
H -3.84317 -7.322 5.73119
H -3.20503 -2.65439 0.2797
H -1.51485 -3.11634 -0.15422
H -2.61391 2.86757 12.39941
H -3.89568 1.65905 12.79321
H -3.91031 2.51964 11.19212
H -4.6514 -2.36185 5.82752
H -4.94958 -3.45308 7.21308
H -2.27404 -2.89794 5.81173
H -2.45177 -3.99467 7.25343
$end

$opt
CONSTRAINT
tors           1           2           3           4     -76.193
tors           3           4           5           6     +78.057
tors           4           5           6           7    -178.930
tors           5           6           7           8    +167.050
tors           6           7           8           9    +178.407
tors           7           8           9          10     -89.688
tors           8           9          10          11    +104.116
tors           9          10          11          12    +105.855
tors          11          12          13          14     +16.392
ENDCONSTRAINT
$end

$rem
JOBTYPE                   OPT
METHOD                    B3LYP
DFT_D                     d3_op
BASIS                     STO-3G
GEOM_OPT_MAX_CYCLES       100
GEOM_OPT_TOL_GRADIENT     300
GEOM_OPT_TOL_DISPLACEMENT 1200
GEOM_OPT_TOL_ENERGY       100
SYMMETRY                  False
THRESH                    12
SCF_CONVERGENCE           8
MAX_SUB_FILE_NUM          128
MEM_STATIC                400
MEM_TOTAL                 4000
$end
--------------------------------------------------------------

   15   -1510.1232676185      7.84E-09 Convergence criterion met
 Total energy in the final basis set = -1510.12326762
   13   -1510.1937431028      6.53E-09 Convergence criterion met
 Total energy in the final basis set = -1510.19374310
   15   -1510.2315640445      1.63E-09 Convergence criterion met
 Total energy in the final basis set = -1510.23156404
   14   -1510.2483164680      7.65E-09 Convergence criterion met
 Total energy in the final basis set = -1510.24831647
   14   -1510.2540536467      4.83E-09 Convergence criterion met
 Total energy in the final basis set = -1510.25405365
   14   -1510.2562769523      2.40E-09 Convergence criterion met
 Total energy in the final basis set = -1510.25627695
   13   -1510.2571466821      2.87E-09 Convergence criterion met
 Total energy in the final basis set = -1510.25714668
   12   -1510.2576080430      9.00E-09 Convergence criterion met
   11   -1510.2608812536      3.29E-09 Convergence criterion met
 Total energy in the final basis set = -1510.26088125
   11   -1510.2608900429      2.85E-09 Convergence criterion met
 Total energy in the final basis set = -1510.26089004
   10   -1510.2609043213      5.23E-09 Convergence criterion met
 Total energy in the final basis set = -1510.26090432
   10   -1510.2609100752      9.13E-09 Convergence criterion met
 Total energy in the final basis set = -1510.26091008
   10   -1510.2609137297      6.97E-09 Convergence criterion met
 Total energy in the final basis set = -1510.26091373
    9   -1510.2609217725      7.24E-09 Convergence criterion met
 Total energy in the final basis set = -1510.26092177

             Standard Nuclear Orientation (Angstroms)
    I     Atom           X                Y                Z
 ----------------------------------------------------------------
    1      O       3.4642153780    -2.0040030529     0.7700135560
    2      C       4.3109987631    -1.5960563226    -0.0537469887
    3      C       5.0302796257    -0.2042377171    -0.0941639596
    4      C       4.0966371724     0.9661927150    -0.6425818640
    5      C       2.6808736402     0.4619460619    -1.0859857813
    6      O       1.8805701653     0.2618359221     0.0794355317
    7      C       0.5360620436    -0.2415826834    -0.2937036569
    8      C      -0.1323515564    -0.7431258922     1.0412076980
    9      O      -1.5023795009    -1.2376443619     0.8030375599
   10      C      -2.4449039672    -0.1204560007     0.9474373536
   11      C      -2.9598311231     0.3991696172    -0.4684638254
   12      C      -4.4442285940    -0.0196718145    -0.8004593265
   13      C      -4.9137266196    -1.1849567794     0.1232636287
   14      O      -4.3615746094    -1.5452490441     1.1908727756
   15      O       4.7642781065    -2.3619782711    -1.1785854017
   16      O      -6.0973302039    -1.7738287000    -0.4075534642
   17      O      -2.5995220212     0.4883007936     2.0259424190
   18      C      -6.5662066324    -2.8644442391     0.4819369059
   19      C      -3.1337789419     1.9737531506    -0.3686092727
   20      C      -3.4663019953     2.5623331402    -1.7978854163
   21      C      -4.9901685718     2.1928697865    -1.9394627394
   22      C      -5.2164909828     1.3620916990    -0.6161711218
   23      O      -4.4086326739     2.0982809898     0.3791972225
   24      H      -2.2556578848     0.0747918751    -1.2532697471
   25      H      -4.5404658108    -0.3622809205    -1.8466568564
   26      H      -2.3201193248     2.4889748978     0.1774135209
   27      H      -3.3092319253     3.6523120861    -1.8151759933
   28      H      -2.8448809293     2.1041520155    -2.5840623515
   29      H      -5.6237328206     3.0942506223    -1.9332968624
   30      H      -5.2100895403     1.6098512915    -2.8481426346
   31      H      -6.2681308231     1.2696011439    -0.2818912594
   32      O       2.2907546549     0.2454604428    -2.2549416973
   33      C       4.0569684319    -3.6629287148    -1.2222083836
   34      C       5.3447111708     0.3336488814     1.3671346200
   35      C       6.3749890121     1.5256642692     1.2403000201
   36      C       5.4415523642     2.6780559543     0.7117059283
   37      C       4.0540467578     1.9277079864     0.6198770886
   38      O       4.0860324522     0.9978748402     1.7704798085
   39      H       5.9424203451    -0.3014378934    -0.7086583175
   40      H       4.5632271779     1.4538551295    -1.5170002074
   41      H       2.9642076681    -3.5270392067    -1.3567385146
   42      H       5.6152252534    -0.4543328892     2.0962768570
   43      H       6.8055435715     1.7713710338     2.2239419744
   44      H       7.1945601870     1.2881595609     0.5435538753
   45      H       5.3813978071     3.5102190786     1.4311419228
   46      H       5.7654458073     3.0761947689    -0.2632233228
   47      H       3.1592490649     2.5771789767     0.6726335742
   48      H       4.2258314602    -4.2526364430    -0.2980353300
   49      H       4.4708306818    -4.2073649820    -2.0907559687
   50      H      -7.4794006247    -3.2701801360     0.0092321473
   51      H      -6.8071755864    -2.4861218284     1.4962085883
   52      H      -5.8059550462    -3.6665507254     0.5747153136
   53      H       0.4627416819    -1.5968277772     1.4287023833
   54      H      -0.1040753405     0.0702844339     1.7991021941
   55      H       0.6089946136    -1.0682050320    -1.0323239328
   56      H      -0.0621522145     0.5761172001    -0.7522633809
 ----------------------------------------------------------------

    9   -1510.2609223198      4.08E-09 Convergence criterion met
 Total energy in the final basis set = -1510.26092232
 Final energy is   -1510.26092231981
 **  OPTIMIZATION CONVERGED  **

                    Orbital Energies (a.u.)
 --------------------------------------------------------------

 Alpha MOs
 -- Occupied --
-18.948 -18.933 -18.933 -18.892 -18.890 -18.888 -18.885 -18.875
-18.874 -18.872 -10.109 -10.097 -10.096 -10.091 -10.071 -10.064
-10.064 -10.063 -10.060 -10.060 -10.059 -10.059 -10.041 -10.038
-10.037 -10.032 -10.023 -10.022 -10.020 -10.019  -1.022  -1.013
 -1.007  -0.989  -0.971  -0.969  -0.946  -0.936  -0.933  -0.918
 -0.764  -0.763  -0.724  -0.723  -0.709  -0.707  -0.690  -0.669
 -0.662  -0.608  -0.597  -0.576  -0.548  -0.546  -0.538  -0.537
 -0.514  -0.512  -0.484  -0.473  -0.462  -0.455  -0.454  -0.440
 -0.436  -0.433  -0.430  -0.417  -0.412  -0.411  -0.407  -0.396
 -0.391  -0.379  -0.374  -0.370  -0.360  -0.356  -0.355  -0.349
 -0.345  -0.339  -0.335  -0.331  -0.329  -0.325  -0.324  -0.314
 -0.308  -0.306  -0.304  -0.300  -0.298  -0.281  -0.280  -0.277
 -0.271  -0.261  -0.255  -0.248  -0.235  -0.233  -0.226  -0.188
 -0.179  -0.173  -0.161  -0.155  -0.149  -0.148  -0.142  -0.142
 -0.138

          Ground-State Mulliken Net Atomic Charges

     Atom                 Charge (a.u.)
  ----------------------------------------
      1 O                    -0.208310
      2 C                     0.203902
      3 C                    -0.078537
      4 C                    -0.078727
      5 C                     0.203138
      6 O                    -0.165279
      7 C                    -0.049698
      8 C                    -0.048134
      9 O                    -0.198516
     10 C                     0.222226
     11 C                    -0.083025
     12 C                    -0.080415
     13 C                     0.214948
     14 O                    -0.195856
     15 O                    -0.169916
     16 O                    -0.165620
     17 O                    -0.192067
     18 C                    -0.128195
     19 C                     0.025135
     20 C                    -0.145671
     21 C                    -0.141956
     22 C                     0.026196
     23 O                    -0.183496
     24 H                     0.081344
     25 H                     0.086055
     26 H                     0.084503
     27 H                     0.078765
     28 H                     0.073907
     29 H                     0.078954
     30 H                     0.074362
     31 H                     0.085531
     32 O                    -0.216891
     33 C                    -0.128933
     34 C                     0.026402
     35 C                    -0.144076
     36 C                    -0.144009
     37 C                     0.027027
     38 O                    -0.182384
     39 H                     0.086353
     40 H                     0.084670
     41 H                     0.088117
     42 H                     0.084960
     43 H                     0.078209
     44 H                     0.073313
     45 H                     0.078147
     46 H                     0.073274
     47 H                     0.084748
     48 H                     0.089220
     49 H                     0.090583
     50 H                     0.093117
     51 H                     0.093397
     52 H                     0.093266
     53 H                     0.094383
     54 H                     0.088747
     55 H                     0.088061
     56 H                     0.074751
  ----------------------------------------
  Sum of atomic charges =     0.000000

                    Cartesian Multipole Moments
 -----------------------------------------------------------------
    Charge (ESU x 10^10)
                 0.0000
    Dipole Moment (Debye)
         X       0.5065      Y      -0.1175      Z      -3.3628
       Tot       3.4028
    Quadrupole Moments (Debye-Ang)
        XX    -131.5110     XY       7.9895     YY    -149.6758
        XZ       9.0716     YZ      -1.3984     ZZ    -170.6045

 Total job time:  63.52s(wall), 3021.24s(cpu)
        *  Thank you very much for using Q-Chem.  Have a nice day.  *
