 Q-Chem 5.0, Q-Chem, Inc., Pleasanton, CA (2017)
 Q-Chem 5.0.1 for Intel X86 EM64T Linux

User input:
--------------------------------------------------------------
$molecule
0  1
O 3.464215378 -2.0040030529 0.770013556
C 4.3109987631 -1.5960563226 -0.0537469887
C 5.0302796257 -0.2042377171 -0.0941639596
C 4.0966371724 0.966192715 -0.642581864
C 2.6808736402 0.4619460619 -1.0859857813
O 1.8805701653 0.2618359221 0.0794355317
C 0.5360620436 -0.2415826834 -0.2937036569
C -0.1323515564 -0.7431258922 1.041207698
O -1.5023795009 -1.2376443619 0.8030375599
C -2.4449039672 -0.1204560007 0.9474373536
C -2.9598311231 0.3991696172 -0.4684638254
C -4.444228594 -0.0196718145 -0.8004593265
C -4.9137266196 -1.1849567794 0.1232636287
O -4.3615746094 -1.5452490441 1.1908727756
O 4.7642781065 -2.3619782711 -1.1785854017
O -6.0973302039 -1.7738287 -0.4075534642
O -2.5995220212 0.4883007936 2.025942419
C -6.5662066324 -2.8644442391 0.4819369059
C -3.1337789419 1.9737531506 -0.3686092727
C -3.4663019953 2.5623331402 -1.7978854163
C -4.9901685718 2.1928697865 -1.9394627394
C -5.2164909828 1.362091699 -0.6161711218
O -4.4086326739 2.0982809898 0.3791972225
H -2.2556578848 0.0747918751 -1.2532697471
H -4.5404658108 -0.3622809205 -1.8466568564
H -2.3201193248 2.4889748978 0.1774135209
H -3.3092319253 3.6523120861 -1.8151759933
H -2.8448809293 2.1041520155 -2.5840623515
H -5.6237328206 3.0942506223 -1.9332968624
H -5.2100895403 1.6098512915 -2.8481426346
H -6.2681308231 1.2696011439 -0.2818912594
O 2.2907546549 0.2454604428 -2.2549416973
C 4.0569684319 -3.6629287148 -1.2222083836
C 5.3447111708 0.3336488814 1.36713462
C 6.3749890121 1.5256642692 1.2403000201
C 5.4415523642 2.6780559543 0.7117059283
C 4.0540467578 1.9277079864 0.6198770886
O 4.0860324522 0.9978748402 1.7704798085
H 5.9424203451 -0.3014378934 -0.7086583175
H 4.5632271779 1.4538551295 -1.5170002074
H 2.9642076681 -3.5270392067 -1.3567385146
H 5.6152252534 -0.4543328892 2.096276857
H 6.8055435715 1.7713710338 2.2239419744
H 7.194560187 1.2881595609 0.5435538753
H 5.3813978071 3.5102190786 1.4311419228
H 5.7654458073 3.0761947689 -0.2632233228
H 3.1592490649 2.5771789767 0.6726335742
H 4.2258314602 -4.252636443 -0.29803533
H 4.4708306818 -4.207364982 -2.0907559687
H -7.4794006247 -3.270180136 0.0092321473
H -6.8071755864 -2.4861218284 1.4962085883
H -5.8059550462 -3.6665507254 0.5747153136
H 0.4627416819 -1.5968277772 1.4287023833
H -0.1040753405 0.0702844339 1.7991021941
H 0.6089946136 -1.068205032 -1.0323239328
H -0.0621522145 0.5761172001 -0.7522633809
$end

$rem
JOBTYPE                   OPT
METHOD                    B3LYP
DFT_D                     d3_op
BASIS                     STO-3G
GEOM_OPT_MAX_CYCLES       100
GEOM_OPT_TOL_GRADIENT     300
GEOM_OPT_TOL_DISPLACEMENT 1200
GEOM_OPT_TOL_ENERGY       100
SYMMETRY                  False
THRESH                    12
SCF_CONVERGENCE           8
MAX_SUB_FILE_NUM          128
MEM_STATIC                400
MEM_TOTAL                 4000
$end
--------------------------------------------------------------

   16   -1510.2609225301      5.92E-09 Convergence criterion met
 Total energy in the final basis set = -1510.26092253
   15   -1510.2647048254      2.55E-09 Convergence criterion met
 Total energy in the final basis set = -1510.26470483
   14   -1510.2686349819      7.86E-09 Convergence criterion met
 Total energy in the final basis set = -1510.26863498
   14   -1510.2725176344      3.95E-09 Convergence criterion met
 Total energy in the final basis set = -1510.27251763
   14   -1510.2763625687      5.71E-09 Convergence criterion met
 Total energy in the final basis set = -1510.27636257
   14   -1510.2797483321      3.33E-09 Convergence criterion met
 Total energy in the final basis set = -1510.27974833
   14   -1510.2823297102      3.86E-09 Convergence criterion met
 Total energy in the final basis set = -1510.28232971
   14   -1510.2839021163      2.09E-09 Convergence criterion met
   13   -1510.2976332570      1.78E-09 Convergence criterion met
 Total energy in the final basis set = -1510.29763326
   13   -1510.2976406421      2.20E-09 Convergence criterion met
 Total energy in the final basis set = -1510.29764064
   12   -1510.2977423926      5.90E-09 Convergence criterion met
 Total energy in the final basis set = -1510.29774239
   11   -1510.2977381193      4.82E-09 Convergence criterion met
 Total energy in the final basis set = -1510.29773812
   10   -1510.2977404998      7.14E-09 Convergence criterion met
 Total energy in the final basis set = -1510.29774050
   11   -1510.2977384419      3.40E-09 Convergence criterion met
 Total energy in the final basis set = -1510.29773844

             Standard Nuclear Orientation (Angstroms)
    I     Atom           X                Y                Z
 ----------------------------------------------------------------
    1      O      -1.7945179266     1.0826152651     1.9864955157
    2      C      -1.9502849520     1.2264982507     0.7539284646
    3      C      -3.1635557344     0.7614935154    -0.1243415145
    4      C      -3.1152853153    -0.7753681574    -0.5457192384
    5      C      -1.8802588526    -1.5612537273     0.0171489433
    6      O      -2.0291762703    -1.6918265845     1.4319504218
    7      C      -0.8328995204    -2.3183807058     2.0440887882
    8      C       0.2609052841    -1.2326512178     2.3617908373
    9      O       0.7482852616    -0.5981354113     1.1194688788
   10      C       1.6787215321    -1.4587003352     0.4294725791
   11      C       1.9172810770    -0.8664530551    -1.0071336403
   12      C       2.7799825447     0.4557379039    -1.0652493562
   13      C       3.3206926473     0.8694240028     0.3410042004
   14      O       3.3964190982     0.1426078930     1.3578453447
   15      O      -1.0158251659     1.8901785497    -0.1016061136
   16      O       3.7376345343     2.2352983884     0.2975082848
   17      O       2.0773524957    -2.5522046771     0.8782846439
   18      C       4.2611182217     2.6447715500     1.6221222740
   19      C       2.7954344320    -1.8469961698    -1.8883402580
   20      C       2.5866218760    -1.4628040464    -3.4041636713
   21      C       3.4114483804    -0.1250072205    -3.4918504093
   22      C       3.9691193172    -0.0107642490    -2.0176027824
   23      O       4.1874044229    -1.4153289944    -1.6112723916
   24      H       0.9169267890    -0.7085016680    -1.4506690558
   25      H       2.2226461896     1.3027066136    -1.5017710420
   26      H       2.6654844250    -2.9167789717    -1.6346737487
   27      H       3.0076723042    -2.2397133484    -4.0619158105
   28      H       1.5222860926    -1.3255688968    -3.6529911681
   29      H       4.2425793780    -0.2068614683    -4.2103398763
   30      H       2.7905466690     0.7423129628    -3.7677241440
   31      H       4.8992165374     0.5805841676    -1.9091921762
   32      O      -0.9325827986    -2.0330545031    -0.6514777310
   33      C       0.2056595659     2.2305495213     0.6707347989
   34      C      -4.5345611191     0.8069512174     0.6757382422
   35      C      -5.7149085721     0.7691677745    -0.3730012727
   36      C      -5.6727220954    -0.7393370961    -0.8204408901
   37      C      -4.4886407085    -1.2894836302     0.0700783435
   38      O      -4.6092291039    -0.5196741043     1.3273718254
   39      H      -3.1933648110     1.4014377133    -1.0237749850
   40      H      -3.0942338749    -0.8759026342    -1.6452282488
   41      H       0.6918933965     1.2835793810     1.0015034304
   42      H      -4.5958266033     1.6114631545     1.4338196973
   43      H      -6.6710294761     1.0186657067     0.1141215496
   44      H      -5.5518187344     1.4669610639    -1.2097819794
   45      H      -6.6114908835    -1.2607599333    -0.5748338490
   46      H      -5.4739550536    -0.8591420401    -1.8975182265
   47      H      -4.5194920930    -2.3767150655     0.2766471454
   48      H      -0.0322726522     2.8605894397     1.5508723074
   49      H       0.8637502551     2.7883419422    -0.0193505600
   50      H       4.5612352638     3.7035258936     1.5177300285
   51      H       5.1389798518     2.0359266944     1.9197911148
   52      H       3.4853425541     2.5534918598     2.4096200128
   53      H      -0.1980903276    -0.4102940226     2.9480835821
   54      H       1.0949999159    -1.6999017815     2.9285288686
   55      H      -0.4070126544    -3.0971747905     1.3764681623
   56      H      -1.1805034772    -2.7816431802     2.9893946195
 ----------------------------------------------------------------

    9   -1510.2977375832      7.56E-09 Convergence criterion met
 Total energy in the final basis set = -1510.29773758
 Final energy is   -1510.29773758324
 **  OPTIMIZATION CONVERGED  **

                    Orbital Energies (a.u.)
 --------------------------------------------------------------

 Alpha MOs
 -- Occupied --
-18.942 -18.933 -18.925 -18.925 -18.887 -18.885 -18.883 -18.872
-18.869 -18.867 -10.104 -10.099 -10.096 -10.092 -10.069 -10.068
-10.065 -10.060 -10.060 -10.058 -10.053 -10.043 -10.038 -10.037
-10.035 -10.030 -10.020 -10.019 -10.019 -10.016  -1.019  -1.014
 -1.002  -1.000  -0.968  -0.968  -0.942  -0.937  -0.930  -0.927
 -0.762  -0.761  -0.725  -0.721  -0.710  -0.704  -0.693  -0.667
 -0.653  -0.615  -0.596  -0.580  -0.546  -0.542  -0.536  -0.533
 -0.512  -0.508  -0.484  -0.474  -0.457  -0.454  -0.451  -0.441
 -0.432  -0.430  -0.426  -0.418  -0.416  -0.409  -0.406  -0.402
 -0.390  -0.377  -0.372  -0.361  -0.360  -0.355  -0.351  -0.346
 -0.342  -0.340  -0.335  -0.331  -0.330  -0.325  -0.322  -0.309
 -0.306  -0.305  -0.303  -0.300  -0.298  -0.283  -0.277  -0.275
 -0.271  -0.258  -0.252  -0.242  -0.239  -0.233  -0.232  -0.190
 -0.183  -0.168  -0.160  -0.159  -0.153  -0.146  -0.143  -0.142
 -0.142

          Ground-State Mulliken Net Atomic Charges

     Atom                 Charge (a.u.)
  ----------------------------------------
      1 O                    -0.213826
      2 C                     0.206068
      3 C                    -0.079270
      4 C                    -0.078647
      5 C                     0.207312
      6 O                    -0.162984
      7 C                    -0.051807
      8 C                    -0.051711
      9 O                    -0.183191
     10 C                     0.226639
     11 C                    -0.080958
     12 C                    -0.079551
     13 C                     0.212201
     14 O                    -0.207237
     15 O                    -0.174143
     16 O                    -0.169566
     17 O                    -0.212298
     18 C                    -0.128689
     19 C                     0.025827
     20 C                    -0.143568
     21 C                    -0.143754
     22 C                     0.025481
     23 O                    -0.189507
     24 H                     0.095101
     25 H                     0.087210
     26 H                     0.091645
     27 H                     0.077579
     28 H                     0.075696
     29 H                     0.077604
     30 H                     0.073508
     31 H                     0.082656
     32 O                    -0.221645
     33 C                    -0.146132
     34 C                     0.026278
     35 C                    -0.143915
     36 C                    -0.144224
     37 C                     0.026973
     38 O                    -0.182712
     39 H                     0.084438
     40 H                     0.083184
     41 H                     0.107595
     42 H                     0.085275
     43 H                     0.077695
     44 H                     0.073038
     45 H                     0.077841
     46 H                     0.073129
     47 H                     0.083678
     48 H                     0.081559
     49 H                     0.081511
     50 H                     0.091729
     51 H                     0.091720
     52 H                     0.090527
     53 H                     0.103054
     54 H                     0.095955
     55 H                     0.097420
     56 H                     0.092212
  ----------------------------------------
  Sum of atomic charges =     0.000000

                    Cartesian Multipole Moments
 -----------------------------------------------------------------
    Charge (ESU x 10^10)
                -0.0000
    Dipole Moment (Debye)
         X      -1.0453      Y       2.4062      Z      -1.9165
       Tot       3.2490
    Quadrupole Moments (Debye-Ang)
        XX    -156.8238     XY      10.9224     YY    -158.0567
        XZ       6.6398     YZ       1.9073     ZZ    -156.4005

 Total job time:  155.96s(wall), 7434.89s(cpu)
        *  Thank you very much for using Q-Chem.  Have a nice day.  *
