 Q-Chem 5.0, Q-Chem, Inc., Pleasanton, CA (2017)
 Q-Chem 5.0.1 for Intel X86 EM64T Linux

User input:
--------------------------------------------------------------
$molecule
0  1
O -3.94934 -3.66094 2.70899
C -3.26408 -4.56952 2.26188
C -3.36658 -6.02376 2.66595
C -2.21176 -6.95088 2.25281
C -1.00046 -6.28615 1.63719
O 0.14015 -6.86332 2.11813
C 1.16839 -5.91368 2.41838
C 2.03811 -6.42471 3.56231
O 3.20071 -5.59308 3.70242
C 3.55442 -4.894 2.59548
C 3.31845 -5.65995 1.31552
C 4.58861 -6.00681 0.52517
C 5.8955 -5.86466 1.27917
O 6.08818 -5.12011 2.22947
O -2.41793 -4.16699 1.28644
O 6.97778 -6.505 0.75759
O 3.99461 -3.75535 2.6524
C 8.25183 -6.44577 1.28323
C 2.86154 -7.2563 1.00039
C 2.20676 -7.33711 -0.38987
C 3.42006 -7.29106 -1.26029
C 4.49383 -7.33732 -0.17912
O 3.98538 -8.0765 0.85371
H 2.7261 -5.0059 0.63461
H 4.73642 -5.21992 -0.25089
H 2.14326 -7.84414 1.5769
H 1.76005 -8.35406 -0.50451
H 1.42195 -6.58232 -0.60654
H 3.44927 -8.2029 -1.89806
H 3.51567 -6.38008 -1.89065
H 5.44987 -7.69993 -0.61308
O -1.00199 -5.87396 0.4851
C -2.25796 -2.87106 0.83319
C -3.31067 -6.17062 4.20382
C -4.01977 -7.45396 4.62325
C -3.04027 -8.48604 4.11709
C -1.89983 -7.57428 3.643
O -1.96766 -6.46063 4.4931
H -4.36509 -6.37413 2.32092
H -2.53981 -7.73495 1.535
H -1.91679 -2.21528 1.66246
H -3.74805 -5.30756 4.75236
H -4.01449 -7.47377 5.73708
H -5.06386 -7.57193 4.26159
H -2.72194 -9.11567 4.97776
H -3.41198 -9.13007 3.29091
H -0.95702 -8.15991 3.68294
H -3.21492 -2.48887 0.41801
H -1.49154 -2.85915 0.03132
H 8.93096 -7.06382 0.66094
H 8.25578 -6.84371 2.32056
H 8.61929 -5.39737 1.28098
H 1.46944 -6.3851 4.52277
H 2.35507 -7.48533 3.55488
H 0.66243 -5.16024 3.07287
H 1.10157 -4.97172 1.82626
$end

$opt
CONSTRAINT
tors           1           2           3           4    -165.675
tors           3           4           5           6    +139.066
tors           4           5           6           7    -138.509
tors           5           6           7           8    +149.858
tors           6           7           8           9    +169.782
tors           7           8           9          10     -22.761
tors           8           9          10          11     -36.275
tors           9          10          11          12    -115.166
tors          11          12          13          14     -25.816
ENDCONSTRAINT
$end

$rem
JOBTYPE                   OPT
METHOD                    B3LYP
DFT_D                     d3_op
BASIS                     STO-3G
GEOM_OPT_MAX_CYCLES       100
GEOM_OPT_TOL_GRADIENT     300
GEOM_OPT_TOL_DISPLACEMENT 1200
GEOM_OPT_TOL_ENERGY       100
SYMMETRY                  False
THRESH                    12
SCF_CONVERGENCE           8
MAX_SUB_FILE_NUM          128
MEM_STATIC                400
MEM_TOTAL                 4000
$end
--------------------------------------------------------------

   16   -1509.9126866643      4.10E-09 Convergence criterion met
 Total energy in the final basis set = -1509.91268666
   14   -1510.0061860670      8.94E-09 Convergence criterion met
 Total energy in the final basis set = -1510.00618607
   14   -1510.0684067224      3.18E-09 Convergence criterion met
 Total energy in the final basis set = -1510.06840672
   13   -1510.1104473781      7.86E-09 Convergence criterion met
 Total energy in the final basis set = -1510.11044738
   13   -1510.1396688443      7.83E-09 Convergence criterion met
 Total energy in the final basis set = -1510.13966884
   13   -1510.1602977853      6.06E-09 Convergence criterion met
 Total energy in the final basis set = -1510.16029779
   13   -1510.1753033388      8.17E-09 Convergence criterion met
 Total energy in the final basis set = -1510.17530334
   13   -1510.1870173454      3.39E-09 Convergence criterion met
   11   -1510.2190420597      8.25E-09 Convergence criterion met
 Total energy in the final basis set = -1510.21904206
   10   -1510.2190562122      9.10E-09 Convergence criterion met
 Total energy in the final basis set = -1510.21905621
    9   -1510.2190650236      6.74E-09 Convergence criterion met
 Total energy in the final basis set = -1510.21906502
    9   -1510.2190726766      8.61E-09 Convergence criterion met
 Total energy in the final basis set = -1510.21907268
    9   -1510.2190773696      4.76E-09 Convergence criterion met
 Total energy in the final basis set = -1510.21907737
    9   -1510.2190800270      4.42E-09 Convergence criterion met
 Total energy in the final basis set = -1510.21908003

             Standard Nuclear Orientation (Angstroms)
    I     Atom           X                Y                Z
 ----------------------------------------------------------------
    1      O      -5.5341452029     2.0585104503     0.7299835426
    2      C      -4.6596910610     1.3314760951     0.2089352280
    3      C      -4.9302050693    -0.0982553432    -0.4058592647
    4      C      -3.6693077433    -1.0046509273    -0.6993377794
    5      C      -2.3644887702    -0.2498053598    -1.1520550864
    6      O      -1.2070300429    -0.8333501320    -0.5121376575
    7      C      -0.2806739967     0.2388063452    -0.0704693115
    8      C       0.4402724107    -0.3486181421     1.2067896602
    9      O       1.6025839562     0.3677718499     1.7801621229
   10      C       2.4005530304     1.2751167494     1.0028213987
   11      C       2.7855952832     1.1146157917    -0.5564976891
   12      C       4.3707737478     0.9246859481    -0.6405795227
   13      C       4.9047160897     0.0640657712     0.5665502051
   14      O       4.3788069111    -0.0610014650     1.6947849513
   15      O      -3.2612951483     1.6209299638     0.2941484886
   16      O       6.1509304684    -0.5323942735     0.2037411937
   17      O       2.8348282797     2.2818803262     1.6089474269
   18      C       6.6748499866    -1.3346963584     1.3334308959
   19      C       2.3920948401    -0.1372781885    -1.5205065731
   20      C       2.3576027609     0.4649381399    -2.9788919141
   21      C       3.8913253702     0.7508801478    -3.1984762563
   22      C       4.5264281138     0.0460133946    -1.9342925910
   23      O       3.5682696604    -1.0283397919    -1.5831418883
   24      H       2.4942028078     2.0628810952    -1.0403508472
   25      H       4.9075233309     1.8917524307    -0.6742218761
   26      H       1.5337287486    -0.7666590676    -1.2432197205
   27      H       1.9863543358    -0.2889917031    -3.6918903693
   28      H       1.7324785983     1.3686005415    -3.0598137947
   29      H       4.2644559943     0.2948805647    -4.1287700157
   30      H       4.1191954269     1.8290669506    -3.2191461140
   31      H       5.5441109021    -0.3651225415    -2.0741044431
   32      O      -2.2980082201     0.6599939528    -2.0049318849
   33      C      -3.0570500073     2.9071751358     1.0005312604
   34      C      -5.5436853252    -0.9229196461     0.8120481395
   35      C      -5.9557765695    -2.3822778926     0.3668326659
   36      C      -4.5643283580    -3.1205602308     0.3747417005
   37      C      -3.5994032378    -1.8979273996     0.6151938037
   38      O      -4.3284537082    -1.1182552072     1.6438265459
   39      H      -5.6085062312    -0.0134886736    -1.2735511968
   40      H      -3.9331548418    -1.6627100144    -1.5504724851
   41      H      -3.4606976486     2.8702735538     2.0329260931
   42      H      -6.3161851383    -0.3644621154     1.3761457777
   43      H      -6.6574832356    -2.8237244257     1.0917770527
   44      H      -6.4304968294    -2.3855178390    -0.6277043104
   45      H      -4.4943371628    -3.8347145123     1.2111612249
   46      H      -4.3536054915    -3.6527725440    -0.5666565662
   47      H      -2.5707381612    -2.1347250703     0.9484337139
   48      H      -3.5380490217     3.7485395448     0.4617931537
   49      H      -1.9636108503     3.0667875021     1.0348626902
   50      H       7.6585934817    -1.7165432365     1.0038050603
   51      H       6.0056915909    -2.1872602322     1.5694706177
   52      H       6.7991128899    -0.7198475992     2.2480004810
   53      H      -0.3035897315    -0.3961267328     2.0297867385
   54      H       0.7439220876    -1.3951902298     0.9684088033
   55      H      -0.8670540095     1.1319389548     0.2329550027
   56      H       0.3942963643     0.5643745251    -0.8747310001
 ----------------------------------------------------------------

    9   -1510.2190808991      3.53E-09 Convergence criterion met
 Total energy in the final basis set = -1510.21908090
 Final energy is   -1510.21908089906
 **  OPTIMIZATION CONVERGED  **

                    Orbital Energies (a.u.)
 --------------------------------------------------------------

 Alpha MOs
 -- Occupied --
-18.942 -18.940 -18.919 -18.917 -18.888 -18.888 -18.885 -18.883
-18.876 -18.862 -10.108 -10.103 -10.103 -10.098 -10.075 -10.071
-10.069 -10.067 -10.062 -10.061 -10.060 -10.060 -10.044 -10.040
-10.039 -10.035 -10.024 -10.024 -10.022 -10.022  -1.018  -1.017
 -1.008  -0.993  -0.975  -0.973  -0.941  -0.940  -0.938  -0.924
 -0.766  -0.762  -0.727  -0.726  -0.715  -0.704  -0.697  -0.666
 -0.664  -0.614  -0.600  -0.589  -0.550  -0.547  -0.541  -0.540
 -0.517  -0.508  -0.491  -0.483  -0.474  -0.461  -0.449  -0.443
 -0.439  -0.434  -0.433  -0.418  -0.415  -0.412  -0.407  -0.398
 -0.392  -0.388  -0.378  -0.373  -0.371  -0.361  -0.358  -0.349
 -0.342  -0.339  -0.336  -0.332  -0.325  -0.317  -0.317  -0.314
 -0.313  -0.310  -0.309  -0.304  -0.302  -0.297  -0.280  -0.275
 -0.271  -0.264  -0.257  -0.241  -0.239  -0.236  -0.225  -0.182
 -0.182  -0.172  -0.160  -0.159  -0.155  -0.153  -0.151  -0.145
 -0.136

          Ground-State Mulliken Net Atomic Charges

     Atom                 Charge (a.u.)
  ----------------------------------------
      1 O                    -0.214617
      2 C                     0.213155
      3 C                    -0.075323
      4 C                    -0.081984
      5 C                     0.223484
      6 O                    -0.189852
      7 C                    -0.058022
      8 C                    -0.046013
      9 O                    -0.173470
     10 C                     0.214661
     11 C                    -0.088569
     12 C                    -0.073918
     13 C                     0.215781
     14 O                    -0.202220
     15 O                    -0.170736
     16 O                    -0.169109
     17 O                    -0.205774
     18 C                    -0.127357
     19 C                     0.013898
     20 C                    -0.142674
     21 C                    -0.145765
     22 C                     0.021303
     23 O                    -0.195048
     24 H                     0.083047
     25 H                     0.087691
     26 H                     0.088568
     27 H                     0.079259
     28 H                     0.074396
     29 H                     0.079031
     30 H                     0.075009
     31 H                     0.091901
     32 O                    -0.201745
     33 C                    -0.126610
     34 C                     0.023716
     35 C                    -0.145946
     36 C                    -0.141368
     37 C                     0.022076
     38 O                    -0.193982
     39 H                     0.088064
     40 H                     0.082816
     41 H                     0.093947
     42 H                     0.088413
     43 H                     0.079492
     44 H                     0.074149
     45 H                     0.078429
     46 H                     0.073711
     47 H                     0.091197
     48 H                     0.092387
     49 H                     0.089914
     50 H                     0.091376
     51 H                     0.091630
     52 H                     0.092530
     53 H                     0.093994
     54 H                     0.083251
     55 H                     0.086835
     56 H                     0.090992
  ----------------------------------------
  Sum of atomic charges =    -0.000000

                    Cartesian Multipole Moments
 -----------------------------------------------------------------
    Charge (ESU x 10^10)
                -0.0000
    Dipole Moment (Debye)
         X       0.0784      Y      -1.5669      Z      -2.6335
       Tot       3.0654
    Quadrupole Moments (Debye-Ang)
        XX    -148.5732     XY       5.8403     YY    -158.0588
        XZ      -2.4483     YZ      -4.4703     ZZ    -166.5795

 Total job time:  93.74s(wall), 4461.43s(cpu)
        *  Thank you very much for using Q-Chem.  Have a nice day.  *
