 Q-Chem 5.0, Q-Chem, Inc., Pleasanton, CA (2017)
 Q-Chem 5.0.1 for Intel X86 EM64T Linux

User input:
--------------------------------------------------------------
$molecule
0  1
O -5.5341452029 2.0585104503 0.7299835426
C -4.659691061 1.3314760951 0.208935228
C -4.9302050693 -0.0982553432 -0.4058592647
C -3.6693077433 -1.0046509273 -0.6993377794
C -2.3644887702 -0.2498053598 -1.1520550864
O -1.2070300429 -0.833350132 -0.5121376575
C -0.2806739967 0.2388063452 -0.0704693115
C 0.4402724107 -0.3486181421 1.2067896602
O 1.6025839562 0.3677718499 1.7801621229
C 2.4005530304 1.2751167494 1.0028213987
C 2.7855952832 1.1146157917 -0.5564976891
C 4.3707737478 0.9246859481 -0.6405795227
C 4.9047160897 0.0640657712 0.5665502051
O 4.3788069111 -0.061001465 1.6947849513
O -3.2612951483 1.6209299638 0.2941484886
O 6.1509304684 -0.5323942735 0.2037411937
O 2.8348282797 2.2818803262 1.6089474269
C 6.6748499866 -1.3346963584 1.3334308959
C 2.3920948401 -0.1372781885 -1.5205065731
C 2.3576027609 0.4649381399 -2.9788919141
C 3.8913253702 0.7508801478 -3.1984762563
C 4.5264281138 0.0460133946 -1.934292591
O 3.5682696604 -1.0283397919 -1.5831418883
H 2.4942028078 2.0628810952 -1.0403508472
H 4.9075233309 1.8917524307 -0.6742218761
H 1.5337287486 -0.7666590676 -1.2432197205
H 1.9863543358 -0.2889917031 -3.6918903693
H 1.7324785983 1.3686005415 -3.0598137947
H 4.2644559943 0.2948805647 -4.1287700157
H 4.1191954269 1.8290669506 -3.219146114
H 5.5441109021 -0.3651225415 -2.0741044431
O -2.2980082201 0.6599939528 -2.0049318849
C -3.0570500073 2.9071751358 1.0005312604
C -5.5436853252 -0.9229196461 0.8120481395
C -5.9557765695 -2.3822778926 0.3668326659
C -4.564328358 -3.1205602308 0.3747417005
C -3.5994032378 -1.8979273996 0.6151938037
O -4.3284537082 -1.1182552072 1.6438265459
H -5.6085062312 -0.0134886736 -1.2735511968
H -3.9331548418 -1.6627100144 -1.5504724851
H -3.4606976486 2.8702735538 2.0329260931
H -6.3161851383 -0.3644621154 1.3761457777
H -6.6574832356 -2.8237244257 1.0917770527
H -6.4304968294 -2.385517839 -0.6277043104
H -4.4943371628 -3.8347145123 1.2111612249
H -4.3536054915 -3.652772544 -0.5666565662
H -2.5707381612 -2.1347250703 0.9484337139
H -3.5380490217 3.7485395448 0.4617931537
H -1.9636108503 3.0667875021 1.0348626902
H 7.6585934817 -1.7165432365 1.0038050603
H 6.0056915909 -2.1872602322 1.5694706177
H 6.7991128899 -0.7198475992 2.248000481
H -0.3035897315 -0.3961267328 2.0297867385
H 0.7439220876 -1.3951902298 0.9684088033
H -0.8670540095 1.1319389548 0.2329550027
H 0.3942963643 0.5643745251 -0.8747310001
$end

$rem
JOBTYPE                   OPT
METHOD                    B3LYP
DFT_D                     d3_op
BASIS                     STO-3G
GEOM_OPT_MAX_CYCLES       100
GEOM_OPT_TOL_GRADIENT     300
GEOM_OPT_TOL_DISPLACEMENT 1200
GEOM_OPT_TOL_ENERGY       100
SYMMETRY                  False
THRESH                    12
SCF_CONVERGENCE           8
MAX_SUB_FILE_NUM          128
MEM_STATIC                400
MEM_TOTAL                 4000
$end
--------------------------------------------------------------

   16   -1510.2191728744      6.34E-09 Convergence criterion met
 Total energy in the final basis set = -1510.21917287
   14   -1510.2261265050      5.16E-09 Convergence criterion met
 Total energy in the final basis set = -1510.22612650
   14   -1510.2355614952      9.58E-09 Convergence criterion met
 Total energy in the final basis set = -1510.23556150
   14   -1510.2405522750      2.03E-09 Convergence criterion met
 Total energy in the final basis set = -1510.24055228
   14   -1510.2446587218      6.44E-09 Convergence criterion met
 Total energy in the final basis set = -1510.24465872
   13   -1510.2473927933      1.00E-08 Convergence criterion met
 Total energy in the final basis set = -1510.24739279
   13   -1510.2491420876      8.30E-09 Convergence criterion met
 Total energy in the final basis set = -1510.24914209
   13   -1510.2508799101      4.56E-09 Convergence criterion met
   11   -1510.2877724058      4.37E-09 Convergence criterion met
 Total energy in the final basis set = -1510.28777241
   11   -1510.2877928148      6.52E-09 Convergence criterion met
 Total energy in the final basis set = -1510.28779281
   11   -1510.2878077135      6.15E-09 Convergence criterion met
 Total energy in the final basis set = -1510.28780771
   11   -1510.2878143319      5.25E-09 Convergence criterion met
 Total energy in the final basis set = -1510.28781433
   11   -1510.2878204442      4.88E-09 Convergence criterion met
 Total energy in the final basis set = -1510.28782044
   11   -1510.2878269142      5.02E-09 Convergence criterion met
 Total energy in the final basis set = -1510.28782691

             Standard Nuclear Orientation (Angstroms)
    I     Atom           X                Y                Z
 ----------------------------------------------------------------
    1      O       4.9820185733    -1.8290865931     0.9393941158
    2      C       4.3712520880    -0.7443398459     1.0603255191
    3      C       3.9372168540     0.2108755244    -0.1153244870
    4      C       2.5208512362    -0.1456936496    -0.7333780222
    5      C       1.8074645400    -1.3304124892    -0.0125356801
    6      O       0.7568733096    -1.8263942965    -0.8518538645
    7      C      -0.0705086913    -2.8089288674    -0.1019535623
    8      C      -1.5261483868    -2.2468103762     0.0754498656
    9      O      -2.3483546568    -2.7525918660    -1.0486417534
   10      C      -3.2555669223    -1.8342195724    -1.6680724382
   11      C      -2.8937690118    -0.2863908700    -1.8598832659
   12      C      -3.4783129554     0.7030656066    -0.7698608854
   13      C      -4.0967300370    -0.0511607060     0.4563487452
   14      O      -4.2626273117    -1.2874604150     0.5645278801
   15      O       4.0421443458    -0.1399143123     2.3161192111
   16      O      -4.4595007270     0.9020494486     1.4523264492
   17      O      -4.2387145589    -2.3229907622    -2.2704865505
   18      C      -5.0488311766     0.2120406565     2.6250479693
   19      C      -1.3660571557     0.1326859169    -1.8655890564
   20      C      -1.2374747271     1.5037445589    -2.6302786439
   21      C      -1.8307897828     2.5106017668    -1.5726013298
   22      C      -2.1907560715     1.5409242613    -0.3821066974
   23      O      -1.1112174768     0.5224296436    -0.4485268882
   24      H      -3.3405747904    -0.0417155553    -2.8394301193
   25      H      -4.2571103991     1.3610226591    -1.1968006355
   26      H      -0.6431924111    -0.6595779333    -2.1476390957
   27      H      -0.1825809738     1.7278368029    -2.8507832807
   28      H      -1.8038403733     1.4975614967    -3.5746718659
   29      H      -1.0781277687     3.2487570955    -1.2515015083
   30      H      -2.7176568688     3.0467452934    -1.9460054098
   31      H      -2.2280885541     2.0038888804     0.6233012406
   32      O       2.0589582786    -1.7821553691     1.1286543562
   33      C       4.3574488764    -1.0776083105     3.4158209667
   34      C       3.6859423268     1.7048378574     0.3530876408
   35      C       3.6487295386     2.6325564106    -0.9258396141
   36      C       2.2336099497     2.2787368283    -1.5170852524
   37      C       1.7204422893     1.2107271013    -0.4729155959
   38      O       2.2773252758     1.6891275395     0.8099819889
   39      H       4.7195135600     0.1495593337    -0.8930221711
   40      H       2.5832050921    -0.3733967546    -1.8122432996
   41      H       5.4263796938    -1.3744429109     3.4103312949
   42      H       4.3546107731     2.0463563786     1.1658966543
   43      H       3.7108554001     3.6929328687    -0.6337655385
   44      H       4.4705372920     2.4115893359    -1.6256236286
   45      H       1.5704381712     3.1585523756    -1.5251048009
   46      H       2.2916782919     1.8717661096    -2.5394365907
   47      H       0.6116148172     1.0698761154    -0.4065060103
   48      H       3.7351878017    -1.9933104374     3.3477666009
   49      H       4.1250575949    -0.5397523373     4.3533074349
   50      H      -5.2958306097     1.0067879895     3.3525672065
   51      H      -4.3301757882    -0.5000924156     3.0791573206
   52      H      -5.9694583537    -0.3414886897     2.3493822404
   53      H      -1.9619538638    -2.6425915227     1.0189976549
   54      H      -1.4707216852    -1.1303287234     0.1232901113
   55      H       0.4171157473    -2.9781449675     0.8827838775
   56      H      -0.0959761477    -3.7556921163    -0.6809503140
 ----------------------------------------------------------------

    9   -1510.2878273312      4.07E-09 Convergence criterion met
 Total energy in the final basis set = -1510.28782733
 Final energy is   -1510.28782733119
 **  OPTIMIZATION CONVERGED  **

                    Orbital Energies (a.u.)
 --------------------------------------------------------------

 Alpha MOs
 -- Occupied --
-18.954 -18.933 -18.932 -18.918 -18.913 -18.898 -18.880 -18.878
-18.857 -18.853 -10.117 -10.101 -10.093 -10.085 -10.085 -10.077
-10.076 -10.060 -10.055 -10.052 -10.051 -10.050 -10.042 -10.040
-10.039 -10.036 -10.033 -10.028 -10.016 -10.015  -1.030  -1.014
 -1.004  -0.994  -0.990  -0.962  -0.954  -0.938  -0.921  -0.919
 -0.780  -0.757  -0.738  -0.722  -0.720  -0.706  -0.691  -0.676
 -0.648  -0.610  -0.604  -0.574  -0.565  -0.555  -0.538  -0.531
 -0.525  -0.506  -0.492  -0.481  -0.475  -0.459  -0.454  -0.451
 -0.441  -0.429  -0.425  -0.421  -0.417  -0.407  -0.401  -0.397
 -0.395  -0.391  -0.377  -0.369  -0.367  -0.358  -0.356  -0.350
 -0.348  -0.344  -0.338  -0.333  -0.331  -0.328  -0.322  -0.321
 -0.317  -0.310  -0.307  -0.299  -0.295  -0.288  -0.282  -0.273
 -0.271  -0.270  -0.259  -0.246  -0.238  -0.230  -0.224  -0.195
 -0.181  -0.174  -0.170  -0.160  -0.158  -0.153  -0.139  -0.135
 -0.134

          Ground-State Mulliken Net Atomic Charges

     Atom                 Charge (a.u.)
  ----------------------------------------
      1 O                    -0.223197
      2 C                     0.212807
      3 C                    -0.080905
      4 C                    -0.080700
      5 C                     0.214763
      6 O                    -0.178703
      7 C                    -0.059541
      8 C                    -0.067062
      9 O                    -0.178744
     10 C                     0.214864
     11 C                    -0.087657
     12 C                    -0.080541
     13 C                     0.212195
     14 O                    -0.200981
     15 O                    -0.167724
     16 O                    -0.167724
     17 O                    -0.209938
     18 C                    -0.127970
     19 C                     0.018155
     20 C                    -0.144555
     21 C                    -0.143168
     22 C                     0.026642
     23 O                    -0.184013
     24 H                     0.088611
     25 H                     0.091783
     26 H                     0.104380
     27 H                     0.083274
     28 H                     0.079758
     29 H                     0.083070
     30 H                     0.079631
     31 H                     0.096336
     32 O                    -0.210363
     33 C                    -0.126832
     34 C                     0.026102
     35 C                    -0.144854
     36 C                    -0.146185
     37 C                     0.004204
     38 O                    -0.191631
     39 H                     0.081297
     40 H                     0.082863
     41 H                     0.085594
     42 H                     0.086387
     43 H                     0.075234
     44 H                     0.071790
     45 H                     0.070722
     46 H                     0.068432
     47 H                     0.103427
     48 H                     0.092377
     49 H                     0.086640
     50 H                     0.094632
     51 H                     0.092738
     52 H                     0.093972
     53 H                     0.081528
     54 H                     0.106199
     55 H                     0.101440
     56 H                     0.091140
  ----------------------------------------
  Sum of atomic charges =     0.000000

                    Cartesian Multipole Moments
 -----------------------------------------------------------------
    Charge (ESU x 10^10)
                 0.0000
    Dipole Moment (Debye)
         X      -0.9191      Y       4.4756      Z      -0.0472
       Tot       4.5692
    Quadrupole Moments (Debye-Ang)
        XX    -165.7605     XY      -8.1551     YY    -168.4225
        XZ     -12.0852     YZ      -9.9106     ZZ    -152.1779

 Total job time:  174.43s(wall), 8322.68s(cpu)
        *  Thank you very much for using Q-Chem.  Have a nice day.  *
