 Q-Chem 5.0, Q-Chem, Inc., Pleasanton, CA (2017)
 Q-Chem 5.0.1 for Intel X86 EM64T Linux

User input:
--------------------------------------------------------------
$molecule
0  1
O -3.94934 -3.66094 2.70899
C -3.26408 -4.56952 2.26188
C -3.36658 -6.02376 2.66595
C -2.11038 -6.89239 2.48901
C -0.841 -6.17013 2.0952
O -0.92188 -4.85672 2.46105
C 0.21967 -4.09001 2.06322
C 1.15817 -3.89076 3.24882
O 2.52315 -3.92052 2.80291
C 3.35247 -4.72157 3.51682
C 4.78901 -4.63903 3.05832
C 5.53246 -5.982 3.01377
C 4.66275 -7.22128 3.0807
O 3.44116 -7.22819 3.12818
O -2.82434 -4.39287 0.98023
O 5.32035 -8.41021 3.04219
O 3.08119 -5.14358 4.63669
C 4.70078 -9.64202 3.07018
C 5.01779 -4.16379 1.60079
C 6.42795 -3.58944 1.46245
C 7.26102 -4.85047 1.55847
C 6.15361 -5.90744 1.61055
O 5.10864 -5.3501 0.85009
H 5.28894 -3.92353 3.7499
H 6.27355 -6.0688 3.83886
H 4.28422 -3.41234 1.2394
H 6.515 -3.18791 0.42707
H 6.69237 -2.78868 2.18611
H 7.8574 -4.94956 0.62434
H 7.92754 -4.91401 2.4459
H 6.53925 -6.89062 1.2615
O 0.19899 -6.76023 1.82492
C -2.87684 -3.20174 0.28398
C -3.57779 -6.18049 4.18828
C -4.20943 -7.53924 4.49225
C -3.03548 -8.46046 4.23621
C -1.94382 -7.43543 3.91699
O -2.27975 -6.32426 4.71087
H -4.25037 -6.43865 2.1313
H -2.26929 -7.69195 1.73198
H -2.30027 -2.41835 0.81983
H -4.19612 -5.37149 4.63479
H -4.44344 -7.56161 5.58081
H -5.13028 -7.76865 3.91406
H -2.79415 -8.99427 5.18239
H -3.17581 -9.19294 3.41198
H -0.93642 -7.87427 4.09135
H -3.9311 -2.8728 0.16498
H -2.43315 -3.34884 -0.72186
H 5.47198 -10.4382 3.02758
H 4.02552 -9.75065 2.19459
H 4.11917 -9.75662 4.00987
H 0.91389 -2.93923 3.76685
H 0.94014 -4.71411 3.96671
H -0.07127 -3.12067 1.60863
H 0.79331 -4.59651 1.25136
$end

$opt
CONSTRAINT
tors           1           2           3           4    -154.613
tors           3           4           5           6     +23.168
tors           4           5           6           7    -177.174
tors           5           6           7           8    -100.808
tors           6           7           8           9    +144.177
tors           7           8           9          10    -131.446
tors           8           9          10          11    -176.141
tors           9          10          11          12    -139.295
tors          11          12          13          14      +2.146
ENDCONSTRAINT
$end

$rem
JOBTYPE                   OPT
METHOD                    B3LYP
DFT_D                     d3_op
BASIS                     STO-3G
GEOM_OPT_MAX_CYCLES       100
GEOM_OPT_TOL_GRADIENT     300
GEOM_OPT_TOL_DISPLACEMENT 1200
GEOM_OPT_TOL_ENERGY       100
SYMMETRY                  False
THRESH                    12
SCF_CONVERGENCE           8
MAX_SUB_FILE_NUM          128
MEM_STATIC                400
MEM_TOTAL                 4000
$end
--------------------------------------------------------------

   15   -1510.1362741648      7.18E-09 Convergence criterion met
 Total energy in the final basis set = -1510.13627416
   13   -1510.2066237410      7.95E-09 Convergence criterion met
 Total energy in the final basis set = -1510.20662374
   14   -1510.2439314248      8.22E-09 Convergence criterion met
 Total energy in the final basis set = -1510.24393142
   15   -1510.2603096816      1.46E-09 Convergence criterion met
 Total energy in the final basis set = -1510.26030968
   14   -1510.2685606149      6.01E-09 Convergence criterion met
 Total energy in the final basis set = -1510.26856061
   13   -1510.2719349422      6.73E-09 Convergence criterion met
 Total energy in the final basis set = -1510.27193494
   13   -1510.2736236862      4.88E-09 Convergence criterion met
 Total energy in the final basis set = -1510.27362369
   12   -1510.2740843210      8.74E-09 Convergence criterion met
   11   -1510.2745808921      6.83E-09 Convergence criterion met
 Total energy in the final basis set = -1510.27458089
   11   -1510.2745876332      3.37E-09 Convergence criterion met
 Total energy in the final basis set = -1510.27458763
   11   -1510.2745932479      2.17E-09 Convergence criterion met
 Total energy in the final basis set = -1510.27459325
   10   -1510.2746001487      6.24E-09 Convergence criterion met
 Total energy in the final basis set = -1510.27460015
    9   -1510.2746042836      4.86E-09 Convergence criterion met
 Total energy in the final basis set = -1510.27460428
    9   -1510.2746067997      8.10E-09 Convergence criterion met
 Total energy in the final basis set = -1510.27460680

             Standard Nuclear Orientation (Angstroms)
    I     Atom           X                Y                Z
 ----------------------------------------------------------------
    1      O      -5.1345174091     2.1678429164     0.2235486148
    2      C      -4.4846488597     1.3598595421    -0.4730787976
    3      C      -4.5253001724    -0.2065893497    -0.3908639609
    4      C      -3.2284010799    -0.9483189775    -0.8945463275
    5      C      -1.9198491673    -0.0871732340    -0.8071180530
    6      O      -2.0937302090     0.9425055983     0.1818983750
    7      C      -0.8936461167     1.8093422571     0.2319454933
    8      C       0.0150826284     1.4135508164     1.4551624648
    9      O       1.4350927177     1.5769916214     1.0603949860
   10      C       2.1808816028     0.4039636414     1.4168010960
   11      C       3.6976432008     0.6369842076     1.0807350873
   12      C       4.4294377312    -0.6116984498     0.4482508550
   13      C       3.4388926584    -1.5878348751    -0.2847603255
   14      O       2.2057520766    -1.4598215970    -0.4400039054
   15      O      -3.7910670936     1.7252543562    -1.6800031449
   16      O       4.1985527528    -2.6906349311    -0.7924338881
   17      O       1.6961681278    -0.5601744091     2.0497307715
   18      C       3.3062657409    -3.6224900548    -1.5203708043
   19      C       4.0401155177     1.7731922302     0.0237041391
   20      C       5.4846977088     2.3052259332     0.3709400500
   21      C       6.3591431827     1.0632185971    -0.0444123589
   22      C       5.2712143350     0.1150876658    -0.6885245671
   23      O       4.2614513617     1.0458171016    -1.2487916039
   24      H       4.1779742753     0.8790972573     2.0478737258
   25      H       5.0538678814    -1.1678826195     1.1695168010
   26      H       3.2509093276     2.5401250872    -0.0928849780
   27      H       5.7257009793     3.1888620347    -0.2416787950
   28      H       5.5935171177     2.5702274288     1.4346910816
   29      H       7.1253473785     1.3342966276    -0.7878575638
   30      H       6.8566900450     0.5892882720     0.8173091498
   31      H       5.6480363610    -0.5717076795    -1.4712878185
   32      O      -0.8762369755    -0.2442728167    -1.4761107607
   33      C      -3.8243106929     3.1928844001    -1.8564948879
   34      C      -4.7188478179    -0.8288727046     1.0561044675
   35      C      -5.4656041032    -2.2057499660     0.8669129570
   36      C      -4.3363957350    -3.0524968922     0.1675738256
   37      C      -3.1070878026    -2.0597288773     0.2435018836
   38      O      -3.3604307275    -1.2585337621     1.4647330811
   39      H      -5.3780495251    -0.5069986673    -1.0301160014
   40      H      -3.3231036036    -1.3680342578    -1.9105439964
   41      H      -3.3026903240     3.7166841123    -1.0295784998
   42      H      -5.1558104152    -0.1353987126     1.8007468022
   43      H      -5.7362829708    -2.6308991829     1.8467057135
   44      H      -6.3771510988    -2.1152016275     0.2547179194
   45      H      -4.1200865248    -3.9805042180     0.7202513269
   46      H      -4.5876269631    -3.3133596959    -0.8733166244
   47      H      -2.1133845838    -2.5460145049     0.2967471773
   48      H      -4.8640115136     3.5758996159    -1.9119385330
   49      H      -3.3018898275     3.3982706245    -2.8090819932
   50      H       3.9545029213    -4.4368918304    -1.8929168983
   51      H       2.8052003810    -3.1239823453    -2.3752830245
   52      H       2.5261628523    -4.0436209483    -0.8537598619
   53      H      -0.1933381839     2.0602973041     2.3332006391
   54      H      -0.1521948060     0.3522476534     1.7448360461
   55      H      -1.2512048131     2.8546628948     0.3166979967
   56      H      -0.3061523773     1.6750596609    -0.7028482171
 ----------------------------------------------------------------

    9   -1510.2746077256      2.87E-09 Convergence criterion met
 Total energy in the final basis set = -1510.27460773
 Final energy is   -1510.27460772558
 **  OPTIMIZATION CONVERGED  **

                    Orbital Energies (a.u.)
 --------------------------------------------------------------

 Alpha MOs
 -- Occupied --
-18.930 -18.928 -18.925 -18.924 -18.883 -18.883 -18.875 -18.872
-18.867 -18.865 -10.096 -10.095 -10.094 -10.094 -10.063 -10.061
-10.061 -10.058 -10.058 -10.057 -10.056 -10.055 -10.036 -10.035
-10.034 -10.033 -10.019 -10.018 -10.017 -10.017  -1.011  -1.009
 -1.002  -0.999  -0.967  -0.967  -0.935  -0.932  -0.929  -0.925
 -0.761  -0.760  -0.724  -0.720  -0.709  -0.701  -0.688  -0.659
 -0.658  -0.610  -0.594  -0.576  -0.542  -0.542  -0.535  -0.534
 -0.510  -0.506  -0.483  -0.469  -0.461  -0.457  -0.446  -0.445
 -0.432  -0.429  -0.423  -0.409  -0.409  -0.405  -0.404  -0.399
 -0.392  -0.370  -0.368  -0.365  -0.360  -0.355  -0.351  -0.342
 -0.339  -0.334  -0.332  -0.327  -0.326  -0.320  -0.315  -0.309
 -0.308  -0.303  -0.301  -0.296  -0.292  -0.288  -0.281  -0.273
 -0.267  -0.252  -0.250  -0.243  -0.236  -0.231  -0.230  -0.181
 -0.174  -0.170  -0.159  -0.154  -0.152  -0.144  -0.143  -0.140
 -0.140

          Ground-State Mulliken Net Atomic Charges

     Atom                 Charge (a.u.)
  ----------------------------------------
      1 O                    -0.218370
      2 C                     0.218343
      3 C                    -0.078343
      4 C                    -0.076195
      5 C                     0.217196
      6 O                    -0.170289
      7 C                    -0.052824
      8 C                    -0.055859
      9 O                    -0.176317
     10 C                     0.217898
     11 C                    -0.079883
     12 C                    -0.076555
     13 C                     0.213861
     14 O                    -0.202873
     15 O                    -0.175344
     16 O                    -0.172907
     17 O                    -0.215994
     18 C                    -0.128438
     19 C                     0.023008
     20 C                    -0.142424
     21 C                    -0.145270
     22 C                     0.024006
     23 O                    -0.191811
     24 H                     0.082981
     25 H                     0.087291
     26 H                     0.093039
     27 H                     0.077311
     28 H                     0.072641
     29 H                     0.077776
     30 H                     0.073393
     31 H                     0.085517
     32 O                    -0.207770
     33 C                    -0.128116
     34 C                     0.024978
     35 C                    -0.141922
     36 C                    -0.145175
     37 C                     0.024038
     38 O                    -0.189260
     39 H                     0.082626
     40 H                     0.088067
     41 H                     0.085083
     42 H                     0.089661
     43 H                     0.077789
     44 H                     0.072864
     45 H                     0.078086
     46 H                     0.073279
     47 H                     0.085536
     48 H                     0.087934
     49 H                     0.089424
     50 H                     0.089138
     51 H                     0.091300
     52 H                     0.089680
     53 H                     0.081503
     54 H                     0.107862
     55 H                     0.083443
     56 H                     0.105388
  ----------------------------------------
  Sum of atomic charges =    -0.000000

                    Cartesian Multipole Moments
 -----------------------------------------------------------------
    Charge (ESU x 10^10)
                 0.0000
    Dipole Moment (Debye)
         X       0.8123      Y      -0.2256      Z      -0.6650
       Tot       1.0738
    Quadrupole Moments (Debye-Ang)
        XX    -143.2589     XY       6.2689     YY    -148.0905
        XZ       9.6272     YZ       3.3796     ZZ    -162.0370

 Total job time:  51.78s(wall), 2462.07s(cpu)
        *  Thank you very much for using Q-Chem.  Have a nice day.  *
