 Q-Chem 5.0, Q-Chem, Inc., Pleasanton, CA (2017)
 Q-Chem 5.0.1 for Intel X86 EM64T Linux

User input:
--------------------------------------------------------------
$molecule
0  1
O -5.1345174091 2.1678429164 0.2235486148
C -4.4846488597 1.3598595421 -0.4730787976
C -4.5253001724 -0.2065893497 -0.3908639609
C -3.2284010799 -0.9483189775 -0.8945463275
C -1.9198491673 -0.087173234 -0.807118053
O -2.093730209 0.9425055983 0.181898375
C -0.8936461167 1.8093422571 0.2319454933
C 0.0150826284 1.4135508164 1.4551624648
O 1.4350927177 1.5769916214 1.060394986
C 2.1808816028 0.4039636414 1.416801096
C 3.6976432008 0.6369842076 1.0807350873
C 4.4294377312 -0.6116984498 0.448250855
C 3.4388926584 -1.5878348751 -0.2847603255
O 2.2057520766 -1.459821597 -0.4400039054
O -3.7910670936 1.7252543562 -1.6800031449
O 4.1985527528 -2.6906349311 -0.7924338881
O 1.6961681278 -0.5601744091 2.0497307715
C 3.3062657409 -3.6224900548 -1.5203708043
C 4.0401155177 1.7731922302 0.0237041391
C 5.4846977088 2.3052259332 0.37094005
C 6.3591431827 1.0632185971 -0.0444123589
C 5.271214335 0.1150876658 -0.6885245671
O 4.2614513617 1.0458171016 -1.2487916039
H 4.1779742753 0.8790972573 2.0478737258
H 5.0538678814 -1.1678826195 1.169516801
H 3.2509093276 2.5401250872 -0.092884978
H 5.7257009793 3.1888620347 -0.241678795
H 5.5935171177 2.5702274288 1.4346910816
H 7.1253473785 1.3342966276 -0.7878575638
H 6.856690045 0.589288272 0.8173091498
H 5.648036361 -0.5717076795 -1.4712878185
O -0.8762369755 -0.2442728167 -1.4761107607
C -3.8243106929 3.1928844001 -1.8564948879
C -4.7188478179 -0.8288727046 1.0561044675
C -5.4656041032 -2.205749966 0.866912957
C -4.336395735 -3.0524968922 0.1675738256
C -3.1070878026 -2.0597288773 0.2435018836
O -3.3604307275 -1.2585337621 1.4647330811
H -5.3780495251 -0.5069986673 -1.0301160014
H -3.3231036036 -1.3680342578 -1.9105439964
H -3.302690324 3.7166841123 -1.0295784998
H -5.1558104152 -0.1353987126 1.8007468022
H -5.7362829708 -2.6308991829 1.8467057135
H -6.3771510988 -2.1152016275 0.2547179194
H -4.1200865248 -3.980504218 0.7202513269
H -4.5876269631 -3.3133596959 -0.8733166244
H -2.1133845838 -2.5460145049 0.2967471773
H -4.8640115136 3.5758996159 -1.911938533
H -3.3018898275 3.3982706245 -2.8090819932
H 3.9545029213 -4.4368918304 -1.8929168983
H 2.805200381 -3.1239823453 -2.3752830245
H 2.5261628523 -4.0436209483 -0.8537598619
H -0.1933381839 2.0602973041 2.3332006391
H -0.152194806 0.3522476534 1.7448360461
H -1.2512048131 2.8546628948 0.3166979967
H -0.3061523773 1.6750596609 -0.7028482171
$end

$rem
JOBTYPE                   OPT
METHOD                    B3LYP
DFT_D                     d3_op
BASIS                     STO-3G
GEOM_OPT_MAX_CYCLES       100
GEOM_OPT_TOL_GRADIENT     300
GEOM_OPT_TOL_DISPLACEMENT 1200
GEOM_OPT_TOL_ENERGY       100
SYMMETRY                  False
THRESH                    12
SCF_CONVERGENCE           8
MAX_SUB_FILE_NUM          128
MEM_STATIC                400
MEM_TOTAL                 4000
$end
--------------------------------------------------------------

   16   -1510.2746131169      5.40E-09 Convergence criterion met
 Total energy in the final basis set = -1510.27461312
   14   -1510.2774901105      5.65E-09 Convergence criterion met
 Total energy in the final basis set = -1510.27749011
   13   -1510.2792026072      5.86E-09 Convergence criterion met
 Total energy in the final basis set = -1510.27920261
   13   -1510.2811412536      5.51E-09 Convergence criterion met
 Total energy in the final basis set = -1510.28114125
   13   -1510.2827722272      7.78E-09 Convergence criterion met
 Total energy in the final basis set = -1510.28277223
   14   -1510.2843795970      4.18E-09 Convergence criterion met
 Total energy in the final basis set = -1510.28437960
   13   -1510.2858073769      8.02E-09 Convergence criterion met
 Total energy in the final basis set = -1510.28580738
   13   -1510.2878324306      5.46E-09 Convergence criterion met
   11   -1510.2994533918      9.42E-09 Convergence criterion met
 Total energy in the final basis set = -1510.29945339
   11   -1510.2994689605      9.25E-09 Convergence criterion met
 Total energy in the final basis set = -1510.29946896
   12   -1510.2994823518      2.54E-09 Convergence criterion met
 Total energy in the final basis set = -1510.29948235
   11   -1510.2994907122      6.54E-09 Convergence criterion met
 Total energy in the final basis set = -1510.29949071
   10   -1510.2994912712      9.67E-09 Convergence criterion met
 Total energy in the final basis set = -1510.29949127
   10   -1510.2994910863      6.99E-09 Convergence criterion met
 Total energy in the final basis set = -1510.29949109

             Standard Nuclear Orientation (Angstroms)
    I     Atom           X                Y                Z
 ----------------------------------------------------------------
    1      O      -4.7386041805     1.5437986267     0.2243406776
    2      C      -4.1683253007     0.8171195071    -0.6147121464
    3      C      -3.8312120694    -0.7117515765    -0.5031212867
    4      C      -2.3100104973    -1.0515397805    -0.7886221410
    5      C      -1.4140440429     0.1976496963    -1.0672811960
    6      O      -1.6210236899     1.1531923789    -0.0305783040
    7      C      -0.7569298806     2.3429389095    -0.2208420918
    8      C       0.2089117054     2.5169230316     1.0029013905
    9      O       1.5131704482     1.8711479600     0.7323615874
   10      C       1.8361745359     0.9345939524     1.7744315676
   11      C       3.2890335571     0.3791102513     1.5282472893
   12      C       3.4044848558    -0.7386308136     0.4126808039
   13      C       2.0216859985    -1.0974679872    -0.2262637077
   14      O       0.8988329923    -0.7952491152     0.2441221411
   15      O      -3.7422885322     1.2596783375    -1.9134208614
   16      O       2.2328090879    -1.8326227653    -1.4209815188
   17      O       1.1215690383     0.7229698091     2.7790754650
   18      C       0.9378322623    -2.1431029869    -2.0821928143
   19      C       4.2555692447     1.4882884246     0.9253172201
   20      C       5.7497634366     1.0059447390     1.1051990228
   21      C       5.8505748411    -0.0996524895    -0.0104813920
   22      C       4.3945973141    -0.0485229653    -0.6191612221
   23      O       4.0315117452     1.3836049375    -0.5350418643
   24      H       3.6551471569     0.0006136111     2.4988700436
   25      H       3.8429254649    -1.6681280489     0.8212280369
   26      H       4.0469669511     2.5171603953     1.2756410688
   27      H       6.4466430812     1.8374308837     0.9143051650
   28      H       5.9404511003     0.6105664965     2.1157885060
   29      H       6.5977316084     0.1652218649    -0.7755093153
   30      H       6.0966883382    -1.0940281395     0.3949971293
   31      H       4.2924653196    -0.4211557952    -1.6568124699
   32      O      -0.6027446649     0.3456525839    -2.0151092255
   33      C      -4.0364707537     2.6994543186    -2.0842118446
   34      C      -3.9910526160    -1.2471465407     0.9799193804
   35      C      -4.0522761493    -2.8246973754     0.9322001279
   36      C      -2.5466383771    -3.1771007529     0.6347197166
   37      C      -1.8983008384    -1.7393941491     0.5867930778
   38      O      -2.6688699257    -0.9717664405     1.5886685096
   39      H      -4.4869935550    -1.2577216969    -1.2065668846
   40      H      -2.2011141970    -1.7398128619    -1.6441390611
   41      H      -3.6463880573     3.2994533950    -1.2377192672
   42      H      -4.7955754693    -0.7469489874     1.5534386464
   43      H      -4.3760180230    -3.2267941183     1.9053795840
   44      H      -4.7381412241    -3.1919166792     0.1519109935
   45      H      -2.1029494022    -3.7722053542     1.4487827122
   46      H      -2.4181669086    -3.7251571840    -0.3127065499
   47      H      -0.8073347745    -1.6716130450     0.7815946526
   48      H      -5.1274184836     2.8833825095    -2.1698501805
   49      H      -3.5374197114     3.0065474824    -3.0217396139
   50      H       1.2020991857    -2.5930248962    -3.0561013580
   51      H       0.3265040691    -1.2159510164    -2.2260163880
   52      H       0.3581484147    -2.8768918898    -1.4857369339
   53      H       0.3902259633     3.6001272528     1.1728896097
   54      H      -0.2332738757     2.0657358322     1.9196204196
   55      H      -1.4218963646     3.2283184836    -0.3001326965
   56      H      -0.1796959662     2.2175479971    -1.1635260647
 ----------------------------------------------------------------

    9   -1510.2994909926      6.94E-09 Convergence criterion met
 Total energy in the final basis set = -1510.29949099
 Final energy is   -1510.29949099263
 **  OPTIMIZATION CONVERGED  **

                    Orbital Energies (a.u.)
 --------------------------------------------------------------

 Alpha MOs
 -- Occupied --
-18.941 -18.936 -18.930 -18.917 -18.886 -18.882 -18.879 -18.876
-18.874 -18.861 -10.107 -10.104 -10.097 -10.090 -10.065 -10.063
-10.059 -10.058 -10.057 -10.052 -10.048 -10.046 -10.039 -10.034
-10.033 -10.033 -10.019 -10.018 -10.015 -10.014  -1.018  -1.014
 -1.005  -0.997  -0.968  -0.962  -0.941  -0.937  -0.934  -0.923
 -0.761  -0.759  -0.724  -0.720  -0.710  -0.701  -0.690  -0.661
 -0.658  -0.609  -0.594  -0.576  -0.544  -0.540  -0.535  -0.531
 -0.512  -0.507  -0.485  -0.477  -0.462  -0.460  -0.441  -0.435
 -0.432  -0.428  -0.424  -0.415  -0.411  -0.407  -0.403  -0.401
 -0.397  -0.379  -0.372  -0.366  -0.359  -0.354  -0.353  -0.345
 -0.343  -0.335  -0.331  -0.328  -0.323  -0.320  -0.318  -0.311
 -0.304  -0.302  -0.301  -0.296  -0.292  -0.288  -0.280  -0.274
 -0.267  -0.255  -0.251  -0.243  -0.234  -0.232  -0.225  -0.188
 -0.175  -0.174  -0.159  -0.158  -0.155  -0.149  -0.144  -0.141
 -0.136

          Ground-State Mulliken Net Atomic Charges

     Atom                 Charge (a.u.)
  ----------------------------------------
      1 O                    -0.210475
      2 C                     0.215860
      3 C                    -0.078271
      4 C                    -0.078237
      5 C                     0.229986
      6 O                    -0.164787
      7 C                    -0.052770
      8 C                    -0.055078
      9 O                    -0.175281
     10 C                     0.214981
     11 C                    -0.080584
     12 C                    -0.078241
     13 C                     0.220888
     14 O                    -0.216677
     15 O                    -0.175725
     16 O                    -0.167720
     17 O                    -0.216966
     18 C                    -0.145736
     19 C                     0.026921
     20 C                    -0.144515
     21 C                    -0.143819
     22 C                     0.024739
     23 O                    -0.186767
     24 H                     0.083559
     25 H                     0.085732
     26 H                     0.084616
     27 H                     0.077510
     28 H                     0.073370
     29 H                     0.077817
     30 H                     0.073005
     31 H                     0.089892
     32 O                    -0.221366
     33 C                    -0.128724
     34 C                     0.024551
     35 C                    -0.143993
     36 C                    -0.145251
     37 C                     0.017837
     38 O                    -0.184591
     39 H                     0.083083
     40 H                     0.081429
     41 H                     0.088835
     42 H                     0.088777
     43 H                     0.077406
     44 H                     0.071089
     45 H                     0.077098
     46 H                     0.069700
     47 H                     0.102917
     48 H                     0.086522
     49 H                     0.090460
     50 H                     0.085211
     51 H                     0.115367
     52 H                     0.076594
     53 H                     0.080585
     54 H                     0.110040
     55 H                     0.082163
     56 H                     0.107033
  ----------------------------------------
  Sum of atomic charges =    -0.000000

                    Cartesian Multipole Moments
 -----------------------------------------------------------------
    Charge (ESU x 10^10)
                -0.0000
    Dipole Moment (Debye)
         X       0.9212      Y      -1.2153      Z      -1.5680
       Tot       2.1873
    Quadrupole Moments (Debye-Ang)
        XX    -147.5048     XY       0.7349     YY    -147.3136
        XZ      12.1269     YZ       0.2889     ZZ    -166.4232

 Total job time:  94.66s(wall), 4505.79s(cpu)
        *  Thank you very much for using Q-Chem.  Have a nice day.  *
