 Q-Chem 5.0, Q-Chem, Inc., Pleasanton, CA (2017)
 Q-Chem 5.0.1 for Intel X86 EM64T Linux

User input:
--------------------------------------------------------------
$molecule
0  1
O 2.9619593981 -1.394114349 1.1183170895
C 3.991042629 -1.4139234583 0.4090672079
C 5.024678497 -0.2578973239 0.1813865738
C 4.4558381548 0.892835495 -0.7632747033
C 3.0123226347 0.5701396528 -1.2865305473
O 2.0591343678 1.0231714546 -0.3234134945
C 0.6840802792 0.6732743238 -0.754179961
C -0.2758578682 1.2519932693 0.345194541
O -1.6318665067 1.4889794051 -0.2046017453
C -2.406243964 0.2858182823 -0.1725734472
C -3.8011734891 0.5576132458 -0.8551957366
C -4.8974296002 -0.4451756196 -0.3206722183
C -4.3420710922 -1.8121052159 0.2204786054
O -4.6367504863 -2.3800767932 1.293493804
O 4.4012222999 -2.5415718513 -0.3750640708
O -3.659193014 -2.4539117351 -0.8703404103
O -2.0351669978 -0.7646141768 0.3973482986
C -3.1192529664 -3.7564277884 -0.4260297811
C -4.3619518887 1.9120514622 -0.2453352164
C -5.7663607458 2.2665188836 -0.878661155
C -6.7240194666 1.3039352325 -0.080815251
C -5.6694471736 0.4561650907 0.7304329424
O -4.6813197378 1.4835555869 1.1399841267
H -3.7040610137 0.5582948529 -1.9556461211
H -5.5751246988 -0.7103544925 -1.1537519568
H -3.6215561228 2.7345717496 -0.2360880177
H -6.013681027 3.3254391517 -0.7037750577
H -5.7862044587 2.0760472657 -1.9640598923
H -7.3741614286 1.8664609771 0.6086228604
H -7.3546681373 0.6830298226 -0.7370036497
H -6.0532838472 -0.095039721 1.6110319731
O 2.7113989286 -0.0082107414 -2.3540308052
C 3.411433255 -3.6361558233 -0.2431670048
C 5.288589062 0.5637134367 1.5149114436
C 6.5780031023 1.4510955145 1.3020672134
C 6.014224606 2.587813725 0.370658881
C 4.50763585 2.1375211845 0.2176291359
O 4.1854919662 1.5500309551 1.5380481521
H 5.9496083535 -0.6937476581 -0.2353433569
H 5.107808718 1.0275333478 -1.6446810894
H 2.4144289352 -3.3299525335 -0.6211285412
H 5.2787361545 -0.0467868402 2.4384701136
H 6.9301815521 1.8547089518 2.2646587749
H 7.3993833866 0.8850175951 0.8345696273
H 6.0714223134 3.5741043727 0.8578766901
H 6.5341213383 2.642339479 -0.5991439789
H 3.7936971422 2.9457077919 -0.0313878191
H 3.3023168112 -3.9652746139 0.8104058248
H 3.7970217374 -4.4722470976 -0.8549943281
H -2.6932345558 -4.2369201061 -1.3261113658
H -3.9102512389 -4.4042478657 0.0042936118
H -2.3215710707 -3.6205662868 0.3330012055
H -0.3178496831 0.5654205558 1.2163406027
H 0.0973976575 2.2442555881 0.67041444
H 0.5621717143 -0.4276713794 -0.8450303424
H 0.4503141983 1.1315933214 -1.7408364601
$end

$rem
JOBTYPE                   OPT
METHOD                    B3LYP
DFT_D                     d3_op
BASIS                     STO-3G
GEOM_OPT_MAX_CYCLES       100
GEOM_OPT_TOL_GRADIENT     300
GEOM_OPT_TOL_DISPLACEMENT 1200
GEOM_OPT_TOL_ENERGY       100
SYMMETRY                  False
THRESH                    12
SCF_CONVERGENCE           8
MAX_SUB_FILE_NUM          128
MEM_STATIC                400
MEM_TOTAL                 4000
$end
--------------------------------------------------------------

   16   -1510.2773865854      5.67E-09 Convergence criterion met
 Total energy in the final basis set = -1510.27738659
   13   -1510.2795732685      9.50E-09 Convergence criterion met
 Total energy in the final basis set = -1510.27957327
   14   -1510.2810321718      2.45E-09 Convergence criterion met
 Total energy in the final basis set = -1510.28103217
   14   -1510.2821264043      2.59E-09 Convergence criterion met
 Total energy in the final basis set = -1510.28212640
   13   -1510.2829921172      7.01E-09 Convergence criterion met
 Total energy in the final basis set = -1510.28299212
   13   -1510.2838097064      5.45E-09 Convergence criterion met
 Total energy in the final basis set = -1510.28380971
   13   -1510.2846532353      9.03E-09 Convergence criterion met
 Total energy in the final basis set = -1510.28465324
   14   -1510.2846733421      1.96E-09 Convergence criterion met
   12   -1510.3006925749      7.03E-09 Convergence criterion met
 Total energy in the final basis set = -1510.30069257
   12   -1510.3006435206      5.66E-09 Convergence criterion met
 Total energy in the final basis set = -1510.30064352
   11   -1510.3006912575      8.29E-09 Convergence criterion met
 Total energy in the final basis set = -1510.30069126
    9   -1510.3006906477      6.71E-09 Convergence criterion met
 Total energy in the final basis set = -1510.30069065
    9   -1510.3006901316      5.39E-09 Convergence criterion met
 Total energy in the final basis set = -1510.30069013
    9   -1510.3006874511      7.99E-09 Convergence criterion met
 Total energy in the final basis set = -1510.30068745

             Standard Nuclear Orientation (Angstroms)
    I     Atom           X                Y                Z
 ----------------------------------------------------------------
    1      O      -1.2443480507    -0.8603665330     1.2250207843
    2      C      -1.9012887223     0.2079005263     1.2472453811
    3      C      -3.3907867535     0.4190397417     0.7978952627
    4      C      -3.6109035453     0.3174852269    -0.7782879344
    5      C      -2.2691063549     0.0409405048    -1.5420808119
    6      O      -2.1665772107    -1.3537881460    -1.8373747415
    7      C      -0.7894864767    -1.6987699789    -2.2682109160
    8      C      -0.0638589470    -2.3652367988    -1.0337836314
    9      O       1.4131180743    -2.1935813539    -1.0680604955
   10      C       1.7582624026    -0.8818599136    -0.6357228889
   11      C       3.3057646350    -0.7660426289    -0.4703543421
   12      C       3.8012614385     0.7377893498    -0.4498248159
   13      C       2.6644955568     1.7925468913    -0.7296345749
   14      O       2.2269245497     2.6500148078     0.0677365091
   15      O      -1.4012222522     1.4480143097     1.7265569942
   16      O       2.2970338012     1.6806627339    -2.1080755191
   17      O       0.9160225946     0.0117093292    -0.3792175564
   18      C       1.1266443144     2.5430235925    -2.4012976384
   19      C       3.7097272355    -1.2293871616     0.9996453076
   20      C       5.2796138704    -1.3823061990     1.0682465269
   21      C       5.7314497473     0.1246593253     1.1270788686
   22      C       4.3394932881     0.8613746743     1.0346247844
   23      O       3.4319906073    -0.0219243906     1.8078231728
   24      H       3.8054003700    -1.3715876874    -1.2466803300
   25      H       4.6047151062     0.8886494609    -1.1931998578
   26      H       3.1329064077    -2.0959186091     1.3778196453
   27      H       5.5729942155    -1.9297770660     1.9780397936
   28      H       5.6812555389    -1.9144976041     0.1910867560
   29      H       6.2283213581     0.3583014851     2.0821581509
   30      H       6.4056997339     0.4002033251     0.3006516066
   31      H       4.3057945619     1.8919580402     1.4380856107
   32      O      -1.4054990053     0.8932514013    -1.8488423460
   33      C       0.0355104999     1.3232437730     2.0913912783
   34      C      -4.3304314235    -0.7599037512     1.3000660418
   35      C      -5.8310617062    -0.2817493242     1.1789614409
   36      C      -6.0515157963    -0.3690152214    -0.3768391348
   37      C      -4.6388856567    -0.8880521184    -0.8582425735
   38      O      -4.2029659473    -1.7827818259     0.2381945268
   39      H      -3.7222130088     1.4016951592     1.1767129459
   40      H      -4.0390737257     1.2587062974    -1.1673882878
   41      H       0.6144510675     0.9024274865     1.2382991643
   42      H      -4.0455442883    -1.1854229560     2.2816423967
   43      H      -6.4990205491    -0.9700485761     1.7208202808
   44      H      -5.9764549536     0.7364794247     1.5734680816
   45      H      -6.8359908600    -1.0985172303    -0.6335149369
   46      H      -6.3114747854     0.6022950184    -0.8267655252
   47      H      -4.6356335795    -1.4285329312    -1.8237124908
   48      H       0.1639879549     0.6791348488     2.9846268769
   49      H       0.3798471920     2.3482669239     2.3170138976
   50      H       1.1651540050     2.7719415935    -3.4822560612
   51      H       1.1699026466     3.4798393597    -1.8120119486
   52      H       0.1842461984     1.9997438183    -2.1633968830
   53      H      -0.4950861069    -1.9060482830    -0.1067570961
   54      H      -0.2308807074    -3.4596515082    -1.0284001622
   55      H      -0.2592983068    -0.7715597264    -2.5747842214
   56      H      -0.8702893866    -2.3945622221    -3.1267646020
 ----------------------------------------------------------------

    9   -1510.3006880036      3.26E-09 Convergence criterion met
 Total energy in the final basis set = -1510.30068800
 Final energy is   -1510.30068800362
 **  OPTIMIZATION CONVERGED  **

                    Orbital Energies (a.u.)
 --------------------------------------------------------------

 Alpha MOs
 -- Occupied --
-18.939 -18.936 -18.929 -18.912 -18.887 -18.886 -18.883 -18.882
-18.869 -18.856 -10.105 -10.105 -10.096 -10.086 -10.065 -10.060
-10.059 -10.059 -10.055 -10.054 -10.039 -10.038 -10.035 -10.034
-10.033 -10.030 -10.020 -10.020 -10.019 -10.018  -1.019  -1.013
 -1.003  -0.992  -0.969  -0.969  -0.942  -0.937  -0.928  -0.919
 -0.763  -0.760  -0.726  -0.721  -0.710  -0.704  -0.690  -0.647
 -0.644  -0.613  -0.593  -0.577  -0.545  -0.542  -0.536  -0.534
 -0.513  -0.505  -0.480  -0.474  -0.455  -0.453  -0.451  -0.444
 -0.432  -0.431  -0.427  -0.412  -0.405  -0.401  -0.397  -0.393
 -0.391  -0.372  -0.370  -0.364  -0.358  -0.353  -0.348  -0.345
 -0.342  -0.333  -0.330  -0.330  -0.324  -0.323  -0.318  -0.310
 -0.308  -0.305  -0.300  -0.298  -0.287  -0.285  -0.276  -0.272
 -0.270  -0.259  -0.244  -0.238  -0.235  -0.233  -0.233  -0.191
 -0.173  -0.162  -0.160  -0.157  -0.155  -0.147  -0.144  -0.143
 -0.138

          Ground-State Mulliken Net Atomic Charges

     Atom                 Charge (a.u.)
  ----------------------------------------
      1 O                    -0.220915
      2 C                     0.213561
      3 C                    -0.079014
      4 C                    -0.077770
      5 C                     0.215523
      6 O                    -0.166967
      7 C                    -0.055758
      8 C                    -0.065230
      9 O                    -0.169559
     10 C                     0.219762
     11 C                    -0.078538
     12 C                    -0.081184
     13 C                     0.214348
     14 O                    -0.220245
     15 O                    -0.165505
     16 O                    -0.180365
     17 O                    -0.211014
     18 C                    -0.145362
     19 C                     0.025056
     20 C                    -0.143719
     21 C                    -0.143863
     22 C                     0.023803
     23 O                    -0.190583
     24 H                     0.087486
     25 H                     0.083326
     26 H                     0.084407
     27 H                     0.078162
     28 H                     0.074012
     29 H                     0.077777
     30 H                     0.073513
     31 H                     0.089737
     32 O                    -0.211474
     33 C                    -0.140150
     34 C                     0.025412
     35 C                    -0.143896
     36 C                    -0.144404
     37 C                     0.026016
     38 O                    -0.185722
     39 H                     0.087711
     40 H                     0.085730
     41 H                     0.116538
     42 H                     0.084231
     43 H                     0.077927
     44 H                     0.074153
     45 H                     0.077733
     46 H                     0.073235
     47 H                     0.088267
     48 H                     0.080491
     49 H                     0.091205
     50 H                     0.078690
     51 H                     0.088693
     52 H                     0.109817
     53 H                     0.121505
     54 H                     0.086506
     55 H                     0.101312
     56 H                     0.085593
  ----------------------------------------
  Sum of atomic charges =    -0.000000

                    Cartesian Multipole Moments
 -----------------------------------------------------------------
    Charge (ESU x 10^10)
                -0.0000
    Dipole Moment (Debye)
         X      -0.2117      Y      -0.7000      Z      -1.0101
       Tot       1.2471
    Quadrupole Moments (Debye-Ang)
        XX    -136.0234     XY      -6.9242     YY    -164.1188
        XZ      -0.3126     YZ       0.3577     ZZ    -156.8280

 Total job time:  129.13s(wall), 6157.21s(cpu)
        *  Thank you very much for using Q-Chem.  Have a nice day.  *
