 Q-Chem 5.0, Q-Chem, Inc., Pleasanton, CA (2017)
 Q-Chem 5.0.1 for Intel X86 EM64T Linux

User input:
--------------------------------------------------------------
$molecule
0  1
O -3.94934 -3.66094 2.70899
C -3.26408 -4.56952 2.26188
C -3.36658 -6.02376 2.66595
C -2.81032 -6.4104 4.04614
C -2.37514 -5.27123 4.94114
O -3.44401 -4.80584 5.65272
C -3.12418 -3.68092 6.47826
C -4.35192 -3.24481 7.2711
O -3.94518 -2.54245 8.45606
C -3.68325 -1.22219 8.29038
C -3.17252 -0.56126 9.54854
C -3.42008 0.95207 9.63105
C -4.42932 1.51108 8.64836
O -5.34259 2.27439 8.92741
O -2.41995 -4.29785 1.23158
O -4.08652 1.46504 7.33512
O -3.3365 -0.81275 7.19178
C -4.81135 2.03178 6.30583
C -3.87027 -1.01484 10.85598
C -2.93143 -0.78405 12.03874
C -2.93628 0.72851 12.11215
C -3.99926 1.04964 11.05439
O -4.87008 -0.05368 11.08914
H -2.09114 -0.81825 9.61963
H -2.48244 1.53357 9.49072
H -4.20719 -2.07336 10.85337
H -3.44975 -1.18411 12.94005
H -1.92663 -1.2522 11.96118
H -3.2739 1.02903 13.1288
H -1.96888 1.21912 11.86868
H -4.45743 2.04103 11.26364
O -1.31525 -4.67246 4.80286
C -2.2268 -3.04209 0.69492
C -4.8174 -6.52079 2.76523
C -4.86274 -8.03749 2.58435
C -4.25993 -8.49564 3.89605
C -4.05973 -7.14741 4.59738
O -5.13279 -6.36617 4.12585
H -2.8261 -6.60011 1.88017
H -1.95424 -7.11974 4.00104
H -1.83738 -2.35016 1.47214
H -5.49883 -6.02267 2.04111
H -5.93405 -8.34047 2.56156
H -4.35437 -8.4136 1.67052
H -5.02226 -9.09664 4.44031
H -3.31406 -9.07284 3.81051
H -4.0077 -7.29725 5.69851
H -3.18215 -2.64897 0.28609
H -1.48637 -3.10823 -0.12841
H -4.29667 1.8285 5.34448
H -4.88412 3.13143 6.4462
H -5.82926 1.58824 6.2674
H -5.11746 -2.71022 6.66509
H -4.82821 -4.1786 7.63986
H -2.72042 -2.83072 5.88639
H -2.35312 -4.01366 7.21142
$end

$opt
CONSTRAINT
tors           1           2           3           4     -73.743
tors           3           4           5           6     +86.418
tors           4           5           6           7    -177.174
tors           5           6           7           8    -178.304
tors           6           7           8           9    +155.943
tors           7           8           9          10     +84.108
tors           8           9          10          11    -176.141
tors           9          10          11          12    -155.087
tors          11          12          13          14    +132.480
ENDCONSTRAINT
$end

$rem
JOBTYPE                   OPT
METHOD                    B3LYP
DFT_D                     d3_op
BASIS                     STO-3G
GEOM_OPT_MAX_CYCLES       100
GEOM_OPT_TOL_GRADIENT     300
GEOM_OPT_TOL_DISPLACEMENT 1200
GEOM_OPT_TOL_ENERGY       100
SYMMETRY                  False
THRESH                    12
SCF_CONVERGENCE           8
MAX_SUB_FILE_NUM          128
MEM_STATIC                400
MEM_TOTAL                 4000
$end
--------------------------------------------------------------

   15   -1510.1264508274      7.53E-09 Convergence criterion met
 Total energy in the final basis set = -1510.12645083
   14   -1510.1984851299      7.19E-09 Convergence criterion met
 Total energy in the final basis set = -1510.19848513
   14   -1510.2376752213      7.54E-09 Convergence criterion met
 Total energy in the final basis set = -1510.23767522
   14   -1510.2562380634      3.10E-09 Convergence criterion met
 Total energy in the final basis set = -1510.25623806
   14   -1510.2642451600      5.10E-09 Convergence criterion met
 Total energy in the final basis set = -1510.26424516
   13   -1510.2682544440      6.23E-09 Convergence criterion met
 Total energy in the final basis set = -1510.26825444
   13   -1510.2703277584      2.85E-09 Convergence criterion met
 Total energy in the final basis set = -1510.27032776
   13   -1510.2711729188      4.17E-09 Convergence criterion met
   12   -1510.2772869866      3.33E-09 Convergence criterion met
 Total energy in the final basis set = -1510.27728699
   11   -1510.2772986930      6.85E-09 Convergence criterion met
 Total energy in the final basis set = -1510.27729869
   10   -1510.2773033576      8.60E-09 Convergence criterion met
 Total energy in the final basis set = -1510.27730336
    9   -1510.2773135322      7.76E-09 Convergence criterion met
 Total energy in the final basis set = -1510.27731353
    9   -1510.2773289759      9.04E-09 Convergence criterion met
 Total energy in the final basis set = -1510.27732898
    9   -1510.2773313995      8.05E-09 Convergence criterion met
 Total energy in the final basis set = -1510.27733140

             Standard Nuclear Orientation (Angstroms)
    I     Atom           X                Y                Z
 ----------------------------------------------------------------
    1      O       2.9619593981    -1.3941143490     1.1183170895
    2      C       3.9910426290    -1.4139234583     0.4090672079
    3      C       5.0246784970    -0.2578973239     0.1813865738
    4      C       4.4558381548     0.8928354950    -0.7632747033
    5      C       3.0123226347     0.5701396528    -1.2865305473
    6      O       2.0591343678     1.0231714546    -0.3234134945
    7      C       0.6840802792     0.6732743238    -0.7541799610
    8      C      -0.2758578682     1.2519932693     0.3451945410
    9      O      -1.6318665067     1.4889794051    -0.2046017453
   10      C      -2.4062439640     0.2858182823    -0.1725734472
   11      C      -3.8011734891     0.5576132458    -0.8551957366
   12      C      -4.8974296002    -0.4451756196    -0.3206722183
   13      C      -4.3420710922    -1.8121052159     0.2204786054
   14      O      -4.6367504863    -2.3800767932     1.2934938040
   15      O       4.4012222999    -2.5415718513    -0.3750640708
   16      O      -3.6591930140    -2.4539117351    -0.8703404103
   17      O      -2.0351669978    -0.7646141768     0.3973482986
   18      C      -3.1192529664    -3.7564277884    -0.4260297811
   19      C      -4.3619518887     1.9120514622    -0.2453352164
   20      C      -5.7663607458     2.2665188836    -0.8786611550
   21      C      -6.7240194666     1.3039352325    -0.0808152510
   22      C      -5.6694471736     0.4561650907     0.7304329424
   23      O      -4.6813197378     1.4835555869     1.1399841267
   24      H      -3.7040610137     0.5582948529    -1.9556461211
   25      H      -5.5751246988    -0.7103544925    -1.1537519568
   26      H      -3.6215561228     2.7345717496    -0.2360880177
   27      H      -6.0136810270     3.3254391517    -0.7037750577
   28      H      -5.7862044587     2.0760472657    -1.9640598923
   29      H      -7.3741614286     1.8664609771     0.6086228604
   30      H      -7.3546681373     0.6830298226    -0.7370036497
   31      H      -6.0532838472    -0.0950397210     1.6110319731
   32      O       2.7113989286    -0.0082107414    -2.3540308052
   33      C       3.4114332550    -3.6361558233    -0.2431670048
   34      C       5.2885890620     0.5637134367     1.5149114436
   35      C       6.5780031023     1.4510955145     1.3020672134
   36      C       6.0142246060     2.5878137250     0.3706588810
   37      C       4.5076358500     2.1375211845     0.2176291359
   38      O       4.1854919662     1.5500309551     1.5380481521
   39      H       5.9496083535    -0.6937476581    -0.2353433569
   40      H       5.1078087180     1.0275333478    -1.6446810894
   41      H       2.4144289352    -3.3299525335    -0.6211285412
   42      H       5.2787361545    -0.0467868402     2.4384701136
   43      H       6.9301815521     1.8547089518     2.2646587749
   44      H       7.3993833866     0.8850175951     0.8345696273
   45      H       6.0714223134     3.5741043727     0.8578766901
   46      H       6.5341213383     2.6423394790    -0.5991439789
   47      H       3.7936971422     2.9457077919    -0.0313878191
   48      H       3.3023168112    -3.9652746139     0.8104058248
   49      H       3.7970217374    -4.4722470976    -0.8549943281
   50      H      -2.6932345558    -4.2369201061    -1.3261113658
   51      H      -3.9102512389    -4.4042478657     0.0042936118
   52      H      -2.3215710707    -3.6205662868     0.3330012055
   53      H      -0.3178496831     0.5654205558     1.2163406027
   54      H       0.0973976575     2.2442555881     0.6704144400
   55      H       0.5621717143    -0.4276713794    -0.8450303424
   56      H       0.4503141983     1.1315933214    -1.7408364601
 ----------------------------------------------------------------

    9   -1510.2773322686      6.10E-09 Convergence criterion met
 Total energy in the final basis set = -1510.27733227
 Final energy is   -1510.27733226863
 **  OPTIMIZATION CONVERGED  **

                    Orbital Energies (a.u.)
 --------------------------------------------------------------

 Alpha MOs
 -- Occupied --
-18.940 -18.936 -18.934 -18.916 -18.888 -18.884 -18.883 -18.875
-18.874 -18.861 -10.104 -10.100 -10.097 -10.090 -10.073 -10.072
-10.063 -10.061 -10.060 -10.057 -10.055 -10.052 -10.039 -10.039
-10.038 -10.031 -10.021 -10.020 -10.019 -10.017  -1.019  -1.014
 -1.008  -0.996  -0.970  -0.967  -0.943  -0.937  -0.934  -0.923
 -0.764  -0.761  -0.728  -0.722  -0.713  -0.704  -0.693  -0.663
 -0.652  -0.615  -0.596  -0.579  -0.548  -0.542  -0.538  -0.535
 -0.516  -0.507  -0.484  -0.480  -0.461  -0.455  -0.453  -0.442
 -0.433  -0.430  -0.428  -0.412  -0.409  -0.403  -0.400  -0.397
 -0.392  -0.387  -0.371  -0.364  -0.361  -0.357  -0.349  -0.348
 -0.345  -0.338  -0.333  -0.332  -0.330  -0.329  -0.321  -0.311
 -0.308  -0.307  -0.304  -0.298  -0.297  -0.281  -0.278  -0.275
 -0.271  -0.257  -0.254  -0.250  -0.242  -0.234  -0.231  -0.184
 -0.179  -0.175  -0.165  -0.157  -0.155  -0.148  -0.143  -0.143
 -0.140

          Ground-State Mulliken Net Atomic Charges

     Atom                 Charge (a.u.)
  ----------------------------------------
      1 O                    -0.209251
      2 C                     0.203530
      3 C                    -0.078755
      4 C                    -0.078423
      5 C                     0.204955
      6 O                    -0.164668
      7 C                    -0.047901
      8 C                    -0.048106
      9 O                    -0.171503
     10 C                     0.216308
     11 C                    -0.075283
     12 C                    -0.081528
     13 C                     0.215808
     14 O                    -0.217678
     15 O                    -0.168960
     16 O                    -0.175915
     17 O                    -0.206665
     18 C                    -0.128240
     19 C                     0.022601
     20 C                    -0.145723
     21 C                    -0.141748
     22 C                     0.022287
     23 O                    -0.192878
     24 H                     0.087511
     25 H                     0.082979
     26 H                     0.090140
     27 H                     0.077923
     28 H                     0.072879
     29 H                     0.077732
     30 H                     0.073008
     31 H                     0.090789
     32 O                    -0.214770
     33 C                    -0.128798
     34 C                     0.026184
     35 C                    -0.144001
     36 C                    -0.144174
     37 C                     0.026548
     38 O                    -0.183472
     39 H                     0.086790
     40 H                     0.085122
     41 H                     0.089131
     42 H                     0.084892
     43 H                     0.078231
     44 H                     0.073675
     45 H                     0.078057
     46 H                     0.073431
     47 H                     0.085451
     48 H                     0.089285
     49 H                     0.090761
     50 H                     0.085275
     51 H                     0.086983
     52 H                     0.090555
     53 H                     0.104051
     54 H                     0.096189
     55 H                     0.091949
     56 H                     0.087429
  ----------------------------------------
  Sum of atomic charges =    -0.000000

                    Cartesian Multipole Moments
 -----------------------------------------------------------------
    Charge (ESU x 10^10)
                -0.0000
    Dipole Moment (Debye)
         X       1.5643      Y       0.7090      Z      -2.4235
       Tot       2.9704
    Quadrupole Moments (Debye-Ang)
        XX    -138.5830     XY      -2.0984     YY    -151.0867
        XZ      11.6395     YZ      -1.3742     ZZ    -168.0870

 Total job time:  83.14s(wall), 3952.64s(cpu)
        *  Thank you very much for using Q-Chem.  Have a nice day.  *
