 Q-Chem 5.0, Q-Chem, Inc., Pleasanton, CA (2017)
 Q-Chem 5.0.1 for Intel X86 EM64T Linux

User input:
--------------------------------------------------------------
$molecule
0  1
O -3.94934 -3.66094 2.70899
C -3.26408 -4.56952 2.26188
C -3.36658 -6.02376 2.66595
C -2.05143 -6.77041 2.94297
C -0.79127 -5.93384 2.95822
O 0.24284 -6.66197 3.47385
C -0.178 -7.89301 4.07107
C 0.00082 -7.83117 5.58446
O -0.8913 -8.75949 6.22102
C -0.29468 -9.73585 6.94897
C 1.1896 -9.83901 6.69022
C 1.87075 -11.06814 7.30951
C 0.94371 -12.17311 7.77464
O 0.5895 -13.13096 7.10261
O -2.55719 -4.32139 1.124
O 0.61025 -12.1478 9.09337
O -0.96143 -10.42415 7.7031
C -0.17758 -13.09402 9.71497
C 1.51107 -10.31656 5.20664
C 2.84949 -9.72007 4.78952
C 3.77021 -10.52659 5.69727
C 2.77529 -11.58984 6.20438
O 1.83684 -11.68371 5.20258
H 1.79801 -8.9821 7.05222
H 2.46936 -10.772 8.20154
H 0.65266 -10.23693 4.53672
H 3.01191 -10.04437 3.73601
H 2.9709 -8.61824 4.84612
H 4.5875 -10.95565 5.07743
H 4.19081 -9.96644 6.56075
H 3.27525 -12.54117 6.49076
O -0.63059 -4.77357 2.62502
C -2.45043 -3.08368 0.52353
C -4.41306 -6.24101 3.72313
C -4.90679 -7.68591 3.69414
C -3.69025 -8.37026 4.23464
C -2.75643 -7.15939 4.37908
O -3.60844 -6.13596 4.81418
H -3.78083 -6.45237 1.72293
H -1.95581 -7.6297 2.23742
H -1.98102 -2.35916 1.22284
H -5.27064 -5.53491 3.66889
H -5.75289 -7.81728 4.40554
H -5.21328 -8.00753 2.67505
H -3.94611 -8.74453 5.25393
H -3.28582 -9.20886 3.62897
H -2.20691 -7.36904 5.22783
H -3.45408 -2.71695 0.21956
H -1.81372 -3.172 -0.38046
H -0.29053 -12.82682 10.78561
H 0.29807 -14.09548 9.64406
H -1.18399 -13.12165 9.24501
H 1.05264 -7.64065 5.83166
H -0.34533 -6.83139 5.92606
H 0.64654 -8.48616 3.67301
H -0.88751 -8.6462 3.66877
$end

$opt
CONSTRAINT
tors           1           2           3           4    -134.665
tors           3           4           5           6    +167.880
tors           4           5           6           7     -10.599
tors           5           6           7           8    -110.780
tors           6           7           8           9    +155.943
tors           7           8           9          10    +118.768
tors           8           9          10          11     -13.124
tors           9          10          11          12    -170.463
tors          11          12          13          14     +91.885
ENDCONSTRAINT
$end

$rem
JOBTYPE                   OPT
METHOD                    B3LYP
DFT_D                     d3_op
BASIS                     STO-3G
GEOM_OPT_MAX_CYCLES       100
GEOM_OPT_TOL_GRADIENT     300
GEOM_OPT_TOL_DISPLACEMENT 1200
GEOM_OPT_TOL_ENERGY       100
SYMMETRY                  False
THRESH                    12
SCF_CONVERGENCE           8
MAX_SUB_FILE_NUM          128
MEM_STATIC                400
MEM_TOTAL                 4000
$end
--------------------------------------------------------------

   15   -1509.9893633662      9.58E-09 Convergence criterion met
 Total energy in the final basis set = -1509.98936337
   14   -1510.0821442780      3.77E-09 Convergence criterion met
 Total energy in the final basis set = -1510.08214428
   14   -1510.1423659102      3.10E-09 Convergence criterion met
 Total energy in the final basis set = -1510.14236591
   14   -1510.1801467743      1.70E-09 Convergence criterion met
 Total energy in the final basis set = -1510.18014677
   14   -1510.2035306997      3.36E-09 Convergence criterion met
 Total energy in the final basis set = -1510.20353070
   14   -1510.2184350849      3.01E-09 Convergence criterion met
 Total energy in the final basis set = -1510.21843508
   13   -1510.2273967778      5.31E-09 Convergence criterion met
 Total energy in the final basis set = -1510.22739678
   13   -1510.2327026424      3.08E-09 Convergence criterion met
   11   -1510.2469436057      4.05E-09 Convergence criterion met
 Total energy in the final basis set = -1510.24694361
   10   -1510.2469506870      6.16E-09 Convergence criterion met
 Total energy in the final basis set = -1510.24695069
    9   -1510.2469540155      5.24E-09 Convergence criterion met
 Total energy in the final basis set = -1510.24695402
    9   -1510.2469576660      4.07E-09 Convergence criterion met
 Total energy in the final basis set = -1510.24695767
    9   -1510.2469597588      3.34E-09 Convergence criterion met
 Total energy in the final basis set = -1510.24695976
    9   -1510.2469607935      1.97E-09 Convergence criterion met
 Total energy in the final basis set = -1510.24696079

             Standard Nuclear Orientation (Angstroms)
    I     Atom           X                Y                Z
 ----------------------------------------------------------------
    1      O      -6.4531152798    -0.3025387515     1.0073043740
    2      C      -5.7098715536    -0.0382169387     0.0383272003
    3      C      -4.6696301921    -1.0071729908    -0.6411512311
    4      C      -3.2464836837    -0.3744432513    -0.9429758992
    5      C      -3.0118478160     0.8129839914     0.0926514824
    6      O      -1.7513526876     1.4605806651     0.3012169466
    7      C      -0.5331574156     0.8788730308    -0.2933033327
    8      C       0.3736438169     0.3105152762     0.8685896013
    9      O       1.2598794531    -0.7466861258     0.3305923604
   10      C       2.6797216726    -0.5564541622     0.4036077686
   11      C       3.3150888243     0.8479513306     0.7506066325
   12      C       4.8899532191     0.8506188955     0.5302078584
   13      C       5.4939462868    -0.4831549535    -0.0558938531
   14      O       5.6829457544    -0.7607854658    -1.2592783688
   15      O      -5.9279869054     1.0585123733    -0.8741856745
   16      O       5.9592592673    -1.2740005423     1.0495510523
   17      O       3.3642458519    -1.5680598105     0.1210544314
   18      C       6.4773752508    -2.5664770968     0.5499599535
   19      C       2.8941774073     2.0196110430    -0.2509986804
   20      C       3.2728800062     3.3976494439     0.4225012823
   21      C       4.8348722603     3.4051446430     0.2350186984
   22      C       5.0574846956     2.0309753150    -0.5103282249
   23      O       3.8550896691     1.8955806807    -1.3639836293
   24      H       3.0696621430     1.1075667021     1.7964235036
   25      H       5.4058451225     1.0642992091     1.4830249661
   26      H       1.8648714550     1.9612849162    -0.6441742499
   27      H       2.7960911176     4.2303178432    -0.1188913842
   28      H       2.9676684168     3.4449224239     1.4801836236
   29      H       5.1614806315     4.2461714668    -0.3968735586
   30      H       5.3788265939     3.4490572878     1.1920903466
   31      H       5.9745432403     1.9625439906    -1.1263812659
   32      O      -3.9346593507     1.2393536553     0.8316135552
   33      C      -6.9403239037     1.9752197652    -0.3102048799
   34      C      -4.3239184070    -2.3069528767     0.1882712296
   35      C      -4.0144331014    -3.4407682686    -0.8584459630
   36      C      -2.6918095586    -2.8708015497    -1.4926797475
   37      C      -2.3694098659    -1.6577406560    -0.5246248070
   38      O      -2.9887441059    -2.0300882677     0.7657085319
   39      H      -5.1306903709    -1.2967485790    -1.6040517090
   40      H      -3.1135273625    -0.0456607017    -1.9889895629
   41      H      -6.5739891535     2.4590414483     0.6186583673
   42      H      -5.0589514002    -2.5466325169     0.9814454323
   43      H      -3.8341585643    -4.4003023687    -0.3475191301
   44      H      -4.8233886067    -3.5726257196    -1.5943324500
   45      H      -1.8735519373    -3.6076212168    -1.4700936687
   46      H      -2.8327215698    -2.5352648802    -2.5329030240
   47      H      -1.2886483375    -1.5023343240    -0.3727459592
   48      H      -7.8897695827     1.4488411392    -0.0810213155
   49      H      -7.1214440022     2.7477856355    -1.0801940487
   50      H       6.8792238610    -3.0998239193     1.4310826545
   51      H       7.2828366364    -2.4237492575    -0.1992250437
   52      H       5.6682108901    -3.1686092940     0.0879817329
   53      H       0.9152280168     1.1345522942     1.3697381993
   54      H      -0.2877702632    -0.1763034608     1.6192778003
   55      H      -0.0125667139     1.7183275232    -0.8019856587
   56      H      -0.7223784716     0.1053609343    -1.0571262776
 ----------------------------------------------------------------

    9   -1510.2469611678      1.92E-09 Convergence criterion met
 Total energy in the final basis set = -1510.24696117
 Final energy is   -1510.24696116776
 **  OPTIMIZATION CONVERGED  **

                    Orbital Energies (a.u.)
 --------------------------------------------------------------

 Alpha MOs
 -- Occupied --
-18.953 -18.951 -18.918 -18.909 -18.897 -18.896 -18.896 -18.892
-18.857 -18.853 -10.118 -10.117 -10.095 -10.094 -10.090 -10.088
-10.072 -10.067 -10.064 -10.060 -10.052 -10.052 -10.050 -10.050
-10.038 -10.034 -10.030 -10.026 -10.025 -10.022  -1.026  -1.022
 -0.996  -0.992  -0.980  -0.977  -0.955  -0.949  -0.922  -0.918
 -0.770  -0.766  -0.731  -0.728  -0.725  -0.714  -0.707  -0.654
 -0.651  -0.623  -0.605  -0.602  -0.556  -0.551  -0.545  -0.542
 -0.531  -0.518  -0.496  -0.482  -0.467  -0.464  -0.460  -0.457
 -0.449  -0.440  -0.433  -0.416  -0.413  -0.410  -0.404  -0.400
 -0.400  -0.398  -0.388  -0.368  -0.365  -0.354  -0.352  -0.349
 -0.344  -0.339  -0.338  -0.332  -0.331  -0.327  -0.326  -0.324
 -0.318  -0.316  -0.315  -0.308  -0.305  -0.283  -0.281  -0.276
 -0.271  -0.260  -0.252  -0.243  -0.243  -0.241  -0.239  -0.199
 -0.180  -0.164  -0.163  -0.161  -0.157  -0.153  -0.150  -0.139
 -0.137

          Ground-State Mulliken Net Atomic Charges

     Atom                 Charge (a.u.)
  ----------------------------------------
      1 O                    -0.225351
      2 C                     0.218319
      3 C                    -0.080349
      4 C                    -0.081413
      5 C                     0.218733
      6 O                    -0.168031
      7 C                    -0.048111
      8 C                    -0.050988
      9 O                    -0.170721
     10 C                     0.215784
     11 C                    -0.084320
     12 C                    -0.080151
     13 C                     0.216426
     14 O                    -0.219865
     15 O                    -0.182846
     16 O                    -0.175599
     17 O                    -0.188107
     18 C                    -0.128461
     19 C                     0.021420
     20 C                    -0.144311
     21 C                    -0.144217
     22 C                     0.025906
     23 O                    -0.186227
     24 H                     0.083074
     25 H                     0.084767
     26 H                     0.075991
     27 H                     0.079579
     28 H                     0.072721
     29 H                     0.079793
     30 H                     0.075265
     31 H                     0.089790
     32 O                    -0.184998
     33 C                    -0.128764
     34 C                     0.022929
     35 C                    -0.141361
     36 C                    -0.145628
     37 C                     0.017678
     38 O                    -0.193190
     39 H                     0.082933
     40 H                     0.087812
     41 H                     0.088662
     42 H                     0.094210
     43 H                     0.079379
     44 H                     0.075133
     45 H                     0.080908
     46 H                     0.073325
     47 H                     0.083494
     48 H                     0.085869
     49 H                     0.084082
     50 H                     0.085736
     51 H                     0.086503
     52 H                     0.092234
     53 H                     0.091357
     54 H                     0.098974
     55 H                     0.086313
     56 H                     0.097911
  ----------------------------------------
  Sum of atomic charges =     0.000000

                    Cartesian Multipole Moments
 -----------------------------------------------------------------
    Charge (ESU x 10^10)
                 0.0000
    Dipole Moment (Debye)
         X       1.0634      Y       1.5305      Z      -0.5265
       Tot       1.9366
    Quadrupole Moments (Debye-Ang)
        XX    -170.8014     XY       9.1232     YY    -154.1055
        XZ      23.2267     YZ       3.4105     ZZ    -164.3796

 Total job time:  75.50s(wall), 3593.50s(cpu)
        *  Thank you very much for using Q-Chem.  Have a nice day.  *
