 Q-Chem 5.0, Q-Chem, Inc., Pleasanton, CA (2017)
 Q-Chem 5.0.1 for Intel X86 EM64T Linux

User input:
--------------------------------------------------------------
$molecule
0  1
O -6.4531152798 -0.3025387515 1.007304374
C -5.7098715536 -0.0382169387 0.0383272003
C -4.6696301921 -1.0071729908 -0.6411512311
C -3.2464836837 -0.3744432513 -0.9429758992
C -3.011847816 0.8129839914 0.0926514824
O -1.7513526876 1.4605806651 0.3012169466
C -0.5331574156 0.8788730308 -0.2933033327
C 0.3736438169 0.3105152762 0.8685896013
O 1.2598794531 -0.7466861258 0.3305923604
C 2.6797216726 -0.5564541622 0.4036077686
C 3.3150888243 0.8479513306 0.7506066325
C 4.8899532191 0.8506188955 0.5302078584
C 5.4939462868 -0.4831549535 -0.0558938531
O 5.6829457544 -0.7607854658 -1.2592783688
O -5.9279869054 1.0585123733 -0.8741856745
O 5.9592592673 -1.2740005423 1.0495510523
O 3.3642458519 -1.5680598105 0.1210544314
C 6.4773752508 -2.5664770968 0.5499599535
C 2.8941774073 2.019611043 -0.2509986804
C 3.2728800062 3.3976494439 0.4225012823
C 4.8348722603 3.405144643 0.2350186984
C 5.0574846956 2.030975315 -0.5103282249
O 3.8550896691 1.8955806807 -1.3639836293
H 3.069662143 1.1075667021 1.7964235036
H 5.4058451225 1.0642992091 1.4830249661
H 1.864871455 1.9612849162 -0.6441742499
H 2.7960911176 4.2303178432 -0.1188913842
H 2.9676684168 3.4449224239 1.4801836236
H 5.1614806315 4.2461714668 -0.3968735586
H 5.3788265939 3.4490572878 1.1920903466
H 5.9745432403 1.9625439906 -1.1263812659
O -3.9346593507 1.2393536553 0.8316135552
C -6.9403239037 1.9752197652 -0.3102048799
C -4.323918407 -2.3069528767 0.1882712296
C -4.0144331014 -3.4407682686 -0.858445963
C -2.6918095586 -2.8708015497 -1.4926797475
C -2.3694098659 -1.657740656 -0.524624807
O -2.9887441059 -2.0300882677 0.7657085319
H -5.1306903709 -1.296748579 -1.604051709
H -3.1135273625 -0.0456607017 -1.9889895629
H -6.5739891535 2.4590414483 0.6186583673
H -5.0589514002 -2.5466325169 0.9814454323
H -3.8341585643 -4.4003023687 -0.3475191301
H -4.8233886067 -3.5726257196 -1.59433245
H -1.8735519373 -3.6076212168 -1.4700936687
H -2.8327215698 -2.5352648802 -2.532903024
H -1.2886483375 -1.502334324 -0.3727459592
H -7.8897695827 1.4488411392 -0.0810213155
H -7.1214440022 2.7477856355 -1.0801940487
H 6.879223861 -3.0998239193 1.4310826545
H 7.2828366364 -2.4237492575 -0.1992250437
H 5.6682108901 -3.168609294 0.0879817329
H 0.9152280168 1.1345522942 1.3697381993
H -0.2877702632 -0.1763034608 1.6192778003
H -0.0125667139 1.7183275232 -0.8019856587
H -0.7223784716 0.1053609343 -1.0571262776
$end

$rem
JOBTYPE                   OPT
METHOD                    B3LYP
DFT_D                     d3_op
BASIS                     STO-3G
GEOM_OPT_MAX_CYCLES       100
GEOM_OPT_TOL_GRADIENT     300
GEOM_OPT_TOL_DISPLACEMENT 1200
GEOM_OPT_TOL_ENERGY       100
SYMMETRY                  False
THRESH                    12
SCF_CONVERGENCE           8
MAX_SUB_FILE_NUM          128
MEM_STATIC                400
MEM_TOTAL                 4000
$end
--------------------------------------------------------------

   16   -1510.2468464165      7.41E-09 Convergence criterion met
 Total energy in the final basis set = -1510.24684642
   14   -1510.2525666642      2.68E-09 Convergence criterion met
 Total energy in the final basis set = -1510.25256666
   14   -1510.2558395355      1.92E-09 Convergence criterion met
 Total energy in the final basis set = -1510.25583954
   14   -1510.2572436395      2.27E-09 Convergence criterion met
 Total energy in the final basis set = -1510.25724364
   13   -1510.2584811714      5.24E-09 Convergence criterion met
 Total energy in the final basis set = -1510.25848117
   13   -1510.2590601185      3.48E-09 Convergence criterion met
 Total energy in the final basis set = -1510.25906012
   13   -1510.2597692220      2.33E-09 Convergence criterion met
 Total energy in the final basis set = -1510.25976922
   13   -1510.2601099037      6.75E-09 Convergence criterion met
   11   -1510.2677815574      9.40E-09 Convergence criterion met
 Total energy in the final basis set = -1510.26778156
   11   -1510.2678069751      7.04E-09 Convergence criterion met
 Total energy in the final basis set = -1510.26780698
   12   -1510.2678811659      6.25E-09 Convergence criterion met
 Total energy in the final basis set = -1510.26788117
   11   -1510.2679216125      7.70E-09 Convergence criterion met
 Total energy in the final basis set = -1510.26792161
   10   -1510.2679216876      9.87E-09 Convergence criterion met
 Total energy in the final basis set = -1510.26792169
   10   -1510.2679234052      4.77E-09 Convergence criterion met
 Total energy in the final basis set = -1510.26792341

             Standard Nuclear Orientation (Angstroms)
    I     Atom           X                Y                Z
 ----------------------------------------------------------------
    1      O      -3.9927893742     2.3632864849     0.8456696389
    2      C      -4.0107866436     1.6033724049    -0.1450499388
    3      C      -4.0630913337     0.0271854085    -0.1346720997
    4      C      -2.7610762939    -0.7003261974    -0.6763481267
    5      C      -1.6259404649     0.3311632799    -1.0273404189
    6      O      -0.5149086816    -0.0517551679    -1.8632571846
    7      C      -0.2842298617    -1.4958656752    -2.0781944283
    8      C       0.8202438429    -2.0779334660    -1.1040259506
    9      O       2.1670740709    -1.9112226736    -1.6825915332
   10      C       3.0477651122    -0.9349762682    -1.0950432441
   11      C       2.6180755716    -0.1362669335     0.1888324954
   12      C       3.8269492224     0.6640343780     0.8276572110
   13      C       5.2259960662     0.4232324525     0.1451821564
   14      O       5.9000642690     1.2417819864    -0.5141468418
   15      O      -4.1644456483     2.0313804714    -1.5067213660
   16      O       5.6935049510    -0.8716175176     0.5620605473
   17      O       4.1427691080    -0.7783342470    -1.6825775919
   18      C       6.9788517194    -1.1743483709    -0.1032430471
   19      C       1.6423087521     1.0634543440    -0.2004164737
   20      C       1.0106835073     1.6318606920     1.1310340510
   21      C       2.2179018727     2.4527453648     1.7183015477
   22      C       3.3340144893     2.1595493707     0.6409369704
   23      O       2.5792166560     2.1193118943    -0.6329605956
   24      H       2.1680503233    -0.8131124516     0.9348731447
   25      H       3.9261349298     0.4013259900     1.8963423820
   26      H       0.9097163039     0.8155666135    -1.0003904438
   27      H       0.1465598696     2.2728563310     0.8931548273
   28      H       0.6745664256     0.8281584054     1.8058671958
   29      H       1.9923027473     3.5304224394     1.7545828834
   30      H       2.5126180030     2.1190325882     2.7262804787
   31      H       4.1563576365     2.8984231689     0.5785605448
   32      O      -1.6306620065     1.5240050784    -0.6466142069
   33      C      -4.0645783058     3.5054217494    -1.5821255022
   34      C      -4.1378193021    -0.5337592168     1.3450710198
   35      C      -4.6696597421    -2.0177708617     1.2924371987
   36      C      -3.4127407375    -2.7681498610     0.7144336407
   37      C      -2.3760473374    -1.5807897101     0.5958050210
   38      O      -2.7135865777    -0.6938085737     1.7267907695
   39      H      -4.9400632847    -0.2845430962    -0.7301703557
   40      H      -2.9997711805    -1.3233596409    -1.5554743230
   41      H      -3.0508530543     3.8519588767    -1.2935327204
   42      H      -4.6505781431     0.1432247362     2.0554204314
   43      H      -4.9209409783    -2.3738565228     2.3041835144
   44      H      -5.5585470638    -2.1190437873     0.6495143150
   45      H      -3.0406103521    -3.5348144952     1.4126117235
   46      H      -3.6121909932    -3.2444630755    -0.2589777014
   47      H      -1.3141898263    -1.8835312773     0.6523380284
   48      H      -4.8088385963     4.0010733846    -0.9260051598
   49      H      -4.2605797260     3.7738917052    -2.6365488398
   50      H       7.3122267407    -2.1495656546     0.2972117571
   51      H       7.7455922345    -0.4020830872     0.1117893695
   52      H       6.8519927281    -1.2491341485    -1.2029961352
   53      H       0.7064250614    -1.6342281316    -0.0966382425
   54      H       0.6548459993    -3.1742380843    -1.0205659892
   55      H       0.0898228360    -1.5928521751    -3.1195339055
   56      H      -1.2104791029    -2.0946130878    -1.9833693905
 ----------------------------------------------------------------

    9   -1510.2679237581      8.85E-09 Convergence criterion met
 Total energy in the final basis set = -1510.26792376
 Final energy is   -1510.26792375812
 **  OPTIMIZATION CONVERGED  **

                    Orbital Energies (a.u.)
 --------------------------------------------------------------

 Alpha MOs
 -- Occupied --
-18.963 -18.942 -18.924 -18.911 -18.907 -18.903 -18.885 -18.877
-18.867 -18.853 -10.126 -10.107 -10.099 -10.098 -10.096 -10.083
-10.080 -10.068 -10.059 -10.057 -10.048 -10.047 -10.044 -10.042
-10.036 -10.036 -10.032 -10.027 -10.010 -10.007  -1.033  -1.014
 -1.004  -0.990  -0.985  -0.962  -0.960  -0.943  -0.930  -0.917
 -0.776  -0.755  -0.735  -0.732  -0.720  -0.712  -0.696  -0.660
 -0.648  -0.625  -0.612  -0.594  -0.562  -0.551  -0.538  -0.531
 -0.526  -0.512  -0.498  -0.485  -0.473  -0.467  -0.455  -0.448
 -0.446  -0.435  -0.424  -0.421  -0.418  -0.411  -0.407  -0.405
 -0.399  -0.396  -0.387  -0.373  -0.362  -0.358  -0.357  -0.348
 -0.346  -0.341  -0.337  -0.335  -0.332  -0.325  -0.323  -0.317
 -0.316  -0.311  -0.306  -0.302  -0.294  -0.290  -0.284  -0.270
 -0.268  -0.259  -0.251  -0.249  -0.248  -0.237  -0.224  -0.203
 -0.175  -0.172  -0.169  -0.159  -0.157  -0.154  -0.148  -0.135
 -0.133

          Ground-State Mulliken Net Atomic Charges

     Atom                 Charge (a.u.)
  ----------------------------------------
      1 O                    -0.215022
      2 C                     0.217164
      3 C                    -0.079422
      4 C                    -0.083652
      5 C                     0.217894
      6 O                    -0.166715
      7 C                    -0.050204
      8 C                    -0.049421
      9 O                    -0.170269
     10 C                     0.216602
     11 C                    -0.085890
     12 C                    -0.079903
     13 C                     0.216903
     14 O                    -0.216771
     15 O                    -0.178102
     16 O                    -0.179991
     17 O                    -0.190845
     18 C                    -0.128843
     19 C                     0.006810
     20 C                    -0.147853
     21 C                    -0.144115
     22 C                     0.024896
     23 O                    -0.188830
     24 H                     0.075483
     25 H                     0.081566
     26 H                     0.099681
     27 H                     0.087771
     28 H                     0.067247
     29 H                     0.077837
     30 H                     0.070790
     31 H                     0.088533
     32 O                    -0.183996
     33 C                    -0.128806
     34 C                     0.024990
     35 C                    -0.143543
     36 C                    -0.144422
     37 C                     0.022465
     38 O                    -0.186683
     39 H                     0.084959
     40 H                     0.082385
     41 H                     0.093381
     42 H                     0.094118
     43 H                     0.080833
     44 H                     0.075698
     45 H                     0.079951
     46 H                     0.072286
     47 H                     0.074374
     48 H                     0.087930
     49 H                     0.087742
     50 H                     0.084144
     51 H                     0.085977
     52 H                     0.091891
     53 H                     0.087900
     54 H                     0.090584
     55 H                     0.104827
     56 H                     0.087684
  ----------------------------------------
  Sum of atomic charges =     0.000000

                    Cartesian Multipole Moments
 -----------------------------------------------------------------
    Charge (ESU x 10^10)
                -0.0000
    Dipole Moment (Debye)
         X      -4.6136      Y      -4.7273      Z       0.7880
       Tot       6.6523
    Quadrupole Moments (Debye-Ang)
        XX    -165.1470     XY       1.5323     YY    -156.8510
        XZ      16.7144     YZ       1.5907     ZZ    -164.0185

 Total job time:  207.74s(wall), 9906.80s(cpu)
        *  Thank you very much for using Q-Chem.  Have a nice day.  *
