 Q-Chem 5.0, Q-Chem, Inc., Pleasanton, CA (2017)
 Q-Chem 5.0.1 for Intel X86 EM64T Linux

User input:
--------------------------------------------------------------
$molecule
0  1
O -3.94934 -3.66094 2.70899
C -3.26408 -4.56952 2.26188
C -3.36658 -6.02376 2.66595
C -2.81032 -6.4104 4.04614
C -2.37514 -5.27123 4.94114
O -3.44978 -4.78625 5.6306
C -3.1289 -3.66021 6.4542
C -4.23147 -3.42992 7.48251
O -3.70355 -2.72368 8.61627
C -3.40615 -1.41784 8.40305
C -1.92355 -1.16749 8.262
C -1.47115 0.25699 8.61479
C -2.47259 1.09761 9.38108
O -3.1721 1.97854 8.90233
O -2.41966 -4.29782 1.23184
O -2.7338 0.70863 10.65937
O -4.20781 -0.68396 7.84008
C -3.6675 1.30245 11.48253
C -1.00488 -1.97589 9.21324
C 0.38544 -2.10084 8.59013
C 0.88244 -0.67306 8.71415
C -0.26635 -0.05201 9.51797
O -0.75211 -1.11773 10.29898
H -1.65075 -1.42125 7.21545
H -1.21572 0.83057 7.69609
H -1.39044 -2.98533 9.47064
H 0.98525 -2.74469 9.27315
H 0.42085 -2.52917 7.56523
H 1.82659 -0.67987 9.30253
H 1.03439 -0.13803 7.75163
H 0.07796 0.84708 10.07515
O -1.31488 -4.67381 4.79838
C -2.22567 -3.04189 0.69589
C -4.81723 -6.52141 2.76675
C -4.86207 -8.03841 2.58739
C -4.2589 -8.49535 3.89954
C -4.05851 -7.14655 4.59952
O -5.13201 -6.36598 4.12755
H -2.8267 -6.60038 1.87995
H -1.95275 -7.11782 3.99855
H -1.83593 -2.35064 1.47356
H -5.49927 -6.02419 2.04261
H -5.93326 -8.34184 2.56509
H -4.35378 -8.41519 1.6738
H -5.02108 -9.09573 4.44469
H -3.31307 -9.07266 3.8143
H -4.00526 -7.29401 5.70091
H -3.18072 -2.64795 0.28714
H -1.48515 -3.10803 -0.12736
H -3.66671 0.78643 12.46442
H -4.68093 1.21842 11.03512
H -3.41268 2.37231 11.63984
H -5.14083 -2.96133 7.0463
H -4.52574 -4.42929 7.86917
H -2.91863 -2.75196 5.8495
H -2.22456 -3.92526 7.05274
$end

$opt
CONSTRAINT
tors           1           2           3           4     -73.743
tors           3           4           5           6     +85.075
tors           4           5           6           7    -177.174
tors           5           6           7           8    -163.428
tors           6           7           8           9    +155.943
tors           7           8           9          10     +71.761
tors           8           9          10          11    -103.997
tors           9          10          11          12    -155.087
tors          11          12          13          14    -102.371
ENDCONSTRAINT
$end

$rem
JOBTYPE                   OPT
METHOD                    B3LYP
DFT_D                     d3_op
BASIS                     STO-3G
GEOM_OPT_MAX_CYCLES       100
GEOM_OPT_TOL_GRADIENT     300
GEOM_OPT_TOL_DISPLACEMENT 1200
GEOM_OPT_TOL_ENERGY       100
SYMMETRY                  False
THRESH                    12
SCF_CONVERGENCE           8
MAX_SUB_FILE_NUM          128
MEM_STATIC                400
MEM_TOTAL                 4000
$end
--------------------------------------------------------------

   15   -1510.1183719658      7.61E-09 Convergence criterion met
 Total energy in the final basis set = -1510.11837197
   14   -1510.1892190310      6.43E-09 Convergence criterion met
 Total energy in the final basis set = -1510.18921903
   15   -1510.2276890726      1.61E-09 Convergence criterion met
 Total energy in the final basis set = -1510.22768907
   14   -1510.2461293935      6.28E-09 Convergence criterion met
 Total energy in the final basis set = -1510.24612939
   14   -1510.2541626916      4.04E-09 Convergence criterion met
 Total energy in the final basis set = -1510.25416269
   14   -1510.2582802268      2.28E-09 Convergence criterion met
 Total energy in the final basis set = -1510.25828023
   13   -1510.2605513206      6.99E-09 Convergence criterion met
 Total energy in the final basis set = -1510.26055132
   13   -1510.2617975755      2.34E-09 Convergence criterion met
   11   -1510.2632624323      9.09E-09 Convergence criterion met
 Total energy in the final basis set = -1510.26326243
   11   -1510.2633054821      4.04E-09 Convergence criterion met
 Total energy in the final basis set = -1510.26330548
   11   -1510.2633266160      6.03E-09 Convergence criterion met
 Total energy in the final basis set = -1510.26332662
   11   -1510.2633385727      2.12E-09 Convergence criterion met
 Total energy in the final basis set = -1510.26333857
   10   -1510.2633339646      6.12E-09 Convergence criterion met
 Total energy in the final basis set = -1510.26333396
   10   -1510.2633378883      5.76E-09 Convergence criterion met
 Total energy in the final basis set = -1510.26333789

             Standard Nuclear Orientation (Angstroms)
    I     Atom           X                Y                Z
 ----------------------------------------------------------------
    1      O      -2.9514012354     0.7924284475     1.8304076376
    2      C      -3.8449732610     1.2142581398     1.0645759723
    3      C      -4.8303604325     0.3798959534     0.1766765068
    4      C      -4.1265993994    -0.2642620234    -1.1000305164
    5      C      -2.5925013828     0.0583573985    -1.1555960297
    6      O      -1.8857285264    -0.9019005238    -0.3665867715
    7      C      -0.4388286730    -0.5804180011    -0.3461116407
    8      C       0.3091225262    -1.8738509262     0.1529190271
    9      O       1.7146546921    -1.9186267299    -0.2966770989
   10      C       2.4999657399    -0.9264012646     0.4352505253
   11      C       2.8204945931     0.3427359379    -0.4401913342
   12      C       4.1173896391     1.1386734694     0.0051668886
   13      C       4.7973156599     0.5896597405     1.3110196489
   14      O       4.7161319604     1.0825338852     2.4570438435
   15      O      -4.1193011018     2.6035509796     0.8445767321
   16      O       5.5758302483    -0.5652109913     0.9781736458
   17      O       2.8841340844    -1.1168661095     1.6072295587
   18      C       6.1465672976    -1.1561370400     2.2089250937
   19      C       3.2049690453    -0.0668936221    -1.9236877361
   20      C       3.1420462922     1.2174032944    -2.8395585827
   21      C       4.4532154025     1.9681923122    -2.3997820649
   22      C       5.0141267806     0.9839356270    -1.2982201578
   23      O       4.6538402784    -0.3545880890    -1.8206045582
   24      H       1.9264931933     0.9925050456    -0.4199949308
   25      H       3.8667219310     2.1974476008     0.1945956332
   26      H       2.6504259287    -0.9522455906    -2.2906583520
   27      H       3.1766097990     0.9318223669    -3.9029118421
   28      H       2.2306144197     1.8117210751    -2.6639783081
   29      H       5.1671191282     2.0554011284    -3.2342532698
   30      H       4.2549074139     2.9746997514    -1.9980283914
   31      H       6.1043121515     1.0477252320    -1.1175372284
   32      O      -2.0448512771     1.0040854321    -1.7647437773
   33      C      -3.1794471844     3.4360783031     1.6307949302
   34      C      -5.3543466418    -0.9263207724     0.9160790802
   35      C      -6.6281664122    -1.4459101125     0.1401940146
   36      C      -5.9665784698    -2.0540329849    -1.1515362492
   37      C      -4.4331555555    -1.8015620074    -0.8599113889
   38      O      -4.3258554892    -1.9448359970     0.6100832007
   39      H      -5.6612879417     1.0404456351    -0.1270038328
   40      H      -4.5869383062     0.1135509212    -2.0301816331
   41      H      -2.1249010987     3.2291840319     1.3567369305
   42      H      -5.4754078936    -0.8168738968     2.0111688562
   43      H      -7.1474512879    -2.2185319129     0.7293747077
   44      H      -7.3397435287    -0.6354920316    -0.0847979764
   45      H      -6.1695113353    -3.1329220925    -1.2418977780
   46      H      -6.2984571805    -1.5529147568    -2.0748232641
   47      H      -3.7352741611    -2.4938287497    -1.3685813998
   48      H      -3.2988683473     3.2679724774     2.7207916627
   49      H      -3.4256264084     4.4862631287     1.3891073636
   50      H       6.7238693330    -2.0409193283     1.8833879442
   51      H       5.3464254351    -1.4701882328     2.9100549542
   52      H       6.8183573911    -0.4458497083     2.7332554659
   53      H       0.2202093295    -1.9605236924     1.2587339757
   54      H      -0.1792938077    -2.7586072584    -0.3063983132
   55      H      -0.2498533809     0.2787678953     0.3334390771
   56      H      -0.0878761567    -0.3021169521    -1.3639857096
 ----------------------------------------------------------------

    9   -1510.2633388387      8.90E-09 Convergence criterion met
 Total energy in the final basis set = -1510.26333884
 Final energy is   -1510.26333883874
 **  OPTIMIZATION CONVERGED  **

                    Orbital Energies (a.u.)
 --------------------------------------------------------------

 Alpha MOs
 -- Occupied --
-18.940 -18.937 -18.922 -18.913 -18.910 -18.891 -18.886 -18.878
-18.877 -18.861 -10.114 -10.103 -10.101 -10.090 -10.076 -10.074
-10.067 -10.063 -10.063 -10.058 -10.058 -10.053 -10.042 -10.040
-10.040 -10.033 -10.023 -10.022 -10.020 -10.018  -1.019  -1.015
 -1.012  -0.998  -0.972  -0.969  -0.946  -0.939  -0.938  -0.924
 -0.767  -0.762  -0.728  -0.722  -0.715  -0.706  -0.697  -0.666
 -0.651  -0.616  -0.600  -0.581  -0.551  -0.545  -0.540  -0.536
 -0.518  -0.511  -0.489  -0.479  -0.465  -0.463  -0.450  -0.443
 -0.435  -0.433  -0.425  -0.415  -0.412  -0.406  -0.404  -0.400
 -0.398  -0.389  -0.374  -0.365  -0.364  -0.359  -0.353  -0.351
 -0.344  -0.343  -0.336  -0.334  -0.330  -0.329  -0.325  -0.311
 -0.310  -0.309  -0.307  -0.302  -0.295  -0.285  -0.284  -0.280
 -0.276  -0.260  -0.254  -0.250  -0.242  -0.237  -0.232  -0.183
 -0.180  -0.166  -0.166  -0.164  -0.160  -0.151  -0.146  -0.144
 -0.140

          Ground-State Mulliken Net Atomic Charges

     Atom                 Charge (a.u.)
  ----------------------------------------
      1 O                    -0.210745
      2 C                     0.203786
      3 C                    -0.079076
      4 C                    -0.078059
      5 C                     0.205251
      6 O                    -0.163703
      7 C                    -0.052456
      8 C                    -0.046199
      9 O                    -0.191975
     10 C                     0.224586
     11 C                    -0.081418
     12 C                    -0.081995
     13 C                     0.210959
     14 O                    -0.216697
     15 O                    -0.168630
     16 O                    -0.170012
     17 O                    -0.175311
     18 C                    -0.127931
     19 C                     0.022692
     20 C                    -0.144752
     21 C                    -0.143934
     22 C                     0.026421
     23 O                    -0.186682
     24 H                     0.084100
     25 H                     0.082529
     26 H                     0.090890
     27 H                     0.078401
     28 H                     0.073727
     29 H                     0.077805
     30 H                     0.073356
     31 H                     0.085869
     32 O                    -0.216811
     33 C                    -0.128705
     34 C                     0.026178
     35 C                    -0.143629
     36 C                    -0.144371
     37 C                     0.026641
     38 O                    -0.183144
     39 H                     0.087029
     40 H                     0.085805
     41 H                     0.088874
     42 H                     0.085210
     43 H                     0.078636
     44 H                     0.073881
     45 H                     0.078486
     46 H                     0.073560
     47 H                     0.085338
     48 H                     0.089047
     49 H                     0.091429
     50 H                     0.088992
     51 H                     0.093165
     52 H                     0.085793
     53 H                     0.090133
     54 H                     0.095248
     55 H                     0.082802
     56 H                     0.089615
  ----------------------------------------
  Sum of atomic charges =    -0.000000

                    Cartesian Multipole Moments
 -----------------------------------------------------------------
    Charge (ESU x 10^10)
                -0.0000
    Dipole Moment (Debye)
         X      -2.8821      Y       1.4957      Z      -1.7324
       Tot       3.6803
    Quadrupole Moments (Debye-Ang)
        XX    -146.4824     XY       4.2188     YY    -157.8781
        XZ      -0.6184     YZ       1.3559     ZZ    -164.3273

 Total job time:  56.77s(wall), 2700.81s(cpu)
        *  Thank you very much for using Q-Chem.  Have a nice day.  *
