 Q-Chem 5.0, Q-Chem, Inc., Pleasanton, CA (2017)
 Q-Chem 5.0.1 for Intel X86 EM64T Linux

User input:
--------------------------------------------------------------
$molecule
0  1
O -2.9514012354 0.7924284475 1.8304076376
C -3.844973261 1.2142581398 1.0645759723
C -4.8303604325 0.3798959534 0.1766765068
C -4.1265993994 -0.2642620234 -1.1000305164
C -2.5925013828 0.0583573985 -1.1555960297
O -1.8857285264 -0.9019005238 -0.3665867715
C -0.438828673 -0.5804180011 -0.3461116407
C 0.3091225262 -1.8738509262 0.1529190271
O 1.7146546921 -1.9186267299 -0.2966770989
C 2.4999657399 -0.9264012646 0.4352505253
C 2.8204945931 0.3427359379 -0.4401913342
C 4.1173896391 1.1386734694 0.0051668886
C 4.7973156599 0.5896597405 1.3110196489
O 4.7161319604 1.0825338852 2.4570438435
O -4.1193011018 2.6035509796 0.8445767321
O 5.5758302483 -0.5652109913 0.9781736458
O 2.8841340844 -1.1168661095 1.6072295587
C 6.1465672976 -1.15613704 2.2089250937
C 3.2049690453 -0.0668936221 -1.9236877361
C 3.1420462922 1.2174032944 -2.8395585827
C 4.4532154025 1.9681923122 -2.3997820649
C 5.0141267806 0.983935627 -1.2982201578
O 4.6538402784 -0.354588089 -1.8206045582
H 1.9264931933 0.9925050456 -0.4199949308
H 3.866721931 2.1974476008 0.1945956332
H 2.6504259287 -0.9522455906 -2.290658352
H 3.176609799 0.9318223669 -3.9029118421
H 2.2306144197 1.8117210751 -2.6639783081
H 5.1671191282 2.0554011284 -3.2342532698
H 4.2549074139 2.9746997514 -1.9980283914
H 6.1043121515 1.047725232 -1.1175372284
O -2.0448512771 1.0040854321 -1.7647437773
C -3.1794471844 3.4360783031 1.6307949302
C -5.3543466418 -0.9263207724 0.9160790802
C -6.6281664122 -1.4459101125 0.1401940146
C -5.9665784698 -2.0540329849 -1.1515362492
C -4.4331555555 -1.8015620074 -0.8599113889
O -4.3258554892 -1.944835997 0.6100832007
H -5.6612879417 1.0404456351 -0.1270038328
H -4.5869383062 0.1135509212 -2.0301816331
H -2.1249010987 3.2291840319 1.3567369305
H -5.4754078936 -0.8168738968 2.0111688562
H -7.1474512879 -2.2185319129 0.7293747077
H -7.3397435287 -0.6354920316 -0.0847979764
H -6.1695113353 -3.1329220925 -1.241897778
H -6.2984571805 -1.5529147568 -2.0748232641
H -3.7352741611 -2.4938287497 -1.3685813998
H -3.2988683473 3.2679724774 2.7207916627
H -3.4256264084 4.4862631287 1.3891073636
H 6.723869333 -2.0409193283 1.8833879442
H 5.3464254351 -1.4701882328 2.9100549542
H 6.8183573911 -0.4458497083 2.7332554659
H 0.2202093295 -1.9605236924 1.2587339757
H -0.1792938077 -2.7586072584 -0.3063983132
H -0.2498533809 0.2787678953 0.3334390771
H -0.0878761567 -0.3021169521 -1.3639857096
$end

$rem
JOBTYPE                   OPT
METHOD                    B3LYP
DFT_D                     d3_op
BASIS                     STO-3G
GEOM_OPT_MAX_CYCLES       100
GEOM_OPT_TOL_GRADIENT     300
GEOM_OPT_TOL_DISPLACEMENT 1200
GEOM_OPT_TOL_ENERGY       100
SYMMETRY                  False
THRESH                    12
SCF_CONVERGENCE           8
MAX_SUB_FILE_NUM          128
MEM_STATIC                400
MEM_TOTAL                 4000
$end
--------------------------------------------------------------

   16   -1510.2630646484      5.33E-09 Convergence criterion met
 Total energy in the final basis set = -1510.26306465
   14   -1510.2648641637      2.37E-09 Convergence criterion met
 Total energy in the final basis set = -1510.26486416
   14   -1510.2676966665      2.74E-09 Convergence criterion met
 Total energy in the final basis set = -1510.26769667
   14   -1510.2710213049      3.14E-09 Convergence criterion met
 Total energy in the final basis set = -1510.27102130
   14   -1510.2750984832      2.97E-09 Convergence criterion met
 Total energy in the final basis set = -1510.27509848
   14   -1510.2786955384      2.63E-09 Convergence criterion met
 Total energy in the final basis set = -1510.27869554
   13   -1510.2807371985      7.28E-09 Convergence criterion met
 Total energy in the final basis set = -1510.28073720
   14   -1510.2814877219      1.93E-09 Convergence criterion met
   12   -1510.2965428419      3.51E-09 Convergence criterion met
 Total energy in the final basis set = -1510.29654284
   11   -1510.2965804928      7.88E-09 Convergence criterion met
 Total energy in the final basis set = -1510.29658049
   11   -1510.2966087346      7.68E-09 Convergence criterion met
 Total energy in the final basis set = -1510.29660873
   11   -1510.2966278698      8.30E-09 Convergence criterion met
 Total energy in the final basis set = -1510.29662787
   11   -1510.2966330780      4.37E-09 Convergence criterion met
 Total energy in the final basis set = -1510.29663308
   10   -1510.2966341593      9.22E-09 Convergence criterion met
 Total energy in the final basis set = -1510.29663416

             Standard Nuclear Orientation (Angstroms)
    I     Atom           X                Y                Z
 ----------------------------------------------------------------
    1      O      -1.2885763010     0.6180964391     1.7323076155
    2      C      -2.2541750137     1.0263228821     1.0496136146
    3      C      -3.7396574411     0.5224967512     1.1364643329
    4      C      -4.3941610527     0.1811821807    -0.2671975985
    5      C      -3.4201426199     0.3430239222    -1.4841498705
    6      O      -2.2639227031    -0.4707988432    -1.2400002759
    7      C      -1.3265301821    -0.4057843792    -2.3861120337
    8      C      -0.2441910937    -1.5203095660    -2.1126748049
    9      O       1.1445437719    -1.0819403263    -2.4009605480
   10      C       1.6108046495    -0.2146447109    -1.3672634492
   11      C       3.1138239494     0.1345514372    -1.6207062063
   12      C       3.7509635538     1.0065135102    -0.4599357884
   13      C       2.7252989797     1.4974784173     0.6330674581
   14      O       2.1537072241     2.6112172250     0.6411316850
   15      O      -2.2010384315     2.0697886257     0.0811623903
   16      O       2.6357954666     0.5278900425     1.6760224468
   17      O       0.8948701208     0.1596297722    -0.4091907685
   18      C       1.5956390376     0.9319500293     2.6532649591
   19      C       4.0129536738    -1.1743753872    -1.5437108482
   20      C       5.4498663022    -0.8333921072    -2.1039221573
   21      C       6.0618846464    -0.0230394437    -0.9017316735
   22      C       4.8419882748    -0.0028648760     0.1018975925
   23      O       4.2255034626    -1.3373097736    -0.0889718889
   24      H       3.1977975868     0.6289534833    -2.6058480183
   25      H       4.2220589899     1.9107944713    -0.8846713203
   26      H       3.5332455658    -2.0740940375    -1.9761888032
   27      H       6.0151832956    -1.7583292155    -2.3005519185
   28      H       5.4022133906    -0.2451495152    -3.0342655437
   29      H       6.9183021467    -0.5518433117    -0.4537585118
   30      H       6.3829016914     0.9907259248    -1.1897782555
   31      H       5.1029582529     0.1518892357     1.1660256423
   32      O      -3.6082982301     0.9994998730    -2.5305345306
   33      C      -0.8125156352     2.5686318464    -0.0726902328
   34      C      -3.8340607246    -0.8758911214     1.8740103599
   35      C      -5.3288552203    -1.0981844618     2.3270617452
   36      C      -6.0182921083    -1.4075185096     0.9452737485
   37      C      -4.7802117816    -1.3461952887    -0.0364011933
   38      O      -3.6580764673    -1.8593666980     0.7792044312
   39      H      -4.3314842495     1.2959620796     1.6601585494
   40      H      -5.2836245633     0.8047874465    -0.4643405983
   41      H      -0.1004665628     1.7255297902    -0.2171139467
   42      H      -3.0598985647    -1.0207564524     2.6525912121
   43      H      -5.4003974270    -1.9568089373     3.0134146860
   44      H      -5.7509916416    -0.2104468686     2.8245496903
   45      H      -6.4698116353    -2.4123069070     0.9337412432
   46      H      -6.7917129530    -0.6690638349     0.6801262837
   47      H      -4.8873871050    -1.9378387929    -0.9663908787
   48      H      -0.4948634110     3.1527962481     0.8141019491
   49      H      -0.8233275704     3.2269831361    -0.9601057800
   50      H       1.6968372054     0.2338928811     3.5041108083
   51      H       0.5720996913     0.8460682808     2.2166285717
   52      H       1.7578566641     1.9709249457     3.0042543481
   53      H      -0.3426511990    -1.8311505040    -1.0495582362
   54      H      -0.4103208150    -2.3973867075    -2.7683095384
   55      H      -0.8479932847     0.5963951455    -2.4462452078
   56      H      -1.8606048602    -0.5831938357    -3.3440431927
 ----------------------------------------------------------------

    9   -1510.2966340576      5.28E-09 Convergence criterion met
 Total energy in the final basis set = -1510.29663406
 Final energy is   -1510.29663405761
 **  OPTIMIZATION CONVERGED  **

                    Orbital Energies (a.u.)
 --------------------------------------------------------------

 Alpha MOs
 -- Occupied --
-18.949 -18.931 -18.930 -18.913 -18.895 -18.887 -18.886 -18.876
-18.872 -18.849 -10.114 -10.100 -10.098 -10.084 -10.079 -10.075
-10.061 -10.060 -10.056 -10.056 -10.043 -10.041 -10.036 -10.035
-10.031 -10.030 -10.021 -10.020 -10.018 -10.018  -1.027  -1.013
 -1.003  -0.991  -0.969  -0.968  -0.950  -0.934  -0.933  -0.916
 -0.763  -0.761  -0.729  -0.722  -0.712  -0.704  -0.696  -0.651
 -0.639  -0.618  -0.595  -0.581  -0.544  -0.544  -0.536  -0.536
 -0.518  -0.508  -0.489  -0.472  -0.462  -0.458  -0.452  -0.435
 -0.433  -0.433  -0.426  -0.415  -0.403  -0.403  -0.400  -0.396
 -0.393  -0.378  -0.368  -0.365  -0.359  -0.352  -0.347  -0.344
 -0.339  -0.336  -0.332  -0.329  -0.328  -0.325  -0.321  -0.313
 -0.308  -0.305  -0.303  -0.299  -0.290  -0.289  -0.277  -0.276
 -0.271  -0.263  -0.251  -0.244  -0.235  -0.233  -0.230  -0.192
 -0.175  -0.170  -0.166  -0.159  -0.152  -0.146  -0.144  -0.142
 -0.133

          Ground-State Mulliken Net Atomic Charges

     Atom                 Charge (a.u.)
  ----------------------------------------
      1 O                    -0.210364
      2 C                     0.221786
      3 C                    -0.078246
      4 C                    -0.078487
      5 C                     0.212997
      6 O                    -0.170654
      7 C                    -0.047584
      8 C                    -0.049627
      9 O                    -0.168725
     10 C                     0.219495
     11 C                    -0.078140
     12 C                    -0.082274
     13 C                     0.211375
     14 O                    -0.229753
     15 O                    -0.173321
     16 O                    -0.171281
     17 O                    -0.204055
     18 C                    -0.142634
     19 C                     0.025169
     20 C                    -0.144091
     21 C                    -0.143984
     22 C                     0.026213
     23 O                    -0.187457
     24 H                     0.086914
     25 H                     0.081704
     26 H                     0.086296
     27 H                     0.078236
     28 H                     0.073260
     29 H                     0.077844
     30 H                     0.073412
     31 H                     0.089011
     32 O                    -0.214460
     33 C                    -0.142034
     34 C                     0.024218
     35 C                    -0.143837
     36 C                    -0.144071
     37 C                     0.025729
     38 O                    -0.187349
     39 H                     0.084418
     40 H                     0.085163
     41 H                     0.110520
     42 H                     0.090895
     43 H                     0.077975
     44 H                     0.073238
     45 H                     0.077550
     46 H                     0.073675
     47 H                     0.080820
     48 H                     0.089097
     49 H                     0.084406
     50 H                     0.080821
     51 H                     0.113730
     52 H                     0.078870
     53 H                     0.107281
     54 H                     0.092632
     55 H                     0.088230
     56 H                     0.089443
  ----------------------------------------
  Sum of atomic charges =     0.000000

                    Cartesian Multipole Moments
 -----------------------------------------------------------------
    Charge (ESU x 10^10)
                 0.0000
    Dipole Moment (Debye)
         X      -0.2359      Y      -0.4357      Z      -1.2182
       Tot       1.3151
    Quadrupole Moments (Debye-Ang)
        XX    -140.6970     XY       4.9792     YY    -164.7459
        XZ     -12.5295     YZ       5.3588     ZZ    -155.2387

 Total job time:  200.38s(wall), 9562.81s(cpu)
        *  Thank you very much for using Q-Chem.  Have a nice day.  *
