 Q-Chem 5.0, Q-Chem, Inc., Pleasanton, CA (2017)
 Q-Chem 5.0.1 for Intel X86 EM64T Linux

User input:
--------------------------------------------------------------
$molecule
0  1
O -3.94934 -3.66094 2.70899
C -3.26408 -4.56952 2.26188
C -3.36658 -6.02376 2.66595
C -2.04979 -6.78841 2.87859
C -0.77942 -5.96833 2.83709
O -0.96777 -4.78734 3.4968
C -1.8659 -4.89889 4.60592
C -2.73041 -3.64674 4.71022
O -3.86433 -3.90374 5.55346
C -4.44582 -2.80677 6.09905
C -5.38709 -3.1416 7.23155
C -6.48873 -2.1025 7.48635
C -6.71049 -1.08995 6.38078
O -7.6457 -0.30531 6.31538
O -2.44824 -4.29628 1.20683
O -6.00438 -1.12455 5.21809
O -3.84332 -1.73564 6.14069
C -6.1917 -0.3094 4.11752
C -6.26235 -4.39714 6.988
C -6.71737 -4.97109 8.32901
C -7.70877 -3.91383 8.76776
C -7.72207 -3.01967 7.52306
O -7.46672 -3.90211 6.45839
H -4.75401 -3.32287 8.12963
H -6.32613 -1.52912 8.4249
H -5.76494 -5.19547 6.3972
H -7.27616 -5.90826 8.10449
H -5.90897 -5.19614 9.05745
H -8.69725 -4.40127 8.92026
H -7.42086 -3.33895 9.67464
H -8.67678 -2.45159 7.46496
O 0.12269 -6.1302 2.02984
C -2.26607 -3.03966 0.66875
C -4.29829 -6.63409 3.73883
C -4.7393 -8.03876 3.30106
C -3.44441 -8.82475 3.50588
C -2.51969 -7.72215 4.04799
O -3.45013 -6.96531 4.80232
H -3.78471 -6.39225 1.70053
H -1.87399 -7.47796 2.02042
H -1.85197 -2.35221 1.43708
H -5.16939 -5.98632 3.9734
H -5.49469 -8.40839 4.03076
H -5.17074 -8.0923 2.27836
H -3.61915 -9.57573 4.3087
H -3.05046 -9.34083 2.60423
H -1.66265 -8.16023 4.60277
H -3.23122 -2.64168 0.28886
H -1.54943 -3.10606 -0.17524
H -5.45506 -0.58362 3.33468
H -6.03658 0.75395 4.39876
H -7.21498 -0.44721 3.70764
H -2.07438 -3.00426 5.35355
H -2.66069 -2.73672 4.06989
H -1.10649 -4.68919 5.39953
H -1.7827 -5.71284 5.34365
$end

$opt
CONSTRAINT
tors           1           2           3           4    -137.466
tors           3           4           5           6     +41.264
tors           4           5           6           7     +33.139
tors           5           6           7           8    -142.589
tors           6           7           8           9    +163.615
tors           7           8           9          10    +158.205
tors           8           9          10          11    -165.359
tors           9          10          11          12    -155.087
tors          11          12          13          14    +169.685
ENDCONSTRAINT
$end

$rem
JOBTYPE                   OPT
METHOD                    B3LYP
DFT_D                     d3_op
BASIS                     STO-3G
GEOM_OPT_MAX_CYCLES       100
GEOM_OPT_TOL_GRADIENT     300
GEOM_OPT_TOL_DISPLACEMENT 1200
GEOM_OPT_TOL_ENERGY       100
SYMMETRY                  False
THRESH                    12
SCF_CONVERGENCE           8
MAX_SUB_FILE_NUM          128
MEM_STATIC                400
MEM_TOTAL                 4000
$end
--------------------------------------------------------------

   15   -1509.9216181081      8.87E-09 Convergence criterion met
 Total energy in the final basis set = -1509.92161811
   14   -1510.0127387267      5.35E-09 Convergence criterion met
 Total energy in the final basis set = -1510.01273873
   13   -1510.0737304885      8.58E-09 Convergence criterion met
 Total energy in the final basis set = -1510.07373049
   13   -1510.1151028173      8.14E-09 Convergence criterion met
 Total energy in the final basis set = -1510.11510282
   13   -1510.1449989010      6.57E-09 Convergence criterion met
 Total energy in the final basis set = -1510.14499890
   13   -1510.1675814016      6.49E-09 Convergence criterion met
 Total energy in the final basis set = -1510.16758140
   13   -1510.1858821062      6.32E-09 Convergence criterion met
 Total energy in the final basis set = -1510.18588211
   13   -1510.2015766314      4.42E-09 Convergence criterion met
   12   -1510.2622741378      2.40E-09 Convergence criterion met
 Total energy in the final basis set = -1510.26227414
   10   -1510.2622877207      8.33E-09 Convergence criterion met
 Total energy in the final basis set = -1510.26228772
    9   -1510.2622962372      9.54E-09 Convergence criterion met
 Total energy in the final basis set = -1510.26229624
   11   -1510.2623034120      2.70E-09 Convergence criterion met
 Total energy in the final basis set = -1510.26230341
    9   -1510.2623071698      9.51E-09 Convergence criterion met
 Total energy in the final basis set = -1510.26230717
    9   -1510.2623082915      8.89E-09 Convergence criterion met
 Total energy in the final basis set = -1510.26230829

             Standard Nuclear Orientation (Angstroms)
    I     Atom           X                Y                Z
 ----------------------------------------------------------------
    1      O      -1.2899664457    -1.3627249967    -1.4151808193
    2      C      -2.4734672503    -1.0585011415    -1.1527437867
    3      C      -3.1715274048     0.3340853608    -1.3158512882
    4      C      -4.1167633537     0.7688239185    -0.1160783815
    5      C      -4.1706955642    -0.1380908840     1.2009423136
    6      O      -3.0265374935    -0.7435748499     1.8188253067
    7      C      -1.7537370289     0.0178491769     1.7289696608
    8      C      -0.5605396368    -0.9756782292     1.5251655266
    9      O       0.5695910311    -0.1386851350     1.0491649617
   10      C       1.8224453844    -0.7861363981     1.2974698050
   11      C       2.9478274350     0.2952942673     1.1244298656
   12      C       4.3944452744    -0.2076034681     0.7461310145
   13      C       4.4864192623    -1.4675158365    -0.2007106716
   14      O       5.5360001323    -1.8817946894    -0.7421580940
   15      O      -3.4786175380    -1.9807942377    -0.7246922428
   16      O       3.1869783602    -1.9450747099    -0.5468491888
   17      O       1.9296143504    -1.9347726229     1.7779559176
   18      C       3.2874384123    -3.0356701100    -1.5418137545
   19      C       2.7128511250     1.4453159841     0.0472659250
   20      C       3.3497768217     2.7557640541     0.6499216674
   21      C       4.8746937706     2.3627467117     0.6230857488
   22      C       4.8386951281     1.0050591896    -0.1876806418
   23      O       3.6438755204     1.1279765062    -1.0610720166
   24      H       3.0127630016     0.7723487265     2.1220511080
   25      H       5.0449159337    -0.3491366156     1.6274201902
   26      H       1.6706339151     1.5278831785    -0.3164044065
   27      H       3.1462768859     3.6179586403    -0.0056000756
   28      H       2.9797165979     2.9820139223     1.6626222859
   29      H       5.4829812553     3.1141218720     0.0956352138
   30      H       5.2905715387     2.2206309189     1.6336072960
   31      H       5.7421202117     0.7913366102    -0.7918195688
   32      O      -5.2878594655    -0.4483529203     1.6779345413
   33      C      -2.9115088144    -3.3368591254    -0.5470130659
   34      C      -2.1985018370     1.5726414448    -1.4526846955
   35      C      -2.9767808423     2.7207735505    -2.1984524579
   36      C      -4.0059784528     3.1584085102    -1.0876382966
   37      C      -3.5739834200     2.2460754521     0.1258265821
   38      O      -2.1050680806     2.1106719469    -0.0710476333
   39      H      -3.7865162888     0.2512430855    -2.2321623988
   40      H      -5.1687522721     0.8022170332    -0.4485147716
   41      H      -2.2967894471    -3.3935376714     0.3744417467
   42      H      -1.1905171721     1.3253148619    -1.8402826383
   43      H      -2.2910389280     3.5435631524    -2.4566884633
   44      H      -3.4664622093     2.3651651685    -3.1189815303
   45      H      -3.8947857292     4.2236293082    -0.8302439902
   46      H      -5.0509917829     2.9733301790    -1.3834589723
   47      H      -3.7878941560     2.6612841024     1.1297710728
   48      H      -2.2870088570    -3.6347718094    -1.4131943702
   49      H      -3.7752822122    -4.0198463981    -0.4503417806
   50      H       2.2463781249    -3.3052068138    -1.7984512241
   51      H       3.8081322036    -3.9215205035    -1.1241354398
   52      H       3.8253593032    -2.7058087101    -2.4539246515
   53      H      -0.2889201116    -1.5061975281     2.4621770062
   54      H      -0.8103978213    -1.7343046230     0.7538144421
   55      H      -1.6154329352     0.5438429685     2.6991364271
   56      H      -1.7659503853     0.8038150573     0.9234385473
 ----------------------------------------------------------------

    9   -1510.2623083965      5.41E-09 Convergence criterion met
 Total energy in the final basis set = -1510.26230840
 Final energy is   -1510.26230839649
 **  OPTIMIZATION CONVERGED  **

                    Orbital Energies (a.u.)
 --------------------------------------------------------------

 Alpha MOs
 -- Occupied --
-18.945 -18.930 -18.925 -18.921 -18.920 -18.888 -18.882 -18.866
-18.862 -18.862 -10.111 -10.096 -10.092 -10.092 -10.079 -10.078
-10.069 -10.057 -10.057 -10.055 -10.054 -10.051 -10.045 -10.042
-10.036 -10.035 -10.034 -10.031 -10.018 -10.016  -1.022  -1.006
 -1.001  -0.998  -0.994  -0.966  -0.947  -0.930  -0.927  -0.922
 -0.778  -0.759  -0.735  -0.720  -0.719  -0.707  -0.687  -0.669
 -0.655  -0.609  -0.601  -0.573  -0.562  -0.553  -0.539  -0.534
 -0.523  -0.509  -0.489  -0.476  -0.472  -0.456  -0.452  -0.446
 -0.438  -0.433  -0.426  -0.417  -0.415  -0.408  -0.407  -0.402
 -0.389  -0.382  -0.375  -0.364  -0.363  -0.359  -0.355  -0.353
 -0.350  -0.340  -0.336  -0.332  -0.327  -0.326  -0.320  -0.313
 -0.312  -0.306  -0.304  -0.299  -0.294  -0.292  -0.286  -0.282
 -0.268  -0.264  -0.260  -0.243  -0.238  -0.230  -0.230  -0.186
 -0.173  -0.172  -0.166  -0.162  -0.158  -0.146  -0.144  -0.141
 -0.136

          Ground-State Mulliken Net Atomic Charges

     Atom                 Charge (a.u.)
  ----------------------------------------
      1 O                    -0.209514
      2 C                     0.211013
      3 C                    -0.083592
      4 C                    -0.082428
      5 C                     0.207182
      6 O                    -0.178222
      7 C                    -0.079843
      8 C                    -0.053249
      9 O                    -0.177283
     10 C                     0.218182
     11 C                    -0.079090
     12 C                    -0.075934
     13 C                     0.212554
     14 O                    -0.220304
     15 O                    -0.166551
     16 O                    -0.163105
     17 O                    -0.216058
     18 C                    -0.125305
     19 C                     0.023875
     20 C                    -0.141367
     21 C                    -0.146155
     22 C                     0.023383
     23 O                    -0.193704
     24 H                     0.081225
     25 H                     0.085273
     26 H                     0.091470
     27 H                     0.076291
     28 H                     0.072891
     29 H                     0.077590
     30 H                     0.073218
     31 H                     0.086198
     32 O                    -0.203839
     33 C                    -0.128485
     34 C                     0.024620
     35 C                    -0.141470
     36 C                    -0.143026
     37 C                     0.023015
     38 O                    -0.181269
     39 H                     0.089030
     40 H                     0.092012
     41 H                     0.092276
     42 H                     0.098230
     43 H                     0.082638
     44 H                     0.078034
     45 H                     0.082253
     46 H                     0.078896
     47 H                     0.088703
     48 H                     0.092211
     49 H                     0.095439
     50 H                     0.092335
     51 H                     0.088524
     52 H                     0.090404
     53 H                     0.087541
     54 H                     0.085851
     55 H                     0.071460
     56 H                     0.115979
  ----------------------------------------
  Sum of atomic charges =    -0.000000

                    Cartesian Multipole Moments
 -----------------------------------------------------------------
    Charge (ESU x 10^10)
                 0.0000
    Dipole Moment (Debye)
         X      -1.2937      Y       2.6972      Z      -1.6978
       Tot       3.4396
    Quadrupole Moments (Debye-Ang)
        XX    -172.4776     XY      -0.0074     YY    -150.6612
        XZ      17.7704     YZ       5.4143     ZZ    -159.1522

 Total job time:  83.31s(wall), 3968.60s(cpu)
        *  Thank you very much for using Q-Chem.  Have a nice day.  *
