 Q-Chem 5.0, Q-Chem, Inc., Pleasanton, CA (2017)
 Q-Chem 5.0.1 for Intel X86 EM64T Linux

User input:
--------------------------------------------------------------
$molecule
0  1
O -1.2899664457 -1.3627249967 -1.4151808193
C -2.4734672503 -1.0585011415 -1.1527437867
C -3.1715274048 0.3340853608 -1.3158512882
C -4.1167633537 0.7688239185 -0.1160783815
C -4.1706955642 -0.138090884 1.2009423136
O -3.0265374935 -0.7435748499 1.8188253067
C -1.7537370289 0.0178491769 1.7289696608
C -0.5605396368 -0.9756782292 1.5251655266
O 0.5695910311 -0.138685135 1.0491649617
C 1.8224453844 -0.7861363981 1.297469805
C 2.947827435 0.2952942673 1.1244298656
C 4.3944452744 -0.2076034681 0.7461310145
C 4.4864192623 -1.4675158365 -0.2007106716
O 5.5360001323 -1.8817946894 -0.742158094
O -3.478617538 -1.9807942377 -0.7246922428
O 3.1869783602 -1.9450747099 -0.5468491888
O 1.9296143504 -1.9347726229 1.7779559176
C 3.2874384123 -3.03567011 -1.5418137545
C 2.712851125 1.4453159841 0.047265925
C 3.3497768217 2.7557640541 0.6499216674
C 4.8746937706 2.3627467117 0.6230857488
C 4.8386951281 1.0050591896 -0.1876806418
O 3.6438755204 1.1279765062 -1.0610720166
H 3.0127630016 0.7723487265 2.122051108
H 5.0449159337 -0.3491366156 1.6274201902
H 1.6706339151 1.5278831785 -0.3164044065
H 3.1462768859 3.6179586403 -0.0056000756
H 2.9797165979 2.9820139223 1.6626222859
H 5.4829812553 3.114121872 0.0956352138
H 5.2905715387 2.2206309189 1.633607296
H 5.7421202117 0.7913366102 -0.7918195688
O -5.2878594655 -0.4483529203 1.6779345413
C -2.9115088144 -3.3368591254 -0.5470130659
C -2.198501837 1.5726414448 -1.4526846955
C -2.9767808423 2.7207735505 -2.1984524579
C -4.0059784528 3.1584085102 -1.0876382966
C -3.57398342 2.2460754521 0.1258265821
O -2.1050680806 2.1106719469 -0.0710476333
H -3.7865162888 0.2512430855 -2.2321623988
H -5.1687522721 0.8022170332 -0.4485147716
H -2.2967894471 -3.3935376714 0.3744417467
H -1.1905171721 1.3253148619 -1.8402826383
H -2.291038928 3.5435631524 -2.4566884633
H -3.4664622093 2.3651651685 -3.1189815303
H -3.8947857292 4.2236293082 -0.8302439902
H -5.0509917829 2.973330179 -1.3834589723
H -3.787894156 2.6612841024 1.1297710728
H -2.287008857 -3.6347718094 -1.4131943702
H -3.7752822122 -4.0198463981 -0.4503417806
H 2.2463781249 -3.3052068138 -1.7984512241
H 3.8081322036 -3.9215205035 -1.1241354398
H 3.8253593032 -2.7058087101 -2.4539246515
H -0.2889201116 -1.5061975281 2.4621770062
H -0.8103978213 -1.734304623 0.7538144421
H -1.6154329352 0.5438429685 2.6991364271
H -1.7659503853 0.8038150573 0.9234385473
$end

$rem
JOBTYPE                   OPT
METHOD                    B3LYP
DFT_D                     d3_op
BASIS                     STO-3G
GEOM_OPT_MAX_CYCLES       100
GEOM_OPT_TOL_GRADIENT     300
GEOM_OPT_TOL_DISPLACEMENT 1200
GEOM_OPT_TOL_ENERGY       100
SYMMETRY                  False
THRESH                    12
SCF_CONVERGENCE           8
MAX_SUB_FILE_NUM          128
MEM_STATIC                400
MEM_TOTAL                 4000
$end
--------------------------------------------------------------

   16   -1510.2624892674      6.46E-09 Convergence criterion met
 Total energy in the final basis set = -1510.26248927
   13   -1510.2631519388      9.43E-09 Convergence criterion met
 Total energy in the final basis set = -1510.26315194
   13   -1510.2666974041      9.64E-09 Convergence criterion met
 Total energy in the final basis set = -1510.26669740
   14   -1510.2673863150      5.64E-09 Convergence criterion met
 Total energy in the final basis set = -1510.26738631
   14   -1510.2709644957      1.57E-09 Convergence criterion met
 Total energy in the final basis set = -1510.27096450
   14   -1510.2736673228      3.11E-09 Convergence criterion met
 Total energy in the final basis set = -1510.27366732
   13   -1510.2736959242      9.89E-09 Convergence criterion met
 Total energy in the final basis set = -1510.27369592
   14   -1510.2762374366      1.85E-09 Convergence criterion met
   11   -1510.2845761966      3.54E-09 Convergence criterion met
 Total energy in the final basis set = -1510.28457620
    9   -1510.2845795843      8.90E-09 Convergence criterion met
 Total energy in the final basis set = -1510.28457958
    9   -1510.2845806439      8.20E-09 Convergence criterion met
 Total energy in the final basis set = -1510.28458064
    9   -1510.2845786215      4.02E-09 Convergence criterion met
 Total energy in the final basis set = -1510.28457862
    9   -1510.2845769928      3.67E-09 Convergence criterion met
 Total energy in the final basis set = -1510.28457699
    9   -1510.2845752319      2.19E-09 Convergence criterion met
 Total energy in the final basis set = -1510.28457523

             Standard Nuclear Orientation (Angstroms)
    I     Atom           X                Y                Z
 ----------------------------------------------------------------
    1      O       1.1732709013    -2.0276599501     1.0027492701
    2      C       2.4005760694    -1.7734624420     1.0116519531
    3      C       3.1290862114    -0.4915597109     1.5488796946
    4      C       3.8440659717     0.3410649070     0.3954937871
    5      C       3.8551970386    -0.3747350173    -1.0262313169
    6      O       2.6505208730    -0.8884347111    -1.6153001485
    7      C       1.4460464697    -0.0331767021    -1.4552691039
    8      C       0.2048024084    -0.9568508092    -1.6768166133
    9      O      -0.9639416869    -0.0464316797    -1.7447201530
   10      C      -2.1733978657    -0.7531573277    -1.4620739399
   11      C      -3.3904738274     0.2476718413    -1.5220064995
   12      C      -4.0975491353     0.4683219795    -0.1153051517
   13      C      -3.4535943383    -0.3177806367     1.0739182817
   14      O      -4.0582483683    -0.9675395765     1.9553422257
   15      O       3.3988215302    -2.6601645800     0.5168145215
   16      O      -2.0340716603    -0.1664169680     1.0081535690
   17      O      -2.2380013283    -1.9855200138    -1.2593515028
   18      C      -1.3744056384    -0.9345209672     2.0909135009
   19      C      -2.9771341124     1.7341624428    -1.8851910939
   20      C      -4.2784284707     2.5291193736    -2.3012936612
   21      C      -4.9573496738     2.7583434467    -0.9007272806
   22      C      -3.9246595512     2.0424917172     0.0565754816
   23      O      -2.6164537332     2.3212057923    -0.5730408862
   24      H      -4.1160080859    -0.1597684654    -2.2500086308
   25      H      -5.1646580155     0.1870110450    -0.1541657796
   26      H      -2.1265750243     1.8093659222    -2.5884440968
   27      H      -4.0095175913     3.4837687161    -2.7805727826
   28      H      -4.9134685958     1.9533068895    -2.9933988577
   29      H      -5.0275852269     3.8303018754    -0.6562610657
   30      H      -5.9637752996     2.3149693145    -0.8346928149
   31      H      -3.9344314295     2.3936312899     1.1067776580
   32      O       4.9374608240    -0.6503408882    -1.5928570501
   33      C       2.7670152179    -3.8119560122    -0.1708758556
   34      C       2.1389039109     0.5878909191     2.1435031015
   35      C       2.9741777462     1.6322390613     2.9771259437
   36      C       3.6682313242     2.4614010935     1.8305226422
   37      C       3.1091615652     1.7425471995     0.5438904301
   38      O       1.7272234257     1.3778587581     0.9528928793
   39      H       3.8710211011    -0.8179456948     2.3002482432
   40      H       4.9150990129     0.4634235388     0.6345104292
   41      H       2.2667012666    -3.4759434624    -1.1022241414
   42      H       1.2483961861     0.1703659977     2.6497321117
   43      H       2.3035029633     2.2640318671     3.5808857910
   44      H       3.6981229454     1.1428527431     3.6480722350
   45      H       3.3486467966     3.5155401901     1.8476319628
   46      H       4.7679455230     2.4233574021     1.8821594171
   47      H       3.0872425800     2.3610114009    -0.3739483196
   48      H       2.0242102216    -4.3177928206     0.4781633197
   49      H       3.5893357063    -4.5071213703    -0.4195289024
   50      H      -0.3857543727    -1.2690680272     1.7019116989
   51      H      -1.9933509969    -1.8060277124     2.3801855308
   52      H      -1.2390646398    -0.2892515130     2.9831288871
   53      H       0.3047615575    -1.5330992132    -2.6236111090
   54      H       0.1061572703    -1.6746248361    -0.8333587382
   55      H       1.4590306996     0.7563439485    -2.2389753944
   56      H       1.3884351051     0.4571776025    -0.4463936382
 ----------------------------------------------------------------

    9   -1510.2845742916      3.35E-09 Convergence criterion met
 Total energy in the final basis set = -1510.28457429
 Final energy is   -1510.28457429164
 **  OPTIMIZATION CONVERGED  **

                    Orbital Energies (a.u.)
 --------------------------------------------------------------

 Alpha MOs
 -- Occupied --
-18.952 -18.923 -18.923 -18.921 -18.920 -18.898 -18.881 -18.878
-18.863 -18.856 -10.120 -10.102 -10.089 -10.088 -10.079 -10.078
-10.070 -10.055 -10.055 -10.055 -10.051 -10.047 -10.044 -10.036
-10.035 -10.035 -10.030 -10.029 -10.016 -10.014  -1.030  -1.004
 -1.002  -0.995  -0.994  -0.963  -0.953  -0.934  -0.924  -0.922
 -0.779  -0.756  -0.737  -0.720  -0.718  -0.705  -0.688  -0.671
 -0.645  -0.610  -0.598  -0.571  -0.565  -0.552  -0.539  -0.531
 -0.525  -0.506  -0.492  -0.478  -0.470  -0.461  -0.450  -0.449
 -0.434  -0.428  -0.424  -0.419  -0.417  -0.409  -0.408  -0.401
 -0.391  -0.382  -0.370  -0.368  -0.362  -0.360  -0.355  -0.350
 -0.345  -0.338  -0.335  -0.328  -0.327  -0.324  -0.323  -0.318
 -0.315  -0.305  -0.301  -0.298  -0.295  -0.290  -0.285  -0.280
 -0.268  -0.266  -0.259  -0.241  -0.235  -0.233  -0.227  -0.192
 -0.180  -0.176  -0.164  -0.160  -0.157  -0.149  -0.146  -0.138
 -0.135

          Ground-State Mulliken Net Atomic Charges

     Atom                 Charge (a.u.)
  ----------------------------------------
      1 O                    -0.212232
      2 C                     0.219271
      3 C                    -0.081987
      4 C                    -0.085336
      5 C                     0.207282
      6 O                    -0.185137
      7 C                    -0.074491
      8 C                    -0.051694
      9 O                    -0.171625
     10 C                     0.215387
     11 C                    -0.078069
     12 C                    -0.079604
     13 C                     0.208887
     14 O                    -0.216468
     15 O                    -0.163415
     16 O                    -0.168398
     17 O                    -0.223231
     18 C                    -0.148198
     19 C                     0.024866
     20 C                    -0.144807
     21 C                    -0.143768
     22 C                     0.025871
     23 O                    -0.186237
     24 H                     0.081816
     25 H                     0.083683
     26 H                     0.090022
     27 H                     0.076178
     28 H                     0.072336
     29 H                     0.076371
     30 H                     0.073332
     31 H                     0.081173
     32 O                    -0.196863
     33 C                    -0.128170
     34 C                     0.024708
     35 C                    -0.142385
     36 C                    -0.141947
     37 C                     0.023363
     38 O                    -0.177648
     39 H                     0.091600
     40 H                     0.090561
     41 H                     0.098830
     42 H                     0.094713
     43 H                     0.083314
     44 H                     0.077476
     45 H                     0.083393
     46 H                     0.078746
     47 H                     0.090002
     48 H                     0.093797
     49 H                     0.095864
     50 H                     0.110102
     51 H                     0.090972
     52 H                     0.071158
     53 H                     0.079058
     54 H                     0.099604
     55 H                     0.073121
     56 H                     0.114853
  ----------------------------------------
  Sum of atomic charges =    -0.000000

                    Cartesian Multipole Moments
 -----------------------------------------------------------------
    Charge (ESU x 10^10)
                 0.0000
    Dipole Moment (Debye)
         X       1.4268      Y       1.9575      Z       1.5491
       Tot       2.8752
    Quadrupole Moments (Debye-Ang)
        XX    -161.5746     XY      -4.1068     YY    -156.8633
        XZ      19.4069     YZ      -0.3729     ZZ    -155.3094

 Total job time:  132.25s(wall), 6312.31s(cpu)
        *  Thank you very much for using Q-Chem.  Have a nice day.  *
