 Q-Chem 5.0, Q-Chem, Inc., Pleasanton, CA (2017)
 Q-Chem 5.0.1 for Intel X86 EM64T Linux

User input:
--------------------------------------------------------------
$molecule
0  1
O -3.4814920418 2.3001265843 1.4629311411
C -3.559162273 1.6744378581 0.3845044363
C -4.131322791 0.2232842473 0.1796804187
C -3.1801173282 -0.8706996176 -0.4455676575
C -1.6332802903 -0.5620532584 -0.3367250105
O -1.3581023377 0.8298171744 -0.1574413447
C -0.6522838438 1.5224842435 -1.2634554918
C 0.4943350035 2.4782133422 -0.7189593003
O 1.5837255587 2.1180482343 0.2075170626
C 2.7730230201 1.5044753917 -0.3974992837
C 2.9200675165 0.1294774243 -1.1651571996
C 4.2384046448 -0.6845196228 -0.7732117879
C 4.7059703545 -0.7011055702 0.7409542517
O 5.036972337 -1.7332581874 1.3669991369
O -3.4837895774 2.3228608423 -0.9061684327
O 4.7770387829 0.6051927941 1.3085415556
O 3.8116829793 2.1938329522 -0.2590462706
C 5.2419701033 0.5183345905 2.7132787213
C 1.852704764 -1.0503239918 -1.1653415227
C 1.914343092 -1.6838366922 -2.610771808
C 3.3400851319 -2.351115576 -2.5754955119
C 3.7379521343 -2.1550894575 -1.0590714506
O 2.4431571008 -2.1259118223 -0.3384203366
H 3.0551842621 0.4539066542 -2.2157903333
H 5.0919217097 -0.3667988449 -1.4016203566
H 0.8292314703 -0.8538931799 -0.7840044103
H 1.1218535682 -2.4411227358 -2.7238752317
H 1.8090370264 -0.9374159278 -3.4147753583
H 3.2967973169 -3.4220538014 -2.8284626887
H 4.054666803 -1.858799532 -3.2549134029
H 4.4028151336 -2.9290442391 -0.6296919556
O -0.7635235528 -1.459586107 -0.3645682916
C -3.2388124646 3.7698905106 -0.7101641367
C -4.5806165351 -0.4921763089 1.5243077597
C -5.7626479822 -1.4705164063 1.1578631095
C -4.9870854292 -2.5671192922 0.3352064523
C -3.4901308484 -2.094329916 0.515859116
O -3.4741344201 -1.4264024121 1.8401381132
H -5.0047831967 0.3478504084 -0.487172171
H -3.4127041262 -1.0721743965 -1.5078125799
H -2.3026325345 3.9617635714 -0.1473300513
H -4.7590169758 0.201734584 2.3687677919
H -6.2055088266 -1.8949069385 2.0732234382
H -6.5563837986 -0.9767779603 0.5747569763
H -5.1288418132 -3.5727411158 0.7613295708
H -5.2849047108 -2.5892894594 -0.7256740944
H -2.7249591064 -2.8944097554 0.4726749177
H -4.0747527386 4.2539543285 -0.1648837849
H -3.1584538296 4.2076793815 -1.7224208773
H 5.2431853809 1.5569748611 3.0918489761
H 6.2653374033 0.0957068547 2.7796184206
H 4.5624879804 -0.10409314 3.3302978782
H 0.9146655987 2.9606456954 -1.6324501502
H -0.0347911273 3.2762903997 -0.1542240461
H -1.3996723761 2.1656436931 -1.7787347462
H -0.2418465028 0.7932380268 -1.9943734553
$end

$rem
JOBTYPE                   OPT
METHOD                    B3LYP
DFT_D                     d3_op
BASIS                     STO-3G
GEOM_OPT_MAX_CYCLES       100
GEOM_OPT_TOL_GRADIENT     300
GEOM_OPT_TOL_DISPLACEMENT 1200
GEOM_OPT_TOL_ENERGY       100
SYMMETRY                  False
THRESH                    12
SCF_CONVERGENCE           8
MAX_SUB_FILE_NUM          128
MEM_STATIC                400
MEM_TOTAL                 4000
$end
--------------------------------------------------------------

   16   -1510.2110521022      4.67E-09 Convergence criterion met
 Total energy in the final basis set = -1510.21105210
   14   -1510.2118234527      3.97E-09 Convergence criterion met
 Total energy in the final basis set = -1510.21182345
   13   -1510.2206609695      8.34E-09 Convergence criterion met
 Total energy in the final basis set = -1510.22066097
   14   -1510.2277495569      3.40E-09 Convergence criterion met
 Total energy in the final basis set = -1510.22774956
   13   -1510.2327989420      9.84E-09 Convergence criterion met
 Total energy in the final basis set = -1510.23279894
   13   -1510.2372883110      9.69E-09 Convergence criterion met
 Total energy in the final basis set = -1510.23728831
   14   -1510.2410533114      8.68E-09 Convergence criterion met
 Total energy in the final basis set = -1510.24105331
   13   -1510.2442026462      8.76E-09 Convergence criterion met
   12   -1510.2939568049      6.74E-09 Convergence criterion met
 Total energy in the final basis set = -1510.29395680
   12   -1510.2939662534      3.49E-09 Convergence criterion met
 Total energy in the final basis set = -1510.29396625
   11   -1510.2939790289      9.74E-09 Convergence criterion met
 Total energy in the final basis set = -1510.29397903
   11   -1510.2939807369      9.21E-09 Convergence criterion met
 Total energy in the final basis set = -1510.29398074
   11   -1510.2939823817      4.99E-09 Convergence criterion met
 Total energy in the final basis set = -1510.29398238
   10   -1510.2939902175      7.24E-09 Convergence criterion met
 Total energy in the final basis set = -1510.29399022

             Standard Nuclear Orientation (Angstroms)
    I     Atom           X                Y                Z
 ----------------------------------------------------------------
    1      O      -2.7325801171     1.5134677442     1.2312629962
    2      C      -3.4629239979     1.3162556753     0.2357597790
    3      C      -3.6618905469    -0.0197170086    -0.5667140936
    4      C      -2.6854272118    -0.2515777295    -1.7979316400
    5      C      -1.5080344434     0.7796864932    -1.9640251744
    6      O      -1.9141077675     2.0652712517    -1.4771378971
    7      C      -0.7322646147     2.9260486746    -1.2281321097
    8      C      -0.1371033054     2.5642116954     0.1818007877
    9      O       0.2044323663     1.1226312408     0.1801660411
   10      C       1.6019749877     0.9370507337    -0.0590590465
   11      C       1.8972883877    -0.5823233342    -0.3097776050
   12      C       3.3417750920    -1.0060821663     0.1915307774
   13      C       4.2201670740     0.1895102442     0.7029570219
   14      O       4.2889555431     0.6464659539     1.8639419275
   15      O      -4.4037115758     2.2723466502    -0.2762200480
   16      O       5.0275802470     0.6411502715    -0.3946059650
   17      O       2.4358663604     1.8714022499    -0.0690166586
   18      C       5.7959475364     1.8381491997     0.0115680971
   19      C       0.9819690739    -1.5387700373     0.5566049256
   20      C       1.1809540165    -3.0227109542     0.0454965357
   21      C       2.5699096719    -3.3950969827     0.6821251361
   22      C       2.9607635696    -2.0230088286     1.3538789481
   23      O       1.6660760155    -1.5208636226     1.8710488206
   24      H       1.7719060113    -0.7630493429    -1.3944693221
   25      H       3.8965708319    -1.5087530568    -0.6203145737
   26      H      -0.0852521828    -1.2302200822     0.6250910166
   27      H       0.3716461741    -3.6668760743     0.4238465540
   28      H       1.1907811676    -3.0816404414    -1.0547828362
   29      H       2.4645006263    -4.1796920586     1.4484008748
   30      H       3.3100009459    -3.7256877557    -0.0641745598
   31      H       3.7057212095    -2.0821146229     2.1708317379
   32      O      -0.4000123097     0.5377174831    -2.4894530246
   33      C      -4.2509172469     3.5589847526     0.4373518759
   34      C      -3.3298797946    -1.2957392047     0.3217068830
   35      C      -4.0522419826    -2.5445042493    -0.3186271683
   36      C      -3.1662591637    -2.7813678755    -1.5992476145
   37      C      -2.0674722027    -1.6629810511    -1.4253905077
   38      O      -1.9006369581    -1.5613649777     0.0424619525
   39      H      -4.7096795907    -0.0383224750    -0.9153527503
   40      H      -3.2514687743    -0.2900254519    -2.7473313408
   41      H      -3.2817267973     4.0413949834     0.1960903290
   42      H      -3.4876599059    -1.1512934987     1.4080264361
   43      H      -4.0076455742    -3.4061519975     0.3663600510
   44      H      -5.1069919353    -2.3379378315    -0.5604719166
   45      H      -2.7032605565    -3.7808567040    -1.5919749812
   46      H      -3.7330852557    -2.6608966790    -2.5363021135
   47      H      -1.0936878992    -1.8611792712    -1.9142132471
   48      H      -4.3136851480     3.4280942202     1.5369527778
   49      H      -5.0775749427     4.2055863371     0.0900957314
   50      H       6.4292854009     2.1068599210    -0.8538035473
   51      H       6.4369457485     1.6355783055     0.8940874349
   52      H       5.1187932282     2.6830305048     0.2530622473
   53      H       0.7691712713     3.1715726190     0.3931132864
   54      H      -0.9153968462     2.6956348991     0.9617507458
   55      H      -1.0932757592     3.9739598400    -1.2463373811
   56      H       0.0316177834     2.7725183847    -2.0200913776
 ----------------------------------------------------------------

   11   -1510.2939909228      3.69E-09 Convergence criterion met
 Total energy in the final basis set = -1510.29399092
 Final energy is   -1510.29399092282
 **  OPTIMIZATION CONVERGED  **

                    Orbital Energies (a.u.)
 --------------------------------------------------------------

 Alpha MOs
 -- Occupied --
-18.944 -18.933 -18.930 -18.914 -18.899 -18.884 -18.874 -18.870
-18.868 -18.853 -10.110 -10.100 -10.097 -10.081 -10.079 -10.066
-10.066 -10.065 -10.064 -10.048 -10.045 -10.044 -10.039 -10.033
-10.027 -10.026 -10.024 -10.021 -10.007 -10.005  -1.025  -1.009
 -1.005  -0.990  -0.979  -0.953  -0.948  -0.934  -0.932  -0.917
 -0.768  -0.750  -0.731  -0.715  -0.711  -0.703  -0.687  -0.664
 -0.647  -0.618  -0.597  -0.576  -0.549  -0.543  -0.531  -0.523
 -0.515  -0.496  -0.490  -0.472  -0.462  -0.457  -0.445  -0.441
 -0.435  -0.429  -0.419  -0.416  -0.412  -0.410  -0.398  -0.395
 -0.391  -0.382  -0.376  -0.367  -0.356  -0.353  -0.351  -0.346
 -0.341  -0.339  -0.336  -0.330  -0.326  -0.321  -0.316  -0.313
 -0.309  -0.304  -0.300  -0.293  -0.292  -0.287  -0.277  -0.269
 -0.262  -0.253  -0.251  -0.243  -0.238  -0.234  -0.216  -0.193
 -0.174  -0.169  -0.161  -0.157  -0.154  -0.152  -0.149  -0.134
 -0.128

          Ground-State Mulliken Net Atomic Charges

     Atom                 Charge (a.u.)
  ----------------------------------------
      1 O                    -0.222288
      2 C                     0.219087
      3 C                    -0.080429
      4 C                    -0.077355
      5 C                     0.219714
      6 O                    -0.171339
      7 C                    -0.051052
      8 C                    -0.058514
      9 O                    -0.167524
     10 C                     0.217939
     11 C                    -0.077850
     12 C                    -0.082119
     13 C                     0.211827
     14 O                    -0.218389
     15 O                    -0.170484
     16 O                    -0.172568
     17 O                    -0.215565
     18 C                    -0.128058
     19 C                     0.011563
     20 C                    -0.145209
     21 C                    -0.143981
     22 C                     0.024579
     23 O                    -0.191415
     24 H                     0.088969
     25 H                     0.082294
     26 H                     0.113393
     27 H                     0.075615
     28 H                     0.066863
     29 H                     0.074881
     30 H                     0.070191
     31 H                     0.083240
     32 O                    -0.213627
     33 C                    -0.128079
     34 C                     0.027210
     35 C                    -0.143161
     36 C                    -0.144358
     37 C                     0.026010
     38 O                    -0.187807
     39 H                     0.085865
     40 H                     0.086949
     41 H                     0.082230
     42 H                     0.090054
     43 H                     0.079590
     44 H                     0.074762
     45 H                     0.079382
     46 H                     0.074634
     47 H                     0.089863
     48 H                     0.089669
     49 H                     0.089177
     50 H                     0.085187
     51 H                     0.085726
     52 H                     0.091197
     53 H                     0.101207
     54 H                     0.105281
     55 H                     0.089725
     56 H                     0.097299
  ----------------------------------------
  Sum of atomic charges =    -0.000000

                    Cartesian Multipole Moments
 -----------------------------------------------------------------
    Charge (ESU x 10^10)
                 0.0000
    Dipole Moment (Debye)
         X      -3.2157      Y       0.0151      Z      -2.8565
       Tot       4.3012
    Quadrupole Moments (Debye-Ang)
        XX    -149.2506     XY      -1.6875     YY    -144.2818
        XZ      -2.1146     YZ       1.6168     ZZ    -166.7959

 Total job time:  169.78s(wall), 8090.32s(cpu)
        *  Thank you very much for using Q-Chem.  Have a nice day.  *
