 Q-Chem 5.0, Q-Chem, Inc., Pleasanton, CA (2017)
 Q-Chem 5.0.1 for Intel X86 EM64T Linux

User input:
--------------------------------------------------------------
$molecule
0  1
O -3.94934 -3.66094 2.70899
C -3.26408 -4.56952 2.26188
C -3.36658 -6.02376 2.66595
C -2.10227 -6.68446 3.23939
C -0.9276 -5.77079 3.51043
O -1.03855 -4.63663 2.75758
C -0.01506 -4.51807 1.76377
C 0.52185 -3.09093 1.72984
O 0.9123 -2.6834 3.05057
C 2.159 -3.0573 3.43149
C 2.32375 -4.5561 3.51583
C 3.11303 -5.05292 4.73586
C 3.30639 -4.04653 5.85232
O 3.11421 -4.26043 7.04054
O -2.77927 -4.38655 1.00123
O 3.92164 -2.8762 5.53884
O 3.10386 -2.30727 3.23995
C 4.22302 -1.8773 6.44168
C 1.44084 -5.62298 4.03255
C 1.69773 -6.97608 3.28416
C 2.86883 -7.44448 4.10486
C 2.784 -6.41178 5.23302
O 1.50217 -6.08997 5.36703
H 2.83347 -4.89383 2.58257
H 4.16975 -5.11657 4.37998
H 0.83503 -4.73253 4.21732
H 0.84098 -7.6482 3.51416
H 1.88294 -7.01632 2.1906
H 2.70208 -8.49078 4.44269
H 3.85331 -7.35061 3.59584
H 3.3335 -6.69915 6.15651
O -0.95456 -5.59689 4.73336
C -2.95082 -3.23935 0.25109
C -4.383 -6.28753 3.80007
C -4.91407 -7.71512 3.69473
C -3.68838 -8.49969 4.10559
C -2.74683 -7.35291 4.49575
O -3.60688 -6.34697 4.96896
H -3.72682 -6.55899 1.75737
H -1.6952 -7.4853 2.58421
H -2.53501 -2.35976 0.78319
H -5.23453 -5.57308 3.81428
H -5.69053 -7.82919 4.48517
H -5.35099 -7.99719 2.71277
H -3.95077 -9.11969 4.99153
H -3.24401 -9.13822 3.31186
H -1.98535 -7.72991 5.2141
H -4.03104 -3.07099 0.05575
H -2.42714 -3.35733 -0.71904
H 4.71696 -1.0409 5.90651
H 4.91355 -2.26048 7.22193
H 3.29288 -1.49863 6.91513
H 1.33221 -2.95451 0.97873
H -0.3142 -2.42712 1.43402
H -0.4608 -4.68046 0.76364
H 0.74544 -5.2868 1.73426
$end

$opt
CONSTRAINT
tors           1           2           3           4    -121.531
tors           3           4           5           6     -21.975
tors           4           5           6           7    -113.674
tors           5           6           7           8    -136.412
tors           6           7           8           9     +52.444
tors           7           8           9          10     +84.108
tors           8           9          10          11     -63.724
tors           9          10          11          12    -137.996
tors          11          12          13          14    +132.480
ENDCONSTRAINT
$end

$rem
JOBTYPE                   OPT
METHOD                    B3LYP
DFT_D                     d3_op
BASIS                     STO-3G
GEOM_OPT_MAX_CYCLES       100
GEOM_OPT_TOL_GRADIENT     300
GEOM_OPT_TOL_DISPLACEMENT 1200
GEOM_OPT_TOL_ENERGY       100
SYMMETRY                  False
THRESH                    12
SCF_CONVERGENCE           8
MAX_SUB_FILE_NUM          128
MEM_STATIC                400
MEM_TOTAL                 4000
$end
--------------------------------------------------------------

   16   -1509.7552646394      4.49E-09 Convergence criterion met
 Total energy in the final basis set = -1509.75526464
   14   -1509.8645141648      5.52E-09 Convergence criterion met
 Total energy in the final basis set = -1509.86451416
   14   -1509.9500913880      4.08E-09 Convergence criterion met
 Total energy in the final basis set = -1509.95009139
   14   -1510.0150330454      2.15E-09 Convergence criterion met
 Total energy in the final basis set = -1510.01503305
   14   -1510.0639693659      5.17E-09 Convergence criterion met
 Total energy in the final basis set = -1510.06396937
   14   -1510.1006585355      5.17E-09 Convergence criterion met
 Total energy in the final basis set = -1510.10065854
   13   -1510.1281758385      9.35E-09 Convergence criterion met
 Total energy in the final basis set = -1510.12817584
   13   -1510.1488889933      7.47E-09 Convergence criterion met
   10   -1510.2110399506      9.30E-09 Convergence criterion met
 Total energy in the final basis set = -1510.21103995
   10   -1510.2110435638      7.05E-09 Convergence criterion met
 Total energy in the final basis set = -1510.21104356
   10   -1510.2110462874      6.07E-09 Convergence criterion met
 Total energy in the final basis set = -1510.21104629
   10   -1510.2110473338      5.45E-09 Convergence criterion met
 Total energy in the final basis set = -1510.21104733
   10   -1510.2110493527      5.18E-09 Convergence criterion met
 Total energy in the final basis set = -1510.21104935
   10   -1510.2110510605      4.97E-09 Convergence criterion met
 Total energy in the final basis set = -1510.21105106

             Standard Nuclear Orientation (Angstroms)
    I     Atom           X                Y                Z
 ----------------------------------------------------------------
    1      O      -3.4814920418     2.3001265843     1.4629311411
    2      C      -3.5591622730     1.6744378581     0.3845044363
    3      C      -4.1313227910     0.2232842473     0.1796804187
    4      C      -3.1801173282    -0.8706996176    -0.4455676575
    5      C      -1.6332802903    -0.5620532584    -0.3367250105
    6      O      -1.3581023377     0.8298171744    -0.1574413447
    7      C      -0.6522838438     1.5224842435    -1.2634554918
    8      C       0.4943350035     2.4782133422    -0.7189593003
    9      O       1.5837255587     2.1180482343     0.2075170626
   10      C       2.7730230201     1.5044753917    -0.3974992837
   11      C       2.9200675165     0.1294774243    -1.1651571996
   12      C       4.2384046448    -0.6845196228    -0.7732117879
   13      C       4.7059703545    -0.7011055702     0.7409542517
   14      O       5.0369723370    -1.7332581874     1.3669991369
   15      O      -3.4837895774     2.3228608423    -0.9061684327
   16      O       4.7770387829     0.6051927941     1.3085415556
   17      O       3.8116829793     2.1938329522    -0.2590462706
   18      C       5.2419701033     0.5183345905     2.7132787213
   19      C       1.8527047640    -1.0503239918    -1.1653415227
   20      C       1.9143430920    -1.6838366922    -2.6107718080
   21      C       3.3400851319    -2.3511155760    -2.5754955119
   22      C       3.7379521343    -2.1550894575    -1.0590714506
   23      O       2.4431571008    -2.1259118223    -0.3384203366
   24      H       3.0551842621     0.4539066542    -2.2157903333
   25      H       5.0919217097    -0.3667988449    -1.4016203566
   26      H       0.8292314703    -0.8538931799    -0.7840044103
   27      H       1.1218535682    -2.4411227358    -2.7238752317
   28      H       1.8090370264    -0.9374159278    -3.4147753583
   29      H       3.2967973169    -3.4220538014    -2.8284626887
   30      H       4.0546668030    -1.8587995320    -3.2549134029
   31      H       4.4028151336    -2.9290442391    -0.6296919556
   32      O      -0.7635235528    -1.4595861070    -0.3645682916
   33      C      -3.2388124646     3.7698905106    -0.7101641367
   34      C      -4.5806165351    -0.4921763089     1.5243077597
   35      C      -5.7626479822    -1.4705164063     1.1578631095
   36      C      -4.9870854292    -2.5671192922     0.3352064523
   37      C      -3.4901308484    -2.0943299160     0.5158591160
   38      O      -3.4741344201    -1.4264024121     1.8401381132
   39      H      -5.0047831967     0.3478504084    -0.4871721710
   40      H      -3.4127041262    -1.0721743965    -1.5078125799
   41      H      -2.3026325345     3.9617635714    -0.1473300513
   42      H      -4.7590169758     0.2017345840     2.3687677919
   43      H      -6.2055088266    -1.8949069385     2.0732234382
   44      H      -6.5563837986    -0.9767779603     0.5747569763
   45      H      -5.1288418132    -3.5727411158     0.7613295708
   46      H      -5.2849047108    -2.5892894594    -0.7256740944
   47      H      -2.7249591064    -2.8944097554     0.4726749177
   48      H      -4.0747527386     4.2539543285    -0.1648837849
   49      H      -3.1584538296     4.2076793815    -1.7224208773
   50      H       5.2431853809     1.5569748611     3.0918489761
   51      H       6.2653374033     0.0957068547     2.7796184206
   52      H       4.5624879804    -0.1040931400     3.3302978782
   53      H       0.9146655987     2.9606456954    -1.6324501502
   54      H      -0.0347911273     3.2762903997    -0.1542240461
   55      H      -1.3996723761     2.1656436931    -1.7787347462
   56      H      -0.2418465028     0.7932380268    -1.9943734553
 ----------------------------------------------------------------

    9   -1510.2110517999      7.42E-09 Convergence criterion met
 Total energy in the final basis set = -1510.21105180
 Final energy is   -1510.21105179991
 **  OPTIMIZATION CONVERGED  **

                    Orbital Energies (a.u.)
 --------------------------------------------------------------

 Alpha MOs
 -- Occupied --
-18.935 -18.928 -18.927 -18.925 -18.916 -18.889 -18.884 -18.871
-18.870 -18.862 -10.131 -10.100 -10.096 -10.090 -10.089 -10.079
-10.066 -10.063 -10.060 -10.054 -10.048 -10.046 -10.040 -10.034
-10.033 -10.032 -10.024 -10.022 -10.013 -10.011  -1.031  -1.007
 -1.005  -0.996  -0.973  -0.961  -0.957  -0.933  -0.929  -0.923
 -0.768  -0.753  -0.731  -0.716  -0.713  -0.707  -0.693  -0.665
 -0.654  -0.613  -0.601  -0.591  -0.551  -0.542  -0.537  -0.530
 -0.518  -0.505  -0.494  -0.470  -0.468  -0.463  -0.455  -0.439
 -0.438  -0.431  -0.428  -0.419  -0.412  -0.407  -0.403  -0.400
 -0.396  -0.391  -0.381  -0.374  -0.369  -0.365  -0.350  -0.348
 -0.346  -0.338  -0.331  -0.330  -0.328  -0.323  -0.321  -0.314
 -0.311  -0.307  -0.302  -0.298  -0.292  -0.289  -0.280  -0.276
 -0.266  -0.257  -0.249  -0.241  -0.237  -0.227  -0.217  -0.187
 -0.176  -0.175  -0.168  -0.164  -0.150  -0.147  -0.145  -0.141
 -0.129

          Ground-State Mulliken Net Atomic Charges

     Atom                 Charge (a.u.)
  ----------------------------------------
      1 O                    -0.216226
      2 C                     0.217268
      3 C                    -0.081692
      4 C                    -0.077311
      5 C                     0.238084
      6 O                    -0.186403
      7 C                    -0.045987
      8 C                    -0.047917
      9 O                    -0.171986
     10 C                     0.204181
     11 C                    -0.084614
     12 C                    -0.072974
     13 C                     0.209247
     14 O                    -0.216020
     15 O                    -0.182066
     16 O                    -0.162310
     17 O                    -0.175508
     18 C                    -0.126951
     19 C                    -0.000067
     20 C                    -0.144190
     21 C                    -0.146888
     22 C                     0.021964
     23 O                    -0.191867
     24 H                     0.078876
     25 H                     0.083242
     26 H                     0.105619
     27 H                     0.074827
     28 H                     0.063063
     29 H                     0.076559
     30 H                     0.070032
     31 H                     0.090110
     32 O                    -0.175827
     33 C                    -0.130790
     34 C                     0.023434
     35 C                    -0.142221
     36 C                    -0.145353
     37 C                     0.023703
     38 O                    -0.189343
     39 H                     0.083570
     40 H                     0.086674
     41 H                     0.086474
     42 H                     0.092113
     43 H                     0.079388
     44 H                     0.072985
     45 H                     0.079995
     46 H                     0.072690
     47 H                     0.090444
     48 H                     0.088315
     49 H                     0.084885
     50 H                     0.092354
     51 H                     0.087405
     52 H                     0.090847
     53 H                     0.076473
     54 H                     0.088842
     55 H                     0.098407
     56 H                     0.082439
  ----------------------------------------
  Sum of atomic charges =    -0.000000

                    Cartesian Multipole Moments
 -----------------------------------------------------------------
    Charge (ESU x 10^10)
                -0.0000
    Dipole Moment (Debye)
         X      -3.3063      Y       0.9265      Z      -4.8246
       Tot       5.9217
    Quadrupole Moments (Debye-Ang)
        XX    -151.0296     XY       1.7127     YY    -162.4419
        XZ       2.2912     YZ      -1.3029     ZZ    -155.7964

 Total job time:  123.29s(wall), 5874.88s(cpu)
        *  Thank you very much for using Q-Chem.  Have a nice day.  *
