 Q-Chem 5.0, Q-Chem, Inc., Pleasanton, CA (2017)
 Q-Chem 5.0.1 for Intel X86 EM64T Linux

User input:
--------------------------------------------------------------
$molecule
0  1
O -4.497071264 1.3672722771 2.7708693407
C -3.8260622452 1.2367677839 1.7216815211
C -4.3929506155 0.6870245766 0.3616148758
C -3.4682069411 0.0085408027 -0.7419574734
C -2.0328760278 -0.4877025668 -0.2988628111
O -1.8077439506 -1.7978176716 -0.8547582438
C -0.5102680994 -2.3324017871 -0.3861827752
C 0.5792896993 -2.231132144 -1.5181474188
O 1.2160119646 -0.8943181013 -1.5170625565
C 2.2805352267 -0.8445345175 -0.5573877888
C 2.7467122393 0.6572854264 -0.422335723
C 4.2385567425 0.7806182764 0.0732146359
C 4.7730259626 -0.3659986623 1.0023583593
O 5.9361452328 -0.8232822853 1.0338895403
O -2.5362066287 1.8147141268 1.5358628966
O 3.7958002616 -0.5955796697 2.0278124783
O 2.7654576311 -1.8606984728 -0.0147817254
C 4.2760875125 -1.640108368 2.9579381107
C 2.9242062078 1.2022834163 -1.9037987873
C 3.4069433664 2.7075616008 -1.9003667709
C 4.9462488549 2.5449841077 -1.6071290098
C 5.0142244152 1.0011314359 -1.2944795609
O 4.1210571643 0.4315745501 -2.3323826931
H 2.0264967716 1.2258109183 0.1933842012
H 4.3247722839 1.6996358298 0.6842133037
H 2.0625733492 0.9785773688 -2.5608411758
H 3.2244176633 3.1753273516 -2.8805034348
H 2.8897804747 3.2987403804 -1.1273329044
H 5.5499602494 2.7820016124 -2.4980626114
H 5.292697309 3.1658410604 -0.765653064
H 6.0184495324 0.5358112611 -1.3345579658
O -1.1671951216 0.1048649738 0.3782599032
C -2.0683095563 2.4293674074 2.800047875
C -5.5104804479 -0.4250944859 0.5675787578
C -6.5619838699 -0.2630038964 -0.5955725154
C -5.7088003896 -0.7526461102 -1.8243602002
C -4.3823943424 -1.2380056396 -1.1133022782
O -4.8316670072 -1.6951619123 0.2239951259
H -4.8607089979 1.5749620645 -0.1074890298
H -3.3294123584 0.6966625734 -1.5969719329
H -1.9449409245 1.6706804473 3.5993816451
H -5.9238081487 -0.4568840156 1.5948876797
H -7.4302282308 -0.918921312 -0.4219710915
H -6.9170711882 0.7742991934 -0.7026240571
H -6.1935706775 -1.5917977117 -2.3478185057
H -5.5147799158 0.0507511068 -2.5532427252
H -3.8326608604 -2.0448997515 -1.6322796324
H -2.7692498735 3.2103208345 3.1599791748
H -1.0878340931 2.8839303215 2.5685060893
H 3.5373842274 -1.683178153 3.7793935074
H 5.27812737 -1.3967039298 3.3666139876
H 4.3281742997 -2.6284745764 2.456927092
H 1.3480910341 -3.0178444107 -1.3582268678
H 0.1085997597 -2.3573805129 -2.5138341375
H -0.6811561272 -3.398580543 -0.1296554757
H -0.1708668576 -1.7700397073 0.5093271799
$end

$rem
JOBTYPE                   OPT
METHOD                    B3LYP
DFT_D                     d3_op
BASIS                     STO-3G
GEOM_OPT_MAX_CYCLES       100
GEOM_OPT_TOL_GRADIENT     300
GEOM_OPT_TOL_DISPLACEMENT 1200
GEOM_OPT_TOL_ENERGY       100
SYMMETRY                  False
THRESH                    12
SCF_CONVERGENCE           8
MAX_SUB_FILE_NUM          128
MEM_STATIC                400
MEM_TOTAL                 4000
$end
--------------------------------------------------------------

   16   -1510.2649016711      4.79E-09 Convergence criterion met
 Total energy in the final basis set = -1510.26490167
   13   -1510.2687740823      4.25E-09 Convergence criterion met
 Total energy in the final basis set = -1510.26877408
   13   -1510.2720007127      5.34E-09 Convergence criterion met
 Total energy in the final basis set = -1510.27200071
   13   -1510.2747265541      5.52E-09 Convergence criterion met
 Total energy in the final basis set = -1510.27472655
   13   -1510.2772753150      6.42E-09 Convergence criterion met
 Total energy in the final basis set = -1510.27727532
   14   -1510.2798229651      1.39E-09 Convergence criterion met
 Total energy in the final basis set = -1510.27982297
   14   -1510.2822039308      1.57E-09 Convergence criterion met
 Total energy in the final basis set = -1510.28220393
   14   -1510.2853757116      5.17E-09 Convergence criterion met
   12   -1510.3023654875      8.97E-09 Convergence criterion met
 Total energy in the final basis set = -1510.30236549
   13   -1510.3025114669      3.00E-09 Convergence criterion met
 Total energy in the final basis set = -1510.30251147
   12   -1510.3025736902      5.70E-09 Convergence criterion met
 Total energy in the final basis set = -1510.30257369
   12   -1510.3026017342      2.72E-09 Convergence criterion met
 Total energy in the final basis set = -1510.30260173
   11   -1510.3026047631      9.54E-09 Convergence criterion met
 Total energy in the final basis set = -1510.30260476
   10   -1510.3026135581      7.82E-09 Convergence criterion met
 Total energy in the final basis set = -1510.30261356

             Standard Nuclear Orientation (Angstroms)
    I     Atom           X                Y                Z
 ----------------------------------------------------------------
    1      O       2.5700165820    -2.3252175668     0.8970818619
    2      C       2.0041557509    -1.6058732166     0.0468509783
    3      C       2.6618758608    -0.4613351999    -0.8092774819
    4      C       2.4704623567     0.9966969617    -0.2245844039
    5      C       1.6330527394     1.0036685373     1.0947982124
    6      O       1.6434212177     2.3178340409     1.6595352612
    7      C       0.5732201320     2.4150555246     2.6829406193
    8      C      -0.7797777712     2.7743390469     1.9547846931
    9      O      -0.8395249835     2.0435443451     0.6675210224
   10      C      -1.6046885452     0.8352061934     0.7937316601
   11      C      -1.5244871504     0.0508506837    -0.5582101477
   12      C      -2.7111457993    -0.9817058675    -0.7240683568
   13      C      -3.4926881043    -1.2709265018     0.6043976500
   14      O      -4.6337513137    -0.8929915495     0.9385031524
   15      O       0.6646035872    -1.8362519822    -0.4407977852
   16      O      -2.6881852690    -2.1921775229     1.3674801552
   17      O      -2.2270263963     0.5169605832     1.8314333161
   18      C      -3.2814013675    -2.4131667641     2.7023870703
   19      C      -1.8216143073     1.0260830073    -1.7672799256
   20      C      -1.5750333307     0.2622352413    -3.1293901670
   21      C      -2.8822677401    -0.6096639961    -3.2377763032
   22      C      -3.5721451331    -0.2795744671    -1.8576451774
   23      O      -3.2971035166     1.1673920294    -1.6918335454
   24      H      -0.5407595567    -0.4809623330    -0.6088687873
   25      H      -2.3140304191    -1.9465790713    -1.0850318693
   26      H      -1.3310712679     2.0142362851    -1.6768789721
   27      H      -1.4892585246     0.9735337235    -3.9660955889
   28      H      -0.6608414662    -0.3518955762    -3.0902286911
   29      H      -3.5184974781    -0.2774327358    -4.0737434273
   30      H      -2.6711668846    -1.6843007065    -3.3572197317
   31      H      -4.6604101305    -0.4758639637    -1.7997446029
   32      O       1.0450403631     0.0189377201     1.6010488039
   33      C       0.0224133415    -2.9394376698     0.3195187093
   34      C       4.2446218418    -0.5831887592    -0.7807711164
   35      C       4.8351004526     0.2865264823    -1.9591683682
   36      C       4.6326789330     1.7413822597    -1.3929876267
   37      C       3.9785367141     1.4341879082     0.0111595804
   38      O       4.6277794440     0.1736166501     0.4343056474
   39      H       2.2605679488    -0.5269171055    -1.8361365586
   40      H       1.9646475886     1.6634876058    -0.9469788388
   41      H      -0.9172451280    -2.5740585788     0.7969286660
   42      H       4.6175877847    -1.6236383069    -0.7179300504
   43      H       5.9020738680     0.0568585556    -2.1084878232
   44      H       4.3012324531     0.1187038119    -2.9083899974
   45      H       5.5949345459     2.2616674958    -1.2632286377
   46      H       3.9789961082     2.3600631081    -2.0285086436
   47      H       4.1048061298     2.2213002787     0.7795647449
   48      H       0.7374691591    -3.3072872813     1.0811951023
   49      H      -0.2185208148    -3.7554957440    -0.3898674928
   50      H      -2.6557985246    -3.1789746980     3.1966773224
   51      H      -4.3276470672    -2.7738004690     2.6290582195
   52      H      -3.2663129873    -1.4772680849     3.2977872436
   53      H      -1.6461050359     2.4983468224     2.5932114776
   54      H      -0.8108010417     3.8533789484     1.7041549443
   55      H       0.8669964286     3.2174669232     3.3879827077
   56      H       0.4740321457     1.4474771442     3.2187386957
 ----------------------------------------------------------------

    9   -1510.3026144778      9.03E-09 Convergence criterion met
 Total energy in the final basis set = -1510.30261448
 Final energy is   -1510.30261447776
 **  OPTIMIZATION CONVERGED  **

                    Orbital Energies (a.u.)
 --------------------------------------------------------------

 Alpha MOs
 -- Occupied --
-18.945 -18.939 -18.927 -18.926 -18.890 -18.889 -18.885 -18.880
-18.869 -18.866 -10.112 -10.105 -10.097 -10.094 -10.079 -10.077
-10.064 -10.061 -10.057 -10.054 -10.053 -10.045 -10.039 -10.034
-10.027 -10.023 -10.022 -10.021 -10.017 -10.016  -1.030  -1.014
 -1.002  -1.000  -0.973  -0.964  -0.951  -0.941  -0.929  -0.928
 -0.767  -0.758  -0.730  -0.722  -0.714  -0.705  -0.695  -0.656
 -0.649  -0.621  -0.598  -0.578  -0.548  -0.542  -0.540  -0.533
 -0.518  -0.504  -0.488  -0.476  -0.463  -0.458  -0.455  -0.448
 -0.437  -0.430  -0.427  -0.422  -0.409  -0.408  -0.403  -0.399
 -0.389  -0.382  -0.374  -0.367  -0.365  -0.357  -0.350  -0.348
 -0.344  -0.336  -0.334  -0.331  -0.330  -0.327  -0.321  -0.317
 -0.311  -0.309  -0.305  -0.301  -0.297  -0.284  -0.278  -0.274
 -0.273  -0.259  -0.252  -0.246  -0.239  -0.237  -0.227  -0.195
 -0.178  -0.171  -0.165  -0.164  -0.159  -0.151  -0.147  -0.145
 -0.139

          Ground-State Mulliken Net Atomic Charges

     Atom                 Charge (a.u.)
  ----------------------------------------
      1 O                    -0.213234
      2 C                     0.220259
      3 C                    -0.082040
      4 C                    -0.078519
      5 C                     0.219718
      6 O                    -0.169516
      7 C                    -0.053613
      8 C                    -0.053967
      9 O                    -0.177240
     10 C                     0.218391
     11 C                    -0.094366
     12 C                    -0.083772
     13 C                     0.218645
     14 O                    -0.213148
     15 O                    -0.180494
     16 O                    -0.176399
     17 O                    -0.210310
     18 C                    -0.126814
     19 C                     0.020831
     20 C                    -0.145148
     21 C                    -0.142352
     22 C                     0.023129
     23 O                    -0.193335
     24 H                     0.115381
     25 H                     0.083747
     26 H                     0.085413
     27 H                     0.075105
     28 H                     0.073691
     29 H                     0.076451
     30 H                     0.072630
     31 H                     0.086659
     32 O                    -0.209792
     33 C                    -0.152602
     34 C                     0.025911
     35 C                    -0.144173
     36 C                    -0.143639
     37 C                     0.025002
     38 O                    -0.187555
     39 H                     0.082986
     40 H                     0.089142
     41 H                     0.109282
     42 H                     0.088544
     43 H                     0.078855
     44 H                     0.073248
     45 H                     0.078944
     46 H                     0.073736
     47 H                     0.088451
     48 H                     0.097589
     49 H                     0.073212
     50 H                     0.088314
     51 H                     0.088611
     52 H                     0.094382
     53 H                     0.102554
     54 H                     0.089796
     55 H                     0.092361
     56 H                     0.101057
  ----------------------------------------
  Sum of atomic charges =    -0.000000

                    Cartesian Multipole Moments
 -----------------------------------------------------------------
    Charge (ESU x 10^10)
                 0.0000
    Dipole Moment (Debye)
         X       1.3404      Y       1.0867      Z      -1.6828
       Tot       2.4103
    Quadrupole Moments (Debye-Ang)
        XX    -175.5581     XY      10.4164     YY    -153.0831
        XZ      -7.6622     YZ       6.3977     ZZ    -151.1659

 Total job time:  149.31s(wall), 7120.27s(cpu)
        *  Thank you very much for using Q-Chem.  Have a nice day.  *
