 Q-Chem 5.0, Q-Chem, Inc., Pleasanton, CA (2017)
 Q-Chem 5.0.1 for Intel X86 EM64T Linux

User input:
--------------------------------------------------------------
$molecule
0  1
O -3.94934 -3.66094 2.70899
C -3.26408 -4.56952 2.26188
C -3.36658 -6.02376 2.66595
C -2.11631 -6.89703 2.47081
C -0.84972 -6.17925 2.06015
O 0.20441 -6.64055 2.79597
C 1.42699 -5.94712 2.52448
C 2.33246 -6.80287 1.64473
O 1.98958 -6.61687 0.26245
C 2.55644 -5.54189 -0.3394
C 1.98286 -5.26364 -1.70843
C 2.91875 -4.50449 -2.66031
C 4.37694 -4.45209 -2.25086
O 5.32931 -4.46661 -3.01723
O -2.76464 -4.34613 1.01914
O 4.65969 -3.87882 -1.0541
O 2.92133 -4.60339 0.35629
C 5.92583 -3.61508 -0.56775
C 1.70427 -6.52734 -2.56097
C 0.63047 -6.2126 -3.60096
C 1.39818 -5.29642 -4.53005
C 2.79834 -5.39304 -3.91238
O 2.8483 -6.68549 -3.36204
H 1.01693 -4.73369 -1.54405
H 2.59198 -3.45468 -2.8269
H 1.39709 -7.41908 -1.97407
H 0.41702 -7.16444 -4.13883
H -0.32172 -5.79828 -3.20507
H 1.37765 -5.73617 -5.55184
H 1.04385 -4.24305 -4.55877
H 3.56899 -5.16054 -4.67961
O -0.70084 -5.62546 0.97889
C -2.71819 -3.11831 0.38889
C -3.6074 -6.19812 4.18054
C -4.31647 -7.52385 4.4385
C -3.20297 -8.4985 4.12968
C -2.03998 -7.52595 3.88879
O -2.32979 -6.43077 4.71959
H -4.24453 -6.42583 2.11137
H -2.2856 -7.67385 1.6926
H -2.10879 -2.40708 0.98661
H -4.18593 -5.36784 4.64109
H -4.53356 -7.56623 5.53026
H -5.2592 -7.68439 3.8725
H -3.02295 -9.11991 5.0352
H -3.37458 -9.15296 3.24778
H -1.0911 -8.0635 4.09895
H -3.74416 -2.71465 0.2532
H -2.24806 -3.24006 -0.6084
H 5.83967 -3.15586 0.43815
H 6.4579 -2.907 -1.23828
H 6.50414 -4.55981 -0.48098
H 3.39989 -6.52436 1.80964
H 2.24882 -7.87266 1.93192
H 1.92889 -5.86471 3.51187
H 1.30868 -4.89425 2.18289
$end

$opt
CONSTRAINT
tors           1           2           3           4    -155.438
tors           3           4           5           6    +135.418
tors           4           5           6           7    -176.227
tors           5           6           7           8    -103.494
tors           6           7           8           9     +85.056
tors           7           8           9          10     +84.108
tors           8           9          10          11    -170.241
tors           9          10          11          12    -155.087
tors          11          12          13          14    +145.553
ENDCONSTRAINT
$end

$rem
JOBTYPE                   OPT
METHOD                    B3LYP
DFT_D                     d3_op
BASIS                     STO-3G
GEOM_OPT_MAX_CYCLES       100
GEOM_OPT_TOL_GRADIENT     300
GEOM_OPT_TOL_DISPLACEMENT 1200
GEOM_OPT_TOL_ENERGY       100
SYMMETRY                  False
THRESH                    12
SCF_CONVERGENCE           8
MAX_SUB_FILE_NUM          128
MEM_STATIC                400
MEM_TOTAL                 4000
$end
--------------------------------------------------------------

   15   -1510.0977669341      9.05E-09 Convergence criterion met
 Total energy in the final basis set = -1510.09776693
   14   -1510.1737613861      1.80E-09 Convergence criterion met
 Total energy in the final basis set = -1510.17376139
   13   -1510.2158922383      9.28E-09 Convergence criterion met
 Total energy in the final basis set = -1510.21589224
   14   -1510.2372600739      2.29E-09 Convergence criterion met
 Total energy in the final basis set = -1510.23726007
   13   -1510.2487520153      9.11E-09 Convergence criterion met
 Total energy in the final basis set = -1510.24875202
   13   -1510.2545906340      5.60E-09 Convergence criterion met
 Total energy in the final basis set = -1510.25459063
   13   -1510.2577638606      3.27E-09 Convergence criterion met
 Total energy in the final basis set = -1510.25776386
   13   -1510.2590632706      3.75E-09 Convergence criterion met
   12   -1510.2651492252      3.86E-09 Convergence criterion met
 Total energy in the final basis set = -1510.26514923
   12   -1510.2651675047      3.51E-09 Convergence criterion met
 Total energy in the final basis set = -1510.26516750
   11   -1510.2651754528      4.04E-09 Convergence criterion met
 Total energy in the final basis set = -1510.26517545
   11   -1510.2651797105      1.50E-09 Convergence criterion met
 Total energy in the final basis set = -1510.26517971
   11   -1510.2651830881      1.53E-09 Convergence criterion met
 Total energy in the final basis set = -1510.26518309
    9   -1510.2651844999      5.76E-09 Convergence criterion met
 Total energy in the final basis set = -1510.26518450

             Standard Nuclear Orientation (Angstroms)
    I     Atom           X                Y                Z
 ----------------------------------------------------------------
    1      O      -4.4970712640     1.3672722771     2.7708693407
    2      C      -3.8260622452     1.2367677839     1.7216815211
    3      C      -4.3929506155     0.6870245766     0.3616148758
    4      C      -3.4682069411     0.0085408027    -0.7419574734
    5      C      -2.0328760278    -0.4877025668    -0.2988628111
    6      O      -1.8077439506    -1.7978176716    -0.8547582438
    7      C      -0.5102680994    -2.3324017871    -0.3861827752
    8      C       0.5792896993    -2.2311321440    -1.5181474188
    9      O       1.2160119646    -0.8943181013    -1.5170625565
   10      C       2.2805352267    -0.8445345175    -0.5573877888
   11      C       2.7467122393     0.6572854264    -0.4223357230
   12      C       4.2385567425     0.7806182764     0.0732146359
   13      C       4.7730259626    -0.3659986623     1.0023583593
   14      O       5.9361452328    -0.8232822853     1.0338895403
   15      O      -2.5362066287     1.8147141268     1.5358628966
   16      O       3.7958002616    -0.5955796697     2.0278124783
   17      O       2.7654576311    -1.8606984728    -0.0147817254
   18      C       4.2760875125    -1.6401083680     2.9579381107
   19      C       2.9242062078     1.2022834163    -1.9037987873
   20      C       3.4069433664     2.7075616008    -1.9003667709
   21      C       4.9462488549     2.5449841077    -1.6071290098
   22      C       5.0142244152     1.0011314359    -1.2944795609
   23      O       4.1210571643     0.4315745501    -2.3323826931
   24      H       2.0264967716     1.2258109183     0.1933842012
   25      H       4.3247722839     1.6996358298     0.6842133037
   26      H       2.0625733492     0.9785773688    -2.5608411758
   27      H       3.2244176633     3.1753273516    -2.8805034348
   28      H       2.8897804747     3.2987403804    -1.1273329044
   29      H       5.5499602494     2.7820016124    -2.4980626114
   30      H       5.2926973090     3.1658410604    -0.7656530640
   31      H       6.0184495324     0.5358112611    -1.3345579658
   32      O      -1.1671951216     0.1048649738     0.3782599032
   33      C      -2.0683095563     2.4293674074     2.8000478750
   34      C      -5.5104804479    -0.4250944859     0.5675787578
   35      C      -6.5619838699    -0.2630038964    -0.5955725154
   36      C      -5.7088003896    -0.7526461102    -1.8243602002
   37      C      -4.3823943424    -1.2380056396    -1.1133022782
   38      O      -4.8316670072    -1.6951619123     0.2239951259
   39      H      -4.8607089979     1.5749620645    -0.1074890298
   40      H      -3.3294123584     0.6966625734    -1.5969719329
   41      H      -1.9449409245     1.6706804473     3.5993816451
   42      H      -5.9238081487    -0.4568840156     1.5948876797
   43      H      -7.4302282308    -0.9189213120    -0.4219710915
   44      H      -6.9170711882     0.7742991934    -0.7026240571
   45      H      -6.1935706775    -1.5917977117    -2.3478185057
   46      H      -5.5147799158     0.0507511068    -2.5532427252
   47      H      -3.8326608604    -2.0448997515    -1.6322796324
   48      H      -2.7692498735     3.2103208345     3.1599791748
   49      H      -1.0878340931     2.8839303215     2.5685060893
   50      H       3.5373842274    -1.6831781530     3.7793935074
   51      H       5.2781273700    -1.3967039298     3.3666139876
   52      H       4.3281742997    -2.6284745764     2.4569270920
   53      H       1.3480910341    -3.0178444107    -1.3582268678
   54      H       0.1085997597    -2.3573805129    -2.5138341375
   55      H      -0.6811561272    -3.3985805430    -0.1296554757
   56      H      -0.1708668576    -1.7700397073     0.5093271799
 ----------------------------------------------------------------

    9   -1510.2651841948      4.80E-09 Convergence criterion met
 Total energy in the final basis set = -1510.26518419
 Final energy is   -1510.26518419478
 **  OPTIMIZATION CONVERGED  **

                    Orbital Energies (a.u.)
 --------------------------------------------------------------

 Alpha MOs
 -- Occupied --
-18.936 -18.932 -18.932 -18.922 -18.885 -18.882 -18.880 -18.878
-18.870 -18.865 -10.101 -10.100 -10.098 -10.092 -10.073 -10.070
-10.062 -10.057 -10.056 -10.055 -10.055 -10.055 -10.042 -10.038
-10.036 -10.032 -10.020 -10.019 -10.018 -10.017  -1.017  -1.012
 -1.008  -1.000  -0.969  -0.966  -0.940  -0.936  -0.931  -0.926
 -0.762  -0.760  -0.727  -0.721  -0.712  -0.703  -0.692  -0.661
 -0.654  -0.619  -0.598  -0.579  -0.543  -0.542  -0.537  -0.534
 -0.514  -0.505  -0.482  -0.477  -0.463  -0.455  -0.448  -0.447
 -0.431  -0.429  -0.422  -0.418  -0.408  -0.407  -0.404  -0.400
 -0.394  -0.376  -0.373  -0.370  -0.364  -0.352  -0.352  -0.345
 -0.341  -0.337  -0.335  -0.331  -0.329  -0.324  -0.319  -0.313
 -0.310  -0.307  -0.306  -0.299  -0.293  -0.285  -0.277  -0.273
 -0.269  -0.254  -0.250  -0.248  -0.243  -0.233  -0.230  -0.191
 -0.179  -0.171  -0.163  -0.152  -0.151  -0.147  -0.144  -0.143
 -0.141

          Ground-State Mulliken Net Atomic Charges

     Atom                 Charge (a.u.)
  ----------------------------------------
      1 O                    -0.218381
      2 C                     0.206650
      3 C                    -0.080088
      4 C                    -0.075551
      5 C                     0.210650
      6 O                    -0.175489
      7 C                    -0.054405
      8 C                    -0.052328
      9 O                    -0.174621
     10 C                     0.217414
     11 C                    -0.074350
     12 C                    -0.081246
     13 C                     0.214698
     14 O                    -0.217078
     15 O                    -0.158163
     16 O                    -0.170708
     17 O                    -0.211162
     18 C                    -0.127450
     19 C                     0.022295
     20 C                    -0.146053
     21 C                    -0.141395
     22 C                     0.022249
     23 O                    -0.193994
     24 H                     0.092013
     25 H                     0.082832
     26 H                     0.091014
     27 H                     0.077443
     28 H                     0.073287
     29 H                     0.077396
     30 H                     0.072845
     31 H                     0.089894
     32 O                    -0.204443
     33 C                    -0.126208
     34 C                     0.022808
     35 C                    -0.142423
     36 C                    -0.146154
     37 C                     0.021987
     38 O                    -0.192640
     39 H                     0.083390
     40 H                     0.084981
     41 H                     0.089341
     42 H                     0.089803
     43 H                     0.077829
     44 H                     0.072928
     45 H                     0.077823
     46 H                     0.072166
     47 H                     0.094155
     48 H                     0.088296
     49 H                     0.091563
     50 H                     0.087155
     51 H                     0.087813
     52 H                     0.090339
     53 H                     0.097754
     54 H                     0.092377
     55 H                     0.089015
     56 H                     0.102131
  ----------------------------------------
  Sum of atomic charges =    -0.000000

                    Cartesian Multipole Moments
 -----------------------------------------------------------------
    Charge (ESU x 10^10)
                 0.0000
    Dipole Moment (Debye)
         X      -1.6440      Y       1.8947      Z      -0.8129
       Tot       2.6369
    Quadrupole Moments (Debye-Ang)
        XX    -171.0271     XY       4.4149     YY    -152.9242
        XZ      13.2802     YZ      -0.1514     ZZ    -157.9336

 Total job time:  101.00s(wall), 4817.90s(cpu)
        *  Thank you very much for using Q-Chem.  Have a nice day.  *
