 Q-Chem 5.0, Q-Chem, Inc., Pleasanton, CA (2017)
 Q-Chem 5.0.1 for Intel X86 EM64T Linux

User input:
--------------------------------------------------------------
$molecule
0  1
O -3.7694582111 2.3030704384 0.352456449
C -3.9601030003 1.5252202254 -0.6061015386
C -4.7993353817 0.1978207377 -0.6155122646
C -3.8868362765 -1.1085935692 -0.5890897094
C -2.3607771815 -0.7850988931 -0.7372109925
O -1.8115445483 -0.5024985344 0.5554971997
C -0.3825397671 -0.1284642104 0.4164475696
C 0.153769597 0.1211160075 1.8741564726
O 1.6189177306 0.014650091 2.0309438637
C 2.3157638658 0.7865764458 0.9939521307
C 2.8399105921 -0.1338139874 -0.1742433362
C 4.1226737956 0.2938296846 -0.9941715135
C 5.2657451959 1.0975149797 -0.2553015784
O 6.4297609158 1.2259447775 -0.6974105353
O -3.394483278 1.6990736723 -1.9106285902
O 4.8667213733 1.5350663562 1.0404500651
O 2.3515531179 2.0328471015 1.0108969804
C 6.001079651 2.1981518869 1.723893969
C 3.1736924449 -1.6463548988 0.1901451167
C 2.7321871085 -2.5216486474 -1.045013552
C 3.7855325502 -2.0486006438 -2.1153642546
C 4.7478916202 -1.1511040412 -1.2385412938
O 4.6507926153 -1.7307158938 0.1256898131
H 1.9963386795 -0.1315643426 -0.8907389456
H 3.8589597228 0.8166124316 -1.93129808
H 2.7936699265 -1.9652924807 1.1800888151
H 2.8478556678 -3.5930379575 -0.8146599616
H 1.6910308474 -2.3351088541 -1.3547257801
H 4.336494274 -2.8973658929 -2.5499680499
H 3.3256385216 -1.4724028088 -2.934460255
H 5.8029184194 -1.1187350588 -1.5742766959
O -1.6890885502 -0.780314799 -1.7918719716
C -2.5292623365 2.9003900794 -1.9364693195
C -5.5867037037 0.0340137867 0.7491260639
C -6.6453219154 -1.1271055664 0.5889839215
C -5.7174812619 -2.3969989056 0.6528811064
C -4.2952555185 -1.7272832017 0.8143316733
O -4.5667505825 -0.5412203864 1.6570528967
H -5.4639009858 0.1978910359 -1.4978947868
H -4.1573684642 -1.7793896712 -1.4242062951
H -1.6954808935 2.8183928326 -1.2092552777
H -5.9747375715 0.9850409405 1.1621401538
H -7.3660990774 -1.1100321315 1.4218573585
H -7.2007721154 -1.0530955998 -0.3597222401
H -5.9474769948 -3.0214471584 1.5309370009
H -5.7852568754 -3.021138999 -0.2524077295
H -3.5201456897 -2.365601967 1.2799918582
H -3.1019353128 3.8230946799 -1.7107000581
H -2.1201541225 2.959190478 -2.9617929999
H 5.6300099674 2.4676307755 2.7297498811
H 6.3188530707 3.1150837794 1.1870507272
H 6.873984232 1.520135969 1.8141851788
H -0.2183867304 1.1121379007 2.223132203
H -0.267510876 -0.6574967454 2.5438926425
H -0.2709763153 0.7787609313 -0.2155817589
H 0.1759178143 -0.9585280714 -0.0671303617
$end

$rem
JOBTYPE                   OPT
METHOD                    B3LYP
DFT_D                     d3_op
BASIS                     STO-3G
GEOM_OPT_MAX_CYCLES       100
GEOM_OPT_TOL_GRADIENT     300
GEOM_OPT_TOL_DISPLACEMENT 1200
GEOM_OPT_TOL_ENERGY       100
SYMMETRY                  False
THRESH                    12
SCF_CONVERGENCE           8
MAX_SUB_FILE_NUM          128
MEM_STATIC                400
MEM_TOTAL                 4000
$end
--------------------------------------------------------------

   16   -1510.2496040201      4.28E-09 Convergence criterion met
 Total energy in the final basis set = -1510.24960402
   14   -1510.2533256385      6.23E-09 Convergence criterion met
 Total energy in the final basis set = -1510.25332564
   13   -1510.2569007248      8.21E-09 Convergence criterion met
 Total energy in the final basis set = -1510.25690072
   13   -1510.2605851586      9.30E-09 Convergence criterion met
 Total energy in the final basis set = -1510.26058516
   13   -1510.2637600112      6.59E-09 Convergence criterion met
 Total energy in the final basis set = -1510.26376001
   13   -1510.2668928041      8.23E-09 Convergence criterion met
 Total energy in the final basis set = -1510.26689280
   13   -1510.2702811992      7.30E-09 Convergence criterion met
 Total energy in the final basis set = -1510.27028120
   14   -1510.2738547952      2.08E-09 Convergence criterion met
   11   -1510.2992635545      3.45E-09 Convergence criterion met
 Total energy in the final basis set = -1510.29926355
   11   -1510.2992702799      2.01E-09 Convergence criterion met
 Total energy in the final basis set = -1510.29927028
   10   -1510.2992733283      8.65E-09 Convergence criterion met
 Total energy in the final basis set = -1510.29927333
   11   -1510.2992766266      2.58E-09 Convergence criterion met
 Total energy in the final basis set = -1510.29927663
   11   -1510.2992767271      3.33E-09 Convergence criterion met
 Total energy in the final basis set = -1510.29927673
   10   -1510.2992716990      7.50E-09 Convergence criterion met
 Total energy in the final basis set = -1510.29927170

             Standard Nuclear Orientation (Angstroms)
    I     Atom           X                Y                Z
 ----------------------------------------------------------------
    1      O       1.2591709991    -1.0394994599     0.6873981653
    2      C       2.1306563274    -1.4255805974    -0.1321360198
    3      C       3.6754306515    -1.1773050701    -0.0417763202
    4      C       4.0921909034     0.3306547217    -0.3493180386
    5      C       2.8439533042     1.2407771854    -0.6297086473
    6      O       2.5168163041     1.9830340423     0.5510085291
    7      C       1.1976062696     2.6400225199     0.3866979567
    8      C       0.1031024628     1.7476688604     1.0934137941
    9      O      -1.2436164491     1.9432284825     0.4994856488
   10      C      -1.3919120542     1.1199264187    -0.6551130635
   11      C      -2.8375100291     1.2540799484    -1.2601336308
   12      C      -3.6524836869    -0.1099551003    -1.2029550266
   13      C      -2.8966191453    -1.2628904722    -0.4611078385
   14      O      -2.7757437262    -2.4508458716    -0.8345756143
   15      O       1.8719260995    -2.1700054355    -1.3103351523
   16      O      -2.3734879877    -0.7319539060     0.7566171691
   17      O      -0.4616462331     0.4331500185    -1.1396800404
   18      C      -1.5401068435    -1.7359860628     1.4641510662
   19      C      -3.8019225069     2.2192294204    -0.4533216211
   20      C      -5.0260350575     2.5826888843    -1.3834324136
   21      C      -5.8388718840     1.2352357321    -1.3554745480
   22      C      -4.9418664093     0.3582225350    -0.3943592727
   23      O      -4.4015417522     1.3363629982     0.5742618814
   24      H      -2.7236888628     1.5846251802    -2.3090748402
   25      H      -3.9149838429    -0.4715015195    -2.2124731602
   26      H      -3.2921893126     3.0774775614     0.0242487714
   27      H      -5.6049208751     3.4121650204    -0.9472394764
   28      H      -4.7079415451     2.8685693092    -2.3988756133
   29      H      -6.8421859510     1.3762301494    -0.9229822123
   30      H      -5.9446593318     0.7802735662    -2.3532182896
   31      H      -5.4735258742    -0.4580644814     0.1323769587
   32      O       2.2071739141     1.3131404913    -1.7045646253
   33      C       0.4105428451    -2.3225174108    -1.5415978682
   34      C       4.2298256984    -1.3430718013     1.4388481682
   35      C       5.7968491825    -1.5149485537     1.3534354406
   36      C       6.2411740497    -0.0464360556     1.0051171220
   37      C       4.8500203399     0.7034805687     0.9907455031
   38      O       4.0607201216     0.0024952252     2.0307742412
   39      H       4.1682289436    -1.8703450923    -0.7458183680
   40      H       4.7535460376     0.3737334867    -1.2331746415
   41      H      -0.0939675772    -1.3289011341    -1.4829220310
   42      H       3.6987820064    -2.1021696430     2.0451381894
   43      H       6.2006686723    -1.8396924444     2.3256605466
   44      H       6.0949272359    -2.2457165883     0.5845991654
   45      H       6.8967728531     0.3731036022     1.7845192092
   46      H       6.7588792847     0.0212090445     0.0349034492
   47      H       4.8936423629     1.7881755474     1.2041883955
   48      H      -0.0416262616    -3.0195148977    -0.8083477100
   49      H       0.3130331059    -2.7484839992    -2.5562659764
   50      H      -0.4679946518    -1.5729777713     1.1984560647
   51      H      -1.8500015081    -2.7603607163     1.1793241275
   52      H      -1.6929083711    -1.5753194065     2.5472238929
   53      H       0.4290739009     0.6826196770     1.0080560142
   54      H       0.0005107797     2.0249739862     2.1603930181
   55      H       0.9712837897     2.7245084880    -0.6985013048
   56      H       1.2666004961     3.6463506958     0.8447059893
 ----------------------------------------------------------------

   10   -1510.2992725847      5.27E-09 Convergence criterion met
 Total energy in the final basis set = -1510.29927258
 Final energy is   -1510.29927258470
 **  OPTIMIZATION CONVERGED  **

                    Orbital Energies (a.u.)
 --------------------------------------------------------------

 Alpha MOs
 -- Occupied --
-18.940 -18.933 -18.931 -18.927 -18.888 -18.886 -18.881 -18.875
-18.869 -18.869 -10.107 -10.101 -10.098 -10.094 -10.062 -10.061
-10.059 -10.059 -10.056 -10.054 -10.041 -10.039 -10.038 -10.037
-10.036 -10.034 -10.021 -10.020 -10.019 -10.018  -1.016  -1.011
 -1.008  -1.001  -0.970  -0.967  -0.938  -0.936  -0.931  -0.929
 -0.764  -0.761  -0.725  -0.721  -0.711  -0.705  -0.688  -0.656
 -0.646  -0.612  -0.595  -0.577  -0.547  -0.543  -0.537  -0.535
 -0.513  -0.507  -0.480  -0.477  -0.466  -0.459  -0.450  -0.438
 -0.433  -0.431  -0.423  -0.420  -0.408  -0.406  -0.399  -0.398
 -0.381  -0.377  -0.370  -0.363  -0.359  -0.355  -0.352  -0.348
 -0.342  -0.338  -0.331  -0.328  -0.325  -0.323  -0.315  -0.310
 -0.306  -0.306  -0.301  -0.299  -0.291  -0.288  -0.284  -0.277
 -0.273  -0.260  -0.244  -0.239  -0.238  -0.234  -0.230  -0.187
 -0.175  -0.171  -0.160  -0.159  -0.153  -0.149  -0.146  -0.143
 -0.140

          Ground-State Mulliken Net Atomic Charges

     Atom                 Charge (a.u.)
  ----------------------------------------
      1 O                    -0.219990
      2 C                     0.220116
      3 C                    -0.078703
      4 C                    -0.077481
      5 C                     0.206980
      6 O                    -0.168652
      7 C                    -0.056150
      8 C                    -0.060200
      9 O                    -0.166217
     10 C                     0.221747
     11 C                    -0.078213
     12 C                    -0.079395
     13 C                     0.207695
     14 O                    -0.217909
     15 O                    -0.162705
     16 O                    -0.168523
     17 O                    -0.225302
     18 C                    -0.150182
     19 C                     0.025119
     20 C                    -0.144228
     21 C                    -0.144021
     22 C                     0.026181
     23 O                    -0.185024
     24 H                     0.083837
     25 H                     0.084283
     26 H                     0.090972
     27 H                     0.077551
     28 H                     0.072720
     29 H                     0.077696
     30 H                     0.073672
     31 H                     0.082774
     32 O                    -0.208321
     33 C                    -0.144749
     34 C                     0.025322
     35 C                    -0.143524
     36 C                    -0.144615
     37 C                     0.025952
     38 O                    -0.185115
     39 H                     0.087884
     40 H                     0.085778
     41 H                     0.117650
     42 H                     0.083906
     43 H                     0.078131
     44 H                     0.073881
     45 H                     0.077946
     46 H                     0.073353
     47 H                     0.089049
     48 H                     0.084238
     49 H                     0.087378
     50 H                     0.109487
     51 H                     0.087816
     52 H                     0.083564
     53 H                     0.115133
     54 H                     0.087957
     55 H                     0.098678
     56 H                     0.084773
  ----------------------------------------
  Sum of atomic charges =    -0.000000

                    Cartesian Multipole Moments
 -----------------------------------------------------------------
    Charge (ESU x 10^10)
                 0.0000
    Dipole Moment (Debye)
         X       1.0424      Y       0.5551      Z      -0.8309
       Tot       1.4440
    Quadrupole Moments (Debye-Ang)
        XX    -140.8476     XY      -5.4828     YY    -155.3088
        XZ       6.0788     YZ      -4.9394     ZZ    -163.7223

 Total job time:  251.66s(wall), 12013.55s(cpu)
        *  Thank you very much for using Q-Chem.  Have a nice day.  *
