 Q-Chem 5.0, Q-Chem, Inc., Pleasanton, CA (2017)
 Q-Chem 5.0.1 for Intel X86 EM64T Linux

User input:
--------------------------------------------------------------
$molecule
0  1
O -3.94934 -3.66094 2.70899
C -3.26408 -4.56952 2.26188
C -3.36658 -6.02376 2.66595
C -2.27918 -6.57027 3.6055
C -1.31164 -5.55824 4.17799
O -1.83099 -5.01272 5.31734
C -0.99866 -3.99563 5.8848
C -1.62094 -3.46481 7.1721
O -0.61033 -2.85072 7.98724
C 0.20095 -1.97246 7.34722
C 1.54151 -2.56613 6.98514
C 2.69742 -1.5578 6.91164
C 2.43584 -0.2055 7.54375
O 3.29196 0.61337 7.84556
O -2.25549 -4.26681 1.40359
O 1.20468 0.1796 7.97121
O -0.29975 -1.1411 6.59499
C 0.88731 1.37138 8.59628
C 2.11153 -3.56015 8.02782
C 3.11448 -4.49459 7.35272
C 4.26309 -3.54173 7.10284
C 3.72928 -2.28389 7.79657
O 2.93921 -2.77761 8.84903
H 1.4581 -3.07121 6.00269
H 3.07492 -1.37393 5.88179
H 1.34413 -4.16875 8.55147
H 3.43242 -5.23876 8.11815
H 2.73795 -5.03213 6.45583
H 5.16265 -3.93111 7.62946
H 4.49895 -3.34992 6.03361
H 4.57523 -1.62569 8.09433
O -0.36363 -5.09851 3.55256
C -1.9667 -2.99243 0.96299
C -4.63073 -6.32277 3.50566
C -5.00535 -7.79882 3.37618
C -3.89997 -8.44059 4.18584
C -3.17823 -7.19128 4.70273
O -4.20335 -6.23908 4.84041
H -3.45049 -6.59845 1.71627
H -1.65691 -7.36441 3.13706
H -1.70782 -2.33974 1.82413
H -5.50297 -5.6901 3.23061
H -5.96843 -7.94137 3.91722
H -5.11233 -8.17384 2.33563
H -4.36216 -9.00041 5.02922
H -3.21758 -9.10731 3.61561
H -2.60629 -7.43464 5.62549
H -2.83774 -2.56924 0.41839
H -1.09922 -3.03408 0.27302
H -0.19973 1.38697 8.81646
H 1.1296 2.22795 7.93169
H 1.44611 1.46421 9.5519
H -2.45001 -2.76249 6.9371
H -2.03566 -4.30925 7.76278
H -0.79306 -3.17516 5.16113
H -0.06964 -4.53174 6.1738
$end

$opt
CONSTRAINT
tors           1           2           3           4    -103.765
tors           3           4           5           6     +86.418
tors           4           5           6           7    -177.174
tors           5           6           7           8    -178.304
tors           6           7           8           9    +158.373
tors           7           8           9          10     +48.402
tors           8           9          10          11    -100.598
tors           9          10          11          12    -151.489
tors          11          12          13          14    +163.298
ENDCONSTRAINT
$end

$rem
JOBTYPE                   OPT
METHOD                    B3LYP
DFT_D                     d3_op
BASIS                     STO-3G
GEOM_OPT_MAX_CYCLES       100
GEOM_OPT_TOL_GRADIENT     300
GEOM_OPT_TOL_DISPLACEMENT 1200
GEOM_OPT_TOL_ENERGY       100
SYMMETRY                  False
THRESH                    12
SCF_CONVERGENCE           8
MAX_SUB_FILE_NUM          128
MEM_STATIC                400
MEM_TOTAL                 4000
$end
--------------------------------------------------------------

   15   -1510.0922691682      8.59E-09 Convergence criterion met
 Total energy in the final basis set = -1510.09226917
   14   -1510.1682338924      8.13E-09 Convergence criterion met
 Total energy in the final basis set = -1510.16823389
   14   -1510.2105658236      7.61E-09 Convergence criterion met
 Total energy in the final basis set = -1510.21056582
   14   -1510.2316456335      3.24E-09 Convergence criterion met
 Total energy in the final basis set = -1510.23164563
   13   -1510.2411115953      8.08E-09 Convergence criterion met
 Total energy in the final basis set = -1510.24111160
   14   -1510.2452551393      5.35E-09 Convergence criterion met
 Total energy in the final basis set = -1510.24525514
   13   -1510.2475909393      5.24E-09 Convergence criterion met
 Total energy in the final basis set = -1510.24759094
   13   -1510.2485174116      3.12E-09 Convergence criterion met
   11   -1510.2495086521      3.97E-09 Convergence criterion met
 Total energy in the final basis set = -1510.24950865
   11   -1510.2495144455      3.63E-09 Convergence criterion met
 Total energy in the final basis set = -1510.24951445
   10   -1510.2495197281      9.88E-09 Convergence criterion met
 Total energy in the final basis set = -1510.24951973
   11   -1510.2495240380      4.62E-09 Convergence criterion met
 Total energy in the final basis set = -1510.24952404
   11   -1510.2495265615      3.68E-09 Convergence criterion met
 Total energy in the final basis set = -1510.24952656
   10   -1510.2495283773      8.46E-09 Convergence criterion met
 Total energy in the final basis set = -1510.24952838

             Standard Nuclear Orientation (Angstroms)
    I     Atom           X                Y                Z
 ----------------------------------------------------------------
    1      O      -3.7694582111     2.3030704384     0.3524564490
    2      C      -3.9601030003     1.5252202254    -0.6061015386
    3      C      -4.7993353817     0.1978207377    -0.6155122646
    4      C      -3.8868362765    -1.1085935692    -0.5890897094
    5      C      -2.3607771815    -0.7850988931    -0.7372109925
    6      O      -1.8115445483    -0.5024985344     0.5554971997
    7      C      -0.3825397671    -0.1284642104     0.4164475696
    8      C       0.1537695970     0.1211160075     1.8741564726
    9      O       1.6189177306     0.0146500910     2.0309438637
   10      C       2.3157638658     0.7865764458     0.9939521307
   11      C       2.8399105921    -0.1338139874    -0.1742433362
   12      C       4.1226737956     0.2938296846    -0.9941715135
   13      C       5.2657451959     1.0975149797    -0.2553015784
   14      O       6.4297609158     1.2259447775    -0.6974105353
   15      O      -3.3944832780     1.6990736723    -1.9106285902
   16      O       4.8667213733     1.5350663562     1.0404500651
   17      O       2.3515531179     2.0328471015     1.0108969804
   18      C       6.0010796510     2.1981518869     1.7238939690
   19      C       3.1736924449    -1.6463548988     0.1901451167
   20      C       2.7321871085    -2.5216486474    -1.0450135520
   21      C       3.7855325502    -2.0486006438    -2.1153642546
   22      C       4.7478916202    -1.1511040412    -1.2385412938
   23      O       4.6507926153    -1.7307158938     0.1256898131
   24      H       1.9963386795    -0.1315643426    -0.8907389456
   25      H       3.8589597228     0.8166124316    -1.9312980800
   26      H       2.7936699265    -1.9652924807     1.1800888151
   27      H       2.8478556678    -3.5930379575    -0.8146599616
   28      H       1.6910308474    -2.3351088541    -1.3547257801
   29      H       4.3364942740    -2.8973658929    -2.5499680499
   30      H       3.3256385216    -1.4724028088    -2.9344602550
   31      H       5.8029184194    -1.1187350588    -1.5742766959
   32      O      -1.6890885502    -0.7803147990    -1.7918719716
   33      C      -2.5292623365     2.9003900794    -1.9364693195
   34      C      -5.5867037037     0.0340137867     0.7491260639
   35      C      -6.6453219154    -1.1271055664     0.5889839215
   36      C      -5.7174812619    -2.3969989056     0.6528811064
   37      C      -4.2952555185    -1.7272832017     0.8143316733
   38      O      -4.5667505825    -0.5412203864     1.6570528967
   39      H      -5.4639009858     0.1978910359    -1.4978947868
   40      H      -4.1573684642    -1.7793896712    -1.4242062951
   41      H      -1.6954808935     2.8183928326    -1.2092552777
   42      H      -5.9747375715     0.9850409405     1.1621401538
   43      H      -7.3660990774    -1.1100321315     1.4218573585
   44      H      -7.2007721154    -1.0530955998    -0.3597222401
   45      H      -5.9474769948    -3.0214471584     1.5309370009
   46      H      -5.7852568754    -3.0211389990    -0.2524077295
   47      H      -3.5201456897    -2.3656019670     1.2799918582
   48      H      -3.1019353128     3.8230946799    -1.7107000581
   49      H      -2.1201541225     2.9591904780    -2.9617929999
   50      H       5.6300099674     2.4676307755     2.7297498811
   51      H       6.3188530707     3.1150837794     1.1870507272
   52      H       6.8739842320     1.5201359690     1.8141851788
   53      H      -0.2183867304     1.1121379007     2.2231322030
   54      H      -0.2675108760    -0.6574967454     2.5438926425
   55      H      -0.2709763153     0.7787609313    -0.2155817589
   56      H       0.1759178143    -0.9585280714    -0.0671303617
 ----------------------------------------------------------------

    9   -1510.2495285379      6.73E-09 Convergence criterion met
 Total energy in the final basis set = -1510.24952854
 Final energy is   -1510.24952853792
 **  OPTIMIZATION CONVERGED  **

                    Orbital Energies (a.u.)
 --------------------------------------------------------------

 Alpha MOs
 -- Occupied --
-18.941 -18.937 -18.936 -18.904 -18.902 -18.889 -18.887 -18.881
-18.880 -18.867 -10.110 -10.105 -10.101 -10.097 -10.078 -10.075
-10.067 -10.063 -10.061 -10.061 -10.059 -10.059 -10.042 -10.041
-10.040 -10.038 -10.023 -10.022 -10.022 -10.021  -1.020  -1.013
 -1.012  -1.004  -0.972  -0.971  -0.944  -0.939  -0.936  -0.931
 -0.767  -0.764  -0.729  -0.723  -0.716  -0.705  -0.698  -0.666
 -0.660  -0.618  -0.602  -0.584  -0.551  -0.545  -0.540  -0.538
 -0.519  -0.512  -0.486  -0.478  -0.469  -0.468  -0.447  -0.443
 -0.437  -0.434  -0.431  -0.417  -0.413  -0.410  -0.407  -0.401
 -0.393  -0.388  -0.376  -0.374  -0.365  -0.357  -0.354  -0.352
 -0.350  -0.344  -0.337  -0.335  -0.333  -0.331  -0.320  -0.312
 -0.311  -0.309  -0.309  -0.299  -0.298  -0.295  -0.286  -0.281
 -0.275  -0.262  -0.254  -0.249  -0.239  -0.236  -0.231  -0.186
 -0.179  -0.175  -0.163  -0.160  -0.157  -0.154  -0.149  -0.145
 -0.144

          Ground-State Mulliken Net Atomic Charges

     Atom                 Charge (a.u.)
  ----------------------------------------
      1 O                    -0.207852
      2 C                     0.205895
      3 C                    -0.077712
      4 C                    -0.078653
      5 C                     0.205404
      6 O                    -0.167867
      7 C                    -0.053121
      8 C                    -0.046961
      9 O                    -0.195339
     10 C                     0.224279
     11 C                    -0.083820
     12 C                    -0.076330
     13 C                     0.211385
     14 O                    -0.218923
     15 O                    -0.169847
     16 O                    -0.164126
     17 O                    -0.176116
     18 C                    -0.125990
     19 C                     0.021428
     20 C                    -0.142474
     21 C                    -0.145982
     22 C                     0.023718
     23 O                    -0.191720
     24 H                     0.082861
     25 H                     0.085244
     26 H                     0.092092
     27 H                     0.078413
     28 H                     0.071919
     29 H                     0.079240
     30 H                     0.074385
     31 H                     0.089061
     32 O                    -0.213137
     33 C                    -0.128027
     34 C                     0.025169
     35 C                    -0.144412
     36 C                    -0.143688
     37 C                     0.025842
     38 O                    -0.185206
     39 H                     0.086573
     40 H                     0.085596
     41 H                     0.086485
     42 H                     0.088553
     43 H                     0.078688
     44 H                     0.073347
     45 H                     0.078383
     46 H                     0.073340
     47 H                     0.085505
     48 H                     0.089703
     49 H                     0.092514
     50 H                     0.093114
     51 H                     0.089391
     52 H                     0.091427
     53 H                     0.086298
     54 H                     0.095050
     55 H                     0.082844
     56 H                     0.084157
  ----------------------------------------
  Sum of atomic charges =     0.000000

                    Cartesian Multipole Moments
 -----------------------------------------------------------------
    Charge (ESU x 10^10)
                 0.0000
    Dipole Moment (Debye)
         X      -2.6167      Y      -1.2434      Z      -1.9045
       Tot       3.4670
    Quadrupole Moments (Debye-Ang)
        XX    -159.2213     XY       5.5119     YY    -156.4179
        XZ       4.9397     YZ      -2.0664     ZZ    -163.8670

 Total job time:  64.17s(wall), 3054.18s(cpu)
        *  Thank you very much for using Q-Chem.  Have a nice day.  *
