 Q-Chem 5.0, Q-Chem, Inc., Pleasanton, CA (2017)
 Q-Chem 5.0.1 for Intel X86 EM64T Linux

User input:
--------------------------------------------------------------
$molecule
0  1
O -3.94934 -3.66094 2.70899
C -3.26408 -4.56952 2.26188
C -3.36658 -6.02376 2.66595
C -3.75677 -6.32239 4.12281
C -4.17396 -5.13763 4.96566
O -4.72967 -5.57276 6.13496
C -5.20957 -4.50687 6.96129
C -5.77598 -5.06493 8.26278
O -4.91666 -4.71659 9.35964
C -5.54671 -4.43118 10.52615
C -4.67939 -3.65552 11.48884
C -4.06437 -4.48953 12.62218
C -4.10378 -5.99262 12.43281
O -3.29617 -6.78647 12.8934
O -2.22668 -4.25664 1.44164
O -5.30195 -6.52845 12.07765
O -6.7039 -4.74549 10.78021
C -5.56805 -7.87864 11.96991
C -3.38522 -3.05704 10.87528
C -2.91688 -1.86819 11.71348
C -2.43577 -2.57624 12.96081
C -2.59556 -4.03631 12.52302
O -2.38551 -4.00969 11.13365
H -5.29073 -2.79386 11.83982
H -4.52959 -4.27632 13.60923
H -3.49694 -2.7364 9.81643
H -2.03461 -1.43431 11.18967
H -3.66826 -1.06713 11.8822
H -1.36469 -2.31964 13.11881
H -3.0203 -2.36585 13.88269
H -1.90553 -4.68454 13.10646
O -3.47424 -4.13219 5.0074
C -1.9393 -2.98086 1.00342
C -4.55397 -6.68401 1.93136
C -4.34656 -8.19519 1.85549
C -4.57374 -8.57954 3.30022
C -4.98871 -7.22357 3.88299
O -5.63592 -6.57327 2.82021
H -2.43911 -6.54346 2.33335
H -2.94256 -6.84476 4.67282
H -1.72343 -2.31783 1.86832
H -4.72029 -6.2747 0.91003
H -5.18194 -8.60607 1.24391
H -3.37914 -8.52709 1.42105
H -5.41758 -9.30383 3.34135
H -3.68788 -8.99562 3.82724
H -5.60429 -7.38724 4.79362
H -2.79506 -2.57465 0.42268
H -1.04584 -3.01427 0.34682
H -6.6226 -8.01661 11.65469
H -5.41955 -8.38019 12.94983
H -4.90389 -8.33751 11.20647
H -6.76951 -4.57257 8.38924
H -5.96225 -6.15962 8.20979
H -6.03832 -4.01445 6.40082
H -4.44407 -3.72905 7.18524
$end

$opt
CONSTRAINT
tors           1           2           3           4     -32.932
tors           3           4           5           6    +168.477
tors           4           5           6           7    -177.174
tors           5           6           7           8    -178.304
tors           6           7           8           9    +110.108
tors           7           8           9          10    +143.580
tors           8           9          10          11    -161.274
tors           9          10          11          12    -101.761
tors          11          12          13          14    +151.188
ENDCONSTRAINT
$end

$rem
JOBTYPE                   OPT
METHOD                    B3LYP
DFT_D                     d3_op
BASIS                     STO-3G
GEOM_OPT_MAX_CYCLES       100
GEOM_OPT_TOL_GRADIENT     300
GEOM_OPT_TOL_DISPLACEMENT 1200
GEOM_OPT_TOL_ENERGY       100
SYMMETRY                  False
THRESH                    12
SCF_CONVERGENCE           8
MAX_SUB_FILE_NUM          128
MEM_STATIC                400
MEM_TOTAL                 4000
$end
--------------------------------------------------------------

   16   -1510.1115322217      2.99E-09 Convergence criterion met
 Total energy in the final basis set = -1510.11153222
   13   -1510.1846906890      7.37E-09 Convergence criterion met
 Total energy in the final basis set = -1510.18469069
   13   -1510.2253250334      7.88E-09 Convergence criterion met
 Total energy in the final basis set = -1510.22532503
   14   -1510.2460117055      4.42E-09 Convergence criterion met
 Total energy in the final basis set = -1510.24601171
   13   -1510.2558578265      8.03E-09 Convergence criterion met
 Total energy in the final basis set = -1510.25585783
   13   -1510.2614501508      6.90E-09 Convergence criterion met
 Total energy in the final basis set = -1510.26145015
   13   -1510.2648360449      6.66E-09 Convergence criterion met
 Total energy in the final basis set = -1510.26483604
   13   -1510.2668188432      2.71E-09 Convergence criterion met
   11   -1510.2702248591      9.73E-09 Convergence criterion met
 Total energy in the final basis set = -1510.27022486
   10   -1510.2702542526      9.76E-09 Convergence criterion met
 Total energy in the final basis set = -1510.27025425
   10   -1510.2702780454      9.18E-09 Convergence criterion met
 Total energy in the final basis set = -1510.27027805
    9   -1510.2702928372      6.52E-09 Convergence criterion met
 Total energy in the final basis set = -1510.27029284
   10   -1510.2703052439      4.15E-09 Convergence criterion met
 Total energy in the final basis set = -1510.27030524
    9   -1510.2703101069      5.08E-09 Convergence criterion met
 Total energy in the final basis set = -1510.27031011

             Standard Nuclear Orientation (Angstroms)
    I     Atom           X                Y                Z
 ----------------------------------------------------------------
    1      O      -4.9431415132     1.3804226607     1.3483939736
    2      C      -5.2713394506     1.2444155828     0.1515501466
    3      C      -4.8805190341     0.0936757665    -0.8434121335
    4      C      -3.4435927131    -0.5222214215    -0.6150747864
    5      C      -2.4157281505     0.3923494097     0.1386435090
    6      O      -1.2865913770    -0.4199439105     0.4874545138
    7      C      -0.3095617132     0.3814443114     1.2649591581
    8      C       0.9172009967    -0.5452002388     1.5778009585
    9      O       2.0630362202    -0.0584051234     0.7762838859
   10      C       3.2931398218    -0.1886065077     1.5065480022
   11      C       4.3767734683     0.7492992836     0.8543817713
   12      C       5.4504537962     0.0534485729    -0.0848306617
   13      C       5.0807995819    -1.3801682540    -0.6211068545
   14      O       5.4691882446    -1.8812346101    -1.6984390028
   15      O      -6.1460354326     2.1416268334    -0.5474142419
   16      O       4.2137688913    -2.0491455523     0.2949103103
   17      O       3.3861600574    -0.7613623252     2.6148689214
   18      C       3.7917410281    -3.3612317241    -0.2444428189
   19      C       3.8099544299     1.8739176749    -0.1163046899
   20      C       4.8407145326     3.0699170276    -0.1119832565
   21      C       6.0322513817     2.4363107053    -0.9225782931
   22      C       5.4220542974     1.0377430406    -1.3287264167
   23      O       3.9704497332     1.3030912293    -1.4733233717
   24      H       4.9059740790     1.2130063750     1.7070286909
   25      H       6.4434289787     0.0075485848     0.3995788002
   26      H       2.7537235067     2.1469712967     0.0678608978
   27      H       4.4162998827     3.9417920662    -0.6351181864
   28      H       5.1286971437     3.3735726331     0.9071393150
   29      H       6.2738260453     3.0282296215    -1.8196487974
   30      H       6.9462556588     2.3260754173    -0.3170300073
   31      H       5.8287242734     0.5844074576    -2.2540123174
   32      O      -2.4716915263     1.6239908514     0.3390869725
   33      C      -6.5882238104     3.2230100967     0.3624814054
   34      C      -5.7731726594    -1.1723420527    -0.4675492595
   35      C      -5.5507894500    -2.3243468696    -1.5281627448
   36      C      -4.1760857903    -2.9252684075    -1.0510812668
   37      C      -3.7954646281    -1.9060816973     0.0914325383
   38      O      -5.0960628991    -1.6638388204     0.7556484868
   39      H      -5.0386077897     0.4375354739    -1.8800548153
   40      H      -2.9853497151    -0.7331091282    -1.6002529057
   41      H      -5.7269476672     3.7905205316     0.7700392087
   42      H      -6.8330053978    -0.9321693544    -0.2543090027
   43      H      -6.3627670384    -3.0665264913    -1.4729541225
   44      H      -5.5047098641    -1.9284829956    -2.5556003627
   45      H      -4.3038862123    -3.9368265886    -0.6330917893
   46      H      -3.4213273250    -2.9646682143    -1.8528427894
   47      H      -3.0372796180    -2.2557732973     0.8184951326
   48      H      -7.1794781329     2.8251831684     1.2127786057
   49      H      -7.2219797837     3.8947371577    -0.2453715321
   50      H       3.1107624858    -3.7932622434     0.5117937632
   51      H       4.6591086228    -4.0359460582    -0.3947094446
   52      H       3.2570490363    -3.2494617864    -1.2097588357
   53      H       1.1879245378    -0.5348541937     2.6555176612
   54      H       0.6644207227    -1.5916798094     1.2955180537
   55      H      -0.7785209680     0.7501503981     2.2031938454
   56      H       0.0311562213     1.2658664915     0.6823456047
 ----------------------------------------------------------------

    9   -1510.2703109246      4.86E-09 Convergence criterion met
 Total energy in the final basis set = -1510.27031092
 Final energy is   -1510.27031092457
 **  OPTIMIZATION CONVERGED  **

                    Orbital Energies (a.u.)
 --------------------------------------------------------------

 Alpha MOs
 -- Occupied --
-18.945 -18.931 -18.926 -18.925 -18.887 -18.885 -18.878 -18.875
-18.867 -18.864 -10.104 -10.099 -10.098 -10.091 -10.073 -10.070
-10.069 -10.060 -10.059 -10.058 -10.058 -10.058 -10.040 -10.037
-10.035 -10.035 -10.021 -10.020 -10.020 -10.019  -1.018  -1.012
 -1.004  -1.002  -0.970  -0.969  -0.941  -0.938  -0.929  -0.926
 -0.763  -0.762  -0.726  -0.722  -0.716  -0.705  -0.693  -0.666
 -0.658  -0.613  -0.597  -0.577  -0.544  -0.544  -0.538  -0.537
 -0.515  -0.514  -0.485  -0.474  -0.469  -0.460  -0.449  -0.443
 -0.434  -0.433  -0.417  -0.414  -0.410  -0.408  -0.406  -0.401
 -0.396  -0.385  -0.381  -0.364  -0.360  -0.356  -0.354  -0.349
 -0.340  -0.336  -0.330  -0.330  -0.329  -0.328  -0.316  -0.313
 -0.311  -0.306  -0.302  -0.299  -0.295  -0.289  -0.285  -0.277
 -0.271  -0.256  -0.247  -0.246  -0.243  -0.233  -0.233  -0.183
 -0.179  -0.170  -0.168  -0.158  -0.156  -0.149  -0.143  -0.141
 -0.141

          Ground-State Mulliken Net Atomic Charges

     Atom                 Charge (a.u.)
  ----------------------------------------
      1 O                    -0.208279
      2 C                     0.212882
      3 C                    -0.078558
      4 C                    -0.079702
      5 C                     0.212002
      6 O                    -0.176169
      7 C                    -0.047808
      8 C                    -0.050873
      9 O                    -0.177294
     10 C                     0.218068
     11 C                    -0.081117
     12 C                    -0.077207
     13 C                     0.213719
     14 O                    -0.212315
     15 O                    -0.172861
     16 O                    -0.164826
     17 O                    -0.220747
     18 C                    -0.125453
     19 C                     0.024567
     20 C                    -0.143218
     21 C                    -0.145184
     22 C                     0.023710
     23 O                    -0.190934
     24 H                     0.083678
     25 H                     0.086123
     26 H                     0.087659
     27 H                     0.077916
     28 H                     0.073027
     29 H                     0.078458
     30 H                     0.073362
     31 H                     0.089637
     32 O                    -0.208599
     33 C                    -0.128908
     34 C                     0.025153
     35 C                    -0.145163
     36 C                    -0.142096
     37 C                     0.025566
     38 O                    -0.188651
     39 H                     0.086762
     40 H                     0.084762
     41 H                     0.091539
     42 H                     0.082354
     43 H                     0.078086
     44 H                     0.074038
     45 H                     0.077723
     46 H                     0.073777
     47 H                     0.088450
     48 H                     0.086647
     49 H                     0.088287
     50 H                     0.093945
     51 H                     0.091667
     52 H                     0.092672
     53 H                     0.096588
     54 H                     0.088926
     55 H                     0.089730
     56 H                     0.094482
  ----------------------------------------
  Sum of atomic charges =     0.000000

                    Cartesian Multipole Moments
 -----------------------------------------------------------------
    Charge (ESU x 10^10)
                 0.0000
    Dipole Moment (Debye)
         X       0.2262      Y      -0.0769      Z      -0.9560
       Tot       0.9854
    Quadrupole Moments (Debye-Ang)
        XX    -148.1559     XY       6.5059     YY    -150.6697
        XZ      11.3514     YZ       3.9221     ZZ    -167.8362

 Total job time:  56.52s(wall), 2687.31s(cpu)
        *  Thank you very much for using Q-Chem.  Have a nice day.  *
