 Q-Chem 5.0, Q-Chem, Inc., Pleasanton, CA (2017)
 Q-Chem 5.0.1 for Intel X86 EM64T Linux

User input:
--------------------------------------------------------------
$molecule
0  1
O -4.9431415132 1.3804226607 1.3483939736
C -5.2713394506 1.2444155828 0.1515501466
C -4.8805190341 0.0936757665 -0.8434121335
C -3.4435927131 -0.5222214215 -0.6150747864
C -2.4157281505 0.3923494097 0.138643509
O -1.286591377 -0.4199439105 0.4874545138
C -0.3095617132 0.3814443114 1.2649591581
C 0.9172009967 -0.5452002388 1.5778009585
O 2.0630362202 -0.0584051234 0.7762838859
C 3.2931398218 -0.1886065077 1.5065480022
C 4.3767734683 0.7492992836 0.8543817713
C 5.4504537962 0.0534485729 -0.0848306617
C 5.0807995819 -1.380168254 -0.6211068545
O 5.4691882446 -1.8812346101 -1.6984390028
O -6.1460354326 2.1416268334 -0.5474142419
O 4.2137688913 -2.0491455523 0.2949103103
O 3.3861600574 -0.7613623252 2.6148689214
C 3.7917410281 -3.3612317241 -0.2444428189
C 3.8099544299 1.8739176749 -0.1163046899
C 4.8407145326 3.0699170276 -0.1119832565
C 6.0322513817 2.4363107053 -0.9225782931
C 5.4220542974 1.0377430406 -1.3287264167
O 3.9704497332 1.3030912293 -1.4733233717
H 4.905974079 1.213006375 1.7070286909
H 6.4434289787 0.0075485848 0.3995788002
H 2.7537235067 2.1469712967 0.0678608978
H 4.4162998827 3.9417920662 -0.6351181864
H 5.1286971437 3.3735726331 0.907139315
H 6.2738260453 3.0282296215 -1.8196487974
H 6.9462556588 2.3260754173 -0.3170300073
H 5.8287242734 0.5844074576 -2.2540123174
O -2.4716915263 1.6239908514 0.3390869725
C -6.5882238104 3.2230100967 0.3624814054
C -5.7731726594 -1.1723420527 -0.4675492595
C -5.55078945 -2.3243468696 -1.5281627448
C -4.1760857903 -2.9252684075 -1.0510812668
C -3.7954646281 -1.9060816973 0.0914325383
O -5.0960628991 -1.6638388204 0.7556484868
H -5.0386077897 0.4375354739 -1.8800548153
H -2.9853497151 -0.7331091282 -1.6002529057
H -5.7269476672 3.7905205316 0.7700392087
H -6.8330053978 -0.9321693544 -0.2543090027
H -6.3627670384 -3.0665264913 -1.4729541225
H -5.5047098641 -1.9284829956 -2.5556003627
H -4.3038862123 -3.9368265886 -0.6330917893
H -3.421327325 -2.9646682143 -1.8528427894
H -3.037279618 -2.2557732973 0.8184951326
H -7.1794781329 2.8251831684 1.2127786057
H -7.2219797837 3.8947371577 -0.2453715321
H 3.1107624858 -3.7932622434 0.5117937632
H 4.6591086228 -4.0359460582 -0.3947094446
H 3.2570490363 -3.2494617864 -1.2097588357
H 1.1879245378 -0.5348541937 2.6555176612
H 0.6644207227 -1.5916798094 1.2955180537
H -0.778520968 0.7501503981 2.2031938454
H 0.0311562213 1.2658664915 0.6823456047
$end

$rem
JOBTYPE                   OPT
METHOD                    B3LYP
DFT_D                     d3_op
BASIS                     STO-3G
GEOM_OPT_MAX_CYCLES       100
GEOM_OPT_TOL_GRADIENT     300
GEOM_OPT_TOL_DISPLACEMENT 1200
GEOM_OPT_TOL_ENERGY       100
SYMMETRY                  False
THRESH                    12
SCF_CONVERGENCE           8
MAX_SUB_FILE_NUM          128
MEM_STATIC                400
MEM_TOTAL                 4000
$end
--------------------------------------------------------------

   16   -1510.2703417152      5.63E-09 Convergence criterion met
 Total energy in the final basis set = -1510.27034172
   14   -1510.2732502084      2.34E-09 Convergence criterion met
 Total energy in the final basis set = -1510.27325021
   13   -1510.2750580096      9.17E-09 Convergence criterion met
 Total energy in the final basis set = -1510.27505801
   13   -1510.2763652334      5.63E-09 Convergence criterion met
 Total energy in the final basis set = -1510.27636523
   13   -1510.2775419415      4.20E-09 Convergence criterion met
 Total energy in the final basis set = -1510.27754194
   13   -1510.2787180662      3.91E-09 Convergence criterion met
 Total energy in the final basis set = -1510.27871807
   13   -1510.2798379065      4.55E-09 Convergence criterion met
 Total energy in the final basis set = -1510.27983791
   13   -1510.2808888608      3.37E-09 Convergence criterion met
   12   -1510.3033280776      2.35E-09 Convergence criterion met
 Total energy in the final basis set = -1510.30332808
   11   -1510.3033306146      5.96E-09 Convergence criterion met
 Total energy in the final basis set = -1510.30333061
   11   -1510.3033352108      4.44E-09 Convergence criterion met
 Total energy in the final basis set = -1510.30333521
    9   -1510.3033371766      9.80E-09 Convergence criterion met
 Total energy in the final basis set = -1510.30333718
    9   -1510.3033403062      6.38E-09 Convergence criterion met
 Total energy in the final basis set = -1510.30334031
    9   -1510.3033421853      4.60E-09 Convergence criterion met
 Total energy in the final basis set = -1510.30334219

             Standard Nuclear Orientation (Angstroms)
    I     Atom           X                Y                Z
 ----------------------------------------------------------------
    1      O      -3.7572250514     2.0992564196     0.6515704157
    2      C      -2.7989619867     1.7776553796    -0.0793991291
    3      C      -2.6851346392     0.5435325920    -1.0448740827
    4      C      -1.9173751586    -0.6943827253    -0.4222282222
    5      C      -1.5211669191    -0.4525073734     1.0685152716
    6      O      -1.2231319797    -1.6978113353     1.7057648666
    7      C      -0.5185917346    -1.4296157552     2.9823401117
    8      C       1.0325375876    -1.4476146638     2.7058100446
    9      O       1.3302234294    -0.7983274906     1.4079541913
   10      C       1.6707037690     0.5897158976     1.5738715791
   11      C       2.1115569063     1.1452769974     0.1768575608
   12      C       3.0513280870     0.1428545586    -0.6177938972
   13      C       3.4875600684    -1.1320323019     0.1883863661
   14      O       3.3847914622    -2.3266447241    -0.1601009532
   15      O      -1.6277189591     2.6016373645    -0.2782080445
   16      O       4.1378908977    -0.6933642448     1.3927945979
   17      O       1.6181011356     1.1960601518     2.6637606461
   18      C       4.6160105151    -1.8623217169     2.1636177840
   19      C       0.8951542320     1.2622823503    -0.8395922571
   20      C       1.3824603277     2.0600812037    -2.1156418893
   21      C       2.2142361610     0.9678754609    -2.8854789249
   22      C       2.1402553996    -0.2280563050    -1.8622768954
   23      O       0.7592663316    -0.1265542361    -1.3359836369
   24      H       2.5986283697     2.1218177985     0.3430172090
   25      H       3.9698477622     0.6638522191    -0.9451233356
   26      H      -0.0662953447     1.6520883210    -0.4218644974
   27      H       0.5143653765     2.3990622987    -2.7027703925
   28      H       1.9877590216     2.9397024642    -1.8447727807
   29      H       1.7344753351     0.6911458687    -3.8379785767
   30      H       3.2505411791     1.2812782219    -3.0892930659
   31      H       2.3293732833    -1.2404853078    -2.2697927739
   32      O      -1.4393994466     0.6596479414     1.6421280759
   33      C      -1.6104010824     3.7061931194     0.7045506182
   34      C      -4.0948910730    -0.1119417797    -1.3625336367
   35      C      -3.9422770281    -0.9799144305    -2.6718253637
   36      C      -3.1118622830    -2.2016858776    -2.1272751681
   37      C      -2.9958068950    -1.8379034314    -0.5941096875
   38      O      -4.2657606182    -1.1303612782    -0.2996917917
   39      H      -2.1778360669     0.8813219840    -1.9656999038
   40      H      -0.9624768186    -0.8769057751    -0.9655396129
   41      H      -1.5166600679     3.3125771150     1.7374699695
   42      H      -4.9434967873     0.5991499062    -1.3533024816
   43      H      -4.9314108777    -1.2975840379    -3.0387273660
   44      H      -3.4242564332    -0.4350221110    -3.4771285102
   45      H      -3.6537520882    -3.1515365161    -2.2601520242
   46      H      -2.1225059379    -2.2895134621    -2.6040913545
   47      H      -2.8572147079    -2.6967586194     0.0906027196
   48      H      -2.5292051797     4.3228998242     0.6371995204
   49      H      -0.7263277436     4.3233497777     0.4601455864
   50      H       5.0292365984    -1.4597631488     3.1067283506
   51      H       5.4097870959    -2.4135712196     1.6186708001
   52      H       3.7932067353    -2.5696019946     2.3899908246
   53      H       1.5709217337    -0.9375436588     3.5329293067
   54      H       1.3865499357    -2.4931861630     2.6044268225
   55      H      -0.7964337019    -2.2314285292     3.6949553206
   56      H      -0.8281971580    -0.4362834169     3.3707368421
 ----------------------------------------------------------------

    9   -1510.3033427346      3.16E-09 Convergence criterion met
 Total energy in the final basis set = -1510.30334273
 Final energy is   -1510.30334273461
 **  OPTIMIZATION CONVERGED  **

                    Orbital Energies (a.u.)
 --------------------------------------------------------------

 Alpha MOs
 -- Occupied --
-18.937 -18.936 -18.930 -18.928 -18.890 -18.881 -18.879 -18.878
-18.872 -18.867 -10.103 -10.101 -10.100 -10.094 -10.075 -10.071
-10.065 -10.059 -10.057 -10.052 -10.052 -10.045 -10.037 -10.036
-10.028 -10.023 -10.019 -10.016 -10.014 -10.013  -1.023  -1.012
 -1.005  -1.000  -0.971  -0.962  -0.944  -0.935  -0.935  -0.929
 -0.764  -0.756  -0.728  -0.718  -0.709  -0.702  -0.692  -0.663
 -0.655  -0.617  -0.596  -0.579  -0.547  -0.540  -0.535  -0.531
 -0.511  -0.506  -0.486  -0.474  -0.468  -0.457  -0.444  -0.440
 -0.430  -0.428  -0.425  -0.423  -0.412  -0.406  -0.404  -0.402
 -0.398  -0.378  -0.372  -0.366  -0.362  -0.358  -0.349  -0.347
 -0.345  -0.341  -0.335  -0.327  -0.326  -0.324  -0.319  -0.309
 -0.305  -0.305  -0.300  -0.296  -0.295  -0.291  -0.275  -0.273
 -0.271  -0.255  -0.253  -0.246  -0.244  -0.234  -0.222  -0.187
 -0.177  -0.174  -0.168  -0.159  -0.157  -0.151  -0.147  -0.144
 -0.137

          Ground-State Mulliken Net Atomic Charges

     Atom                 Charge (a.u.)
  ----------------------------------------
      1 O                    -0.211963
      2 C                     0.218528
      3 C                    -0.083410
      4 C                    -0.089717
      5 C                     0.219283
      6 O                    -0.168050
      7 C                    -0.054838
      8 C                    -0.051183
      9 O                    -0.172357
     10 C                     0.216271
     11 C                    -0.078847
     12 C                    -0.078726
     13 C                     0.216059
     14 O                    -0.216030
     15 O                    -0.176645
     16 O                    -0.176971
     17 O                    -0.208351
     18 C                    -0.128952
     19 C                     0.006998
     20 C                    -0.145084
     21 C                    -0.143949
     22 C                     0.026017
     23 O                    -0.197281
     24 H                     0.085833
     25 H                     0.083713
     26 H                     0.111579
     27 H                     0.076626
     28 H                     0.071840
     29 H                     0.075857
     30 H                     0.072794
     31 H                     0.089852
     32 O                    -0.219153
     33 C                    -0.128195
     34 C                     0.024323
     35 C                    -0.143302
     36 C                    -0.143872
     37 C                     0.023055
     38 O                    -0.191193
     39 H                     0.083448
     40 H                     0.117002
     41 H                     0.096725
     42 H                     0.085338
     43 H                     0.076453
     44 H                     0.072251
     45 H                     0.076341
     46 H                     0.075637
     47 H                     0.088275
     48 H                     0.089468
     49 H                     0.086660
     50 H                     0.089774
     51 H                     0.087197
     52 H                     0.086392
     53 H                     0.096518
     54 H                     0.088325
     55 H                     0.090004
     56 H                     0.103632
  ----------------------------------------
  Sum of atomic charges =    -0.000000

                    Cartesian Multipole Moments
 -----------------------------------------------------------------
    Charge (ESU x 10^10)
                 0.0000
    Dipole Moment (Debye)
         X       2.8992      Y       0.0086      Z      -1.1865
       Tot       3.1326
    Quadrupole Moments (Debye-Ang)
        XX    -164.8953     XY       1.4985     YY    -157.0832
        XZ       7.3283     YZ      -9.5904     ZZ    -151.4667

 Total job time:  140.27s(wall), 6682.81s(cpu)
        *  Thank you very much for using Q-Chem.  Have a nice day.  *
