 Q-Chem 5.0, Q-Chem, Inc., Pleasanton, CA (2017)
 Q-Chem 5.0.1 for Intel X86 EM64T Linux

User input:
--------------------------------------------------------------
$molecule
0  1
O -3.94934 -3.66094 2.70899
C -3.26408 -4.56952 2.26188
C -3.36658 -6.02376 2.66595
C -2.05994 -6.74323 3.03864
C -0.82034 -5.88199 3.13746
O -0.25553 -6.02175 4.37313
C 0.89033 -5.18574 4.56636
C 1.48963 -5.42646 5.94803
O 1.83342 -6.81294 6.09759
C 2.76475 -7.27972 5.22932
C 3.01506 -8.76182 5.37561
C 4.39701 -9.23481 4.90151
C 5.43238 -8.14766 4.69456
O 5.46768 -7.08003 5.2891
O -2.49758 -4.31077 1.17003
O 6.29546 -8.34596 3.66387
O 3.22851 -6.634 4.29974
C 7.27263 -7.44951 3.28487
C 3.06176 -9.23967 6.8503
C 2.7682 -10.73834 6.91554
C 4.04335 -11.29985 6.32663
C 4.85116 -10.00988 6.15208
O 4.41847 -9.18514 7.2036
H 2.16783 -9.28095 4.87429
H 4.37559 -9.89276 4.00437
H 2.3646 -8.70325 7.52867
H 2.72465 -11.01625 7.99335
H 1.82989 -11.06368 6.41694
H 4.51888 -11.96138 7.08458
H 3.92499 -11.84421 5.36473
H 5.94071 -10.23769 6.13312
O -0.31144 -5.2835 2.1979
C -2.34456 -3.0635 0.60104
C -4.20535 -6.26122 3.93867
C -4.78711 -7.67187 3.91661
C -3.53884 -8.49314 4.15082
C -2.50932 -7.37892 4.38148
O -3.25496 -6.34356 4.97319
H -3.85567 -6.52646 1.80081
H -1.80761 -7.5298 2.29332
H -1.90171 -2.35966 1.33782
H -5.02248 -5.52132 4.08168
H -5.44632 -7.76574 4.80953
H -5.36599 -7.93616 3.0056
H -3.68472 -9.09308 5.07674
H -3.24246 -9.15828 3.31107
H -1.67178 -7.79284 4.98345
H -3.32664 -2.67692 0.2541
H -1.66374 -3.14298 -0.27108
H 7.83138 -7.86405 2.4209
H 7.98256 -7.28119 4.12281
H 6.81144 -6.48476 2.98329
H 2.37972 -4.77797 6.1069
H 0.73177 -5.17272 6.71935
H 0.56983 -4.11995 4.53319
H 1.59984 -5.28621 3.72783
$end

$opt
CONSTRAINT
tors           1           2           3           4    -130.481
tors           3           4           5           6    +123.705
tors           4           5           6           7    -177.174
tors           5           6           7           8    -178.304
tors           6           7           8           9     +57.397
tors           7           8           9          10     +61.705
tors           8           9          10          11    -176.141
tors           9          10          11          12    -155.087
tors          11          12          13          14     +28.246
ENDCONSTRAINT
$end

$rem
JOBTYPE                   OPT
METHOD                    B3LYP
DFT_D                     d3_op
BASIS                     STO-3G
GEOM_OPT_MAX_CYCLES       100
GEOM_OPT_TOL_GRADIENT     300
GEOM_OPT_TOL_DISPLACEMENT 1200
GEOM_OPT_TOL_ENERGY       100
SYMMETRY                  False
THRESH                    12
SCF_CONVERGENCE           8
MAX_SUB_FILE_NUM          128
MEM_STATIC                400
MEM_TOTAL                 4000
$end
--------------------------------------------------------------

   15   -1510.1453057755      9.09E-09 Convergence criterion met
 Total energy in the final basis set = -1510.14530578
   14   -1510.2152180907      7.01E-09 Convergence criterion met
 Total energy in the final basis set = -1510.21521809
   13   -1510.2520179992      8.42E-09 Convergence criterion met
 Total energy in the final basis set = -1510.25201800
   14   -1510.2673332930      6.16E-09 Convergence criterion met
 Total energy in the final basis set = -1510.26733329
   13   -1510.2712312713      9.63E-09 Convergence criterion met
 Total energy in the final basis set = -1510.27123127
   13   -1510.2724014830      3.65E-09 Convergence criterion met
 Total energy in the final basis set = -1510.27240148
   12   -1510.2728209755      6.92E-09 Convergence criterion met
 Total energy in the final basis set = -1510.27282098
   12   -1510.2729182395      4.50E-09 Convergence criterion met
   11   -1510.2729864476      6.85E-09 Convergence criterion met
 Total energy in the final basis set = -1510.27298645
   11   -1510.2729922493      3.11E-09 Convergence criterion met
 Total energy in the final basis set = -1510.27299225
   10   -1510.2729939192      8.57E-09 Convergence criterion met
 Total energy in the final basis set = -1510.27299392
    9   -1510.2729951966      8.09E-09 Convergence criterion met
 Total energy in the final basis set = -1510.27299520
    9   -1510.2729962805      5.57E-09 Convergence criterion met
 Total energy in the final basis set = -1510.27299628
    9   -1510.2729975123      4.89E-09 Convergence criterion met
 Total energy in the final basis set = -1510.27299751

             Standard Nuclear Orientation (Angstroms)
    I     Atom           X                Y                Z
 ----------------------------------------------------------------
    1      O      -6.1864421551     1.0102390743     0.8040036963
    2      C      -5.3715904655     0.9115670640    -0.1401381159
    3      C      -4.7417066738    -0.4162595472    -0.6948633815
    4      C      -3.1631149438    -0.4812296856    -0.8907489422
    5      C      -2.3554562013     0.7170533351    -0.2538050268
    6      O      -1.3772179532     0.1960471905     0.6531667995
    7      C      -0.6496180654     1.3042269701     1.3169288397
    8      C       0.4205062065     0.6393198499     2.2492475483
    9      O       1.3567841055    -0.2592656960     1.5299362029
   10      C       2.1214465784     0.4413113141     0.5426103214
   11      C       3.0005967103    -0.6130054390    -0.2217571516
   12      C       4.3168319961    -0.0471675055    -0.8888992051
   13      C       4.8139822540     1.3190461347    -0.2971003934
   14      O       4.6506836051     1.7698050926     0.8559412226
   15      O      -5.0232652359     1.9860735035    -1.0133157510
   16      O       5.5599522524     1.9883656638    -1.3226051314
   17      O       2.0141112272     1.6612757084     0.2922657809
   18      C       6.0874082968     3.2717105387    -0.8050203503
   19      C       3.5756090527    -1.8072610569     0.6586157176
   20      C       3.7873007897    -3.0396599608    -0.3034830129
   21      C       5.0083069216    -2.5362274680    -1.1589501823
   22      C       5.3521595650    -1.1712642221    -0.4384378898
   23      O       4.9632552685    -1.3961610932     0.9734431655
   24      H       2.3463340841    -1.0276583186    -1.0124673835
   25      H       4.2357610418     0.0401256634    -1.9861025296
   26      H       3.0010091519    -2.0073873630     1.5833282660
   27      H       4.0480524434    -3.9380989696     0.2786890432
   28      H       2.8957756534    -3.2580228097    -0.9128712635
   29      H       5.8614206867    -3.2303219704    -1.0994217950
   30      H       4.7496525400    -2.3855711304    -2.2194672279
   31      H       6.4133793945    -0.8619599710    -0.5057410962
   32      O      -2.4802336397     1.9378984005    -0.4887398618
   33      C      -5.6447943144     3.2463926605    -0.5470060289
   34      C      -4.9879815071    -1.6497879496     0.2725420664
   35      C      -4.9837860946    -2.9602386438    -0.6031339780
   36      C      -3.4593171693    -3.0501637922    -0.9842174296
   37      C      -2.8547756252    -1.8498164822    -0.1504394089
   38      O      -3.7283352083    -1.7630764732     1.0446523335
   39      H      -5.2259842484    -0.5959766574    -1.6733775941
   40      H      -2.9130398555    -0.5203691311    -1.9672615317
   41      H      -5.2708788810     3.5369294636     0.4558003014
   42      H      -5.8526575709    -1.5147692453     0.9515495035
   43      H      -5.2986506985    -3.8260001289     0.0012557188
   44      H      -5.6423248272    -2.8850706971    -1.4831466243
   45      H      -3.0157369040    -4.0058549648    -0.6633806937
   46      H      -3.2862352973    -2.9271993511    -2.0655213600
   47      H      -1.7973481799    -1.9672798783     0.1516193524
   48      H      -6.7503368576     3.1647768672    -0.5025950512
   49      H      -5.3561738945     4.0173303863    -1.2846843308
   50      H       6.6509785456     3.7292973886    -1.6388810216
   51      H       6.7640939024     3.1172040000     0.0602421085
   52      H       5.2684810966     3.9516227470    -0.4928545250
   53      H       0.9786074345     1.4451847588     2.7759380033
   54      H      -0.0770394310    -0.0082027429     2.9988381923
   55      H      -1.3415425219     1.9241490013     1.9284002399
   56      H      -0.1422752148     1.9593532359     0.5771993260
 ----------------------------------------------------------------

    9   -1510.2729980056      5.66E-09 Convergence criterion met
 Total energy in the final basis set = -1510.27299801
 Final energy is   -1510.27299800561
 **  OPTIMIZATION CONVERGED  **

                    Orbital Energies (a.u.)
 --------------------------------------------------------------

 Alpha MOs
 -- Occupied --
-18.935 -18.933 -18.931 -18.928 -18.887 -18.883 -18.876 -18.873
-18.871 -18.870 -10.102 -10.097 -10.096 -10.094 -10.077 -10.069
-10.061 -10.060 -10.060 -10.058 -10.055 -10.054 -10.038 -10.037
-10.036 -10.035 -10.021 -10.020 -10.019 -10.018  -1.016  -1.010
 -1.006  -1.004  -0.970  -0.966  -0.941  -0.934  -0.930  -0.929
 -0.763  -0.760  -0.727  -0.721  -0.715  -0.704  -0.694  -0.660
 -0.659  -0.616  -0.597  -0.579  -0.544  -0.543  -0.537  -0.535
 -0.517  -0.508  -0.482  -0.468  -0.460  -0.456  -0.448  -0.445
 -0.435  -0.433  -0.429  -0.413  -0.408  -0.407  -0.407  -0.403
 -0.393  -0.375  -0.371  -0.367  -0.361  -0.359  -0.354  -0.347
 -0.340  -0.338  -0.333  -0.330  -0.330  -0.326  -0.319  -0.312
 -0.310  -0.304  -0.303  -0.295  -0.292  -0.288  -0.279  -0.274
 -0.272  -0.259  -0.252  -0.248  -0.244  -0.234  -0.231  -0.182
 -0.177  -0.172  -0.171  -0.156  -0.151  -0.146  -0.143  -0.143
 -0.140

          Ground-State Mulliken Net Atomic Charges

     Atom                 Charge (a.u.)
  ----------------------------------------
      1 O                    -0.215475
      2 C                     0.207196
      3 C                    -0.079838
      4 C                    -0.076402
      5 C                     0.206198
      6 O                    -0.174116
      7 C                    -0.053127
      8 C                    -0.045763
      9 O                    -0.170748
     10 C                     0.215947
     11 C                    -0.079233
     12 C                    -0.078472
     13 C                     0.212608
     14 O                    -0.209157
     15 O                    -0.161751
     16 O                    -0.172561
     17 O                    -0.213269
     18 C                    -0.128807
     19 C                     0.024361
     20 C                    -0.142484
     21 C                    -0.145048
     22 C                     0.025139
     23 O                    -0.189288
     24 H                     0.083533
     25 H                     0.086658
     26 H                     0.092744
     27 H                     0.078047
     28 H                     0.072795
     29 H                     0.078132
     30 H                     0.073653
     31 H                     0.082629
     32 O                    -0.208404
     33 C                    -0.125937
     34 C                     0.022135
     35 C                    -0.143006
     36 C                    -0.145698
     37 C                     0.022529
     38 O                    -0.191425
     39 H                     0.083636
     40 H                     0.084093
     41 H                     0.089522
     42 H                     0.090197
     43 H                     0.077623
     44 H                     0.072449
     45 H                     0.076930
     46 H                     0.071534
     47 H                     0.092124
     48 H                     0.087447
     49 H                     0.092378
     50 H                     0.088828
     51 H                     0.087949
     52 H                     0.090799
     53 H                     0.092332
     54 H                     0.095527
     55 H                     0.088223
     56 H                     0.104115
  ----------------------------------------
  Sum of atomic charges =     0.000000

                    Cartesian Multipole Moments
 -----------------------------------------------------------------
    Charge (ESU x 10^10)
                 0.0000
    Dipole Moment (Debye)
         X       0.2679      Y      -1.2675      Z      -2.6288
       Tot       2.9306
    Quadrupole Moments (Debye-Ang)
        XX    -157.6658     XY       0.7366     YY    -152.5865
        XZ      -0.1546     YZ       5.6058     ZZ    -159.6922

 Total job time:  44.99s(wall), 2140.25s(cpu)
        *  Thank you very much for using Q-Chem.  Have a nice day.  *
