 Q-Chem 5.0, Q-Chem, Inc., Pleasanton, CA (2017)
 Q-Chem 5.0.1 for Intel X86 EM64T Linux

User input:
--------------------------------------------------------------
$molecule
0  1
O -6.1864421551 1.0102390743 0.8040036963
C -5.3715904655 0.911567064 -0.1401381159
C -4.7417066738 -0.4162595472 -0.6948633815
C -3.1631149438 -0.4812296856 -0.8907489422
C -2.3554562013 0.7170533351 -0.2538050268
O -1.3772179532 0.1960471905 0.6531667995
C -0.6496180654 1.3042269701 1.3169288397
C 0.4205062065 0.6393198499 2.2492475483
O 1.3567841055 -0.259265696 1.5299362029
C 2.1214465784 0.4413113141 0.5426103214
C 3.0005967103 -0.613005439 -0.2217571516
C 4.3168319961 -0.0471675055 -0.8888992051
C 4.813982254 1.3190461347 -0.2971003934
O 4.6506836051 1.7698050926 0.8559412226
O -5.0232652359 1.9860735035 -1.013315751
O 5.5599522524 1.9883656638 -1.3226051314
O 2.0141112272 1.6612757084 0.2922657809
C 6.0874082968 3.2717105387 -0.8050203503
C 3.5756090527 -1.8072610569 0.6586157176
C 3.7873007897 -3.0396599608 -0.3034830129
C 5.0083069216 -2.536227468 -1.1589501823
C 5.352159565 -1.1712642221 -0.4384378898
O 4.9632552685 -1.3961610932 0.9734431655
H 2.3463340841 -1.0276583186 -1.0124673835
H 4.2357610418 0.0401256634 -1.9861025296
H 3.0010091519 -2.007387363 1.583328266
H 4.0480524434 -3.9380989696 0.2786890432
H 2.8957756534 -3.2580228097 -0.9128712635
H 5.8614206867 -3.2303219704 -1.099421795
H 4.74965254 -2.3855711304 -2.2194672279
H 6.4133793945 -0.861959971 -0.5057410962
O -2.4802336397 1.9378984005 -0.4887398618
C -5.6447943144 3.2463926605 -0.5470060289
C -4.9879815071 -1.6497879496 0.2725420664
C -4.9837860946 -2.9602386438 -0.603133978
C -3.4593171693 -3.0501637922 -0.9842174296
C -2.8547756252 -1.8498164822 -0.1504394089
O -3.7283352083 -1.7630764732 1.0446523335
H -5.2259842484 -0.5959766574 -1.6733775941
H -2.9130398555 -0.5203691311 -1.9672615317
H -5.270878881 3.5369294636 0.4558003014
H -5.8526575709 -1.5147692453 0.9515495035
H -5.2986506985 -3.8260001289 0.0012557188
H -5.6423248272 -2.8850706971 -1.4831466243
H -3.015736904 -4.0058549648 -0.6633806937
H -3.2862352973 -2.9271993511 -2.06552136
H -1.7973481799 -1.9672798783 0.1516193524
H -6.7503368576 3.1647768672 -0.5025950512
H -5.3561738945 4.0173303863 -1.2846843308
H 6.6509785456 3.7292973886 -1.6388810216
H 6.7640939024 3.117204 0.0602421085
H 5.2684810966 3.951622747 -0.492854525
H 0.9786074345 1.4451847588 2.7759380033
H -0.077039431 -0.0082027429 2.9988381923
H -1.3415425219 1.9241490013 1.9284002399
H -0.1422752148 1.9593532359 0.577199326
$end

$rem
JOBTYPE                   OPT
METHOD                    B3LYP
DFT_D                     d3_op
BASIS                     STO-3G
GEOM_OPT_MAX_CYCLES       100
GEOM_OPT_TOL_GRADIENT     300
GEOM_OPT_TOL_DISPLACEMENT 1200
GEOM_OPT_TOL_ENERGY       100
SYMMETRY                  False
THRESH                    12
SCF_CONVERGENCE           8
MAX_SUB_FILE_NUM          128
MEM_STATIC                400
MEM_TOTAL                 4000
$end
--------------------------------------------------------------

   16   -1510.2729575712      5.35E-09 Convergence criterion met
 Total energy in the final basis set = -1510.27295757
   13   -1510.2746979019      7.56E-09 Convergence criterion met
 Total energy in the final basis set = -1510.27469790
   13   -1510.2760310792      5.67E-09 Convergence criterion met
 Total energy in the final basis set = -1510.27603108
   13   -1510.2772684819      4.55E-09 Convergence criterion met
 Total energy in the final basis set = -1510.27726848
   13   -1510.2783173870      5.04E-09 Convergence criterion met
 Total energy in the final basis set = -1510.27831739
   13   -1510.2791749485      5.70E-09 Convergence criterion met
 Total energy in the final basis set = -1510.27917495
   13   -1510.2798428526      5.20E-09 Convergence criterion met
 Total energy in the final basis set = -1510.27984285
   13   -1510.2804305134      4.76E-09 Convergence criterion met
   12   -1510.3029770463      6.90E-09 Convergence criterion met
 Total energy in the final basis set = -1510.30297705
   11   -1510.3030943726      8.23E-09 Convergence criterion met
 Total energy in the final basis set = -1510.30309437
   12   -1510.3031948645      7.22E-09 Convergence criterion met
 Total energy in the final basis set = -1510.30319486
   12   -1510.3032606973      6.50E-09 Convergence criterion met
 Total energy in the final basis set = -1510.30326070
   11   -1510.3032753755      7.57E-09 Convergence criterion met
 Total energy in the final basis set = -1510.30327538
   10   -1510.3032772968      5.13E-09 Convergence criterion met
 Total energy in the final basis set = -1510.30327730

             Standard Nuclear Orientation (Angstroms)
    I     Atom           X                Y                Z
 ----------------------------------------------------------------
    1      O      -2.9464637076    -0.7018561702     1.9754680206
    2      C      -3.4414116431    -0.1238938084     0.9843217938
    3      C      -3.0564966825    -0.3273993625    -0.5277773103
    4      C      -1.9878606041     0.7042035724    -1.0840450325
    5      C      -1.4724011705     1.6771129649     0.0341950506
    6      O      -0.2678094543     2.3131772991    -0.3997224164
    7      C       0.2386460708     3.2310220151     0.6501916503
    8      C       0.6668409508     2.4620416754     1.9749719412
    9      O       0.6932165207     0.9958708702     1.7694621003
   10      C       1.7588629062     0.6405413184     0.8819709083
   11      C       1.6810067782    -0.8889352509     0.5880459096
   12      C       2.4946652778    -1.2757895195    -0.7129224925
   13      C       3.0349014677    -0.0420989579    -1.5180353452
   14      O       4.2159484352     0.2795560458    -1.7551633717
   15      O      -4.5814278539     0.7474996544     1.0335410659
   16      O       1.8904992660     0.6276276301    -2.0920006231
   17      O       2.5957151440     1.4602591003     0.4385985366
   18      C       2.3012879118     1.8681871433    -2.7782595721
   19      C       2.4695698956    -1.7259252019     1.6815151867
   20      C       2.1468358838    -3.2586129198     1.4680528137
   21      C       3.0386139960    -3.5895515993     0.2131091272
   22      C       3.6508758077    -2.1700646759    -0.1027442939
   23      O       3.8789486676    -1.5930865665     1.2437667150
   24      H       0.6118899059    -1.1807471967     0.4838105119
   25      H       1.8510148426    -1.8628447188    -1.3935675751
   26      H       2.3457056081    -1.3592001915     2.7190885691
   27      H       2.4511280559    -3.8454452694     2.3491487628
   28      H       1.0739539600    -3.4264177737     1.2818683524
   29      H       3.8364984777    -4.3066163996     0.4642310933
   30      H       2.4547151173    -3.9905768800    -0.6306501964
   31      H       4.5901775438    -2.1647915768    -0.6890833536
   32      O      -2.0268123976     1.9088043370     1.1323597605
   33      C      -4.9367871050     1.0207854233     2.4430448204
   34      C      -2.2953250275    -1.7001942368    -0.7564114754
   35      C      -2.3889547537    -2.0654857578    -2.2873758904
   36      C      -1.3993359952    -1.0097373077    -2.9070995971
   37      C      -0.8602580266    -0.2752052560    -1.6158562729
   38      O      -0.8664891696    -1.3482230011    -0.5928225050
   39      H      -3.9838341316    -0.2799989355    -1.1251690694
   40      H      -2.4093157907     1.3179096118    -1.9017304012
   41      H      -4.1155482494     1.5521851247     2.9662479184
   42      H      -2.5780549768    -2.5025903363    -0.0477435243
   43      H      -2.0372394065    -3.0956697172    -2.4572577533
   44      H      -3.4152501948    -1.9732266179    -2.6769254111
   45      H      -0.5697769900    -1.4971212401    -3.4437234964
   46      H      -1.9019505872    -0.3140541447    -3.5978453496
   47      H       0.1586956934     0.1743400332    -1.7225313538
   48      H      -5.1634753748     0.0872736806     2.9979336903
   49      H      -5.8357789537     1.6637355884     2.4153789791
   50      H       1.3741848552     2.3226562624    -3.1733591148
   51      H       3.0017451500     1.6597812146    -3.6128731129
   52      H       2.7885761549     2.5708713199    -2.0718380893
   53      H       1.6578011746     2.8354095515     2.3108089790
   54      H      -0.0842059037     2.6230602041     2.7718226775
   55      H      -0.5234745643     3.9998850435     0.8999075325
   56      H       1.1191411554     3.7182271771     0.1887585669
 ----------------------------------------------------------------

    9   -1510.3032771598      3.46E-09 Convergence criterion met
 Total energy in the final basis set = -1510.30327716
 Final energy is   -1510.30327715977
 **  OPTIMIZATION CONVERGED  **

                    Orbital Energies (a.u.)
 --------------------------------------------------------------

 Alpha MOs
 -- Occupied --
-18.945 -18.936 -18.928 -18.919 -18.893 -18.886 -18.877 -18.875
-18.869 -18.858 -10.108 -10.097 -10.095 -10.089 -10.078 -10.074
-10.061 -10.061 -10.053 -10.051 -10.050 -10.046 -10.040 -10.032
-10.026 -10.020 -10.018 -10.017 -10.012 -10.011  -1.026  -1.010
 -1.001  -0.996  -0.973  -0.961  -0.945  -0.936  -0.930  -0.923
 -0.763  -0.754  -0.727  -0.717  -0.710  -0.701  -0.691  -0.657
 -0.654  -0.621  -0.594  -0.577  -0.545  -0.539  -0.538  -0.530
 -0.509  -0.502  -0.476  -0.473  -0.461  -0.460  -0.452  -0.438
 -0.431  -0.428  -0.424  -0.418  -0.407  -0.405  -0.403  -0.400
 -0.393  -0.378  -0.373  -0.363  -0.362  -0.354  -0.348  -0.347
 -0.343  -0.334  -0.331  -0.329  -0.327  -0.323  -0.319  -0.313
 -0.307  -0.302  -0.299  -0.295  -0.292  -0.276  -0.275  -0.274
 -0.269  -0.259  -0.250  -0.246  -0.243  -0.232  -0.220  -0.194
 -0.175  -0.171  -0.163  -0.160  -0.153  -0.150  -0.145  -0.140
 -0.136

          Ground-State Mulliken Net Atomic Charges

     Atom                 Charge (a.u.)
  ----------------------------------------
      1 O                    -0.219263
      2 C                     0.214290
      3 C                    -0.082035
      4 C                    -0.078454
      5 C                     0.216693
      6 O                    -0.168333
      7 C                    -0.050683
      8 C                    -0.050649
      9 O                    -0.166193
     10 C                     0.212935
     11 C                    -0.093841
     12 C                    -0.082258
     13 C                     0.220494
     14 O                    -0.209471
     15 O                    -0.174224
     16 O                    -0.179423
     17 O                    -0.215485
     18 C                    -0.125593
     19 C                     0.024566
     20 C                    -0.143494
     21 C                    -0.143071
     22 C                     0.023776
     23 O                    -0.191429
     24 H                     0.118938
     25 H                     0.084344
     26 H                     0.082481
     27 H                     0.075998
     28 H                     0.077963
     29 H                     0.075889
     30 H                     0.072187
     31 H                     0.087119
     32 O                    -0.208029
     33 C                    -0.127970
     34 C                     0.027006
     35 C                    -0.143873
     36 C                    -0.145170
     37 C                     0.006543
     38 O                    -0.197474
     39 H                     0.083947
     40 H                     0.085455
     41 H                     0.091346
     42 H                     0.087073
     43 H                     0.076199
     44 H                     0.073578
     45 H                     0.075866
     46 H                     0.071865
     47 H                     0.115221
     48 H                     0.085980
     49 H                     0.085669
     50 H                     0.088510
     51 H                     0.087716
     52 H                     0.093368
     53 H                     0.091060
     54 H                     0.097839
     55 H                     0.088522
     56 H                     0.095975
  ----------------------------------------
  Sum of atomic charges =    -0.000000

                    Cartesian Multipole Moments
 -----------------------------------------------------------------
    Charge (ESU x 10^10)
                -0.0000
    Dipole Moment (Debye)
         X      -2.9075      Y       0.7616      Z      -1.8094
       Tot       3.5082
    Quadrupole Moments (Debye-Ang)
        XX    -172.4983     XY      -1.3426     YY    -146.9576
        XZ       2.1397     YZ       4.0316     ZZ    -154.0137

 Total job time:  247.79s(wall), 11818.80s(cpu)
        *  Thank you very much for using Q-Chem.  Have a nice day.  *
