 Q-Chem 5.0, Q-Chem, Inc., Pleasanton, CA (2017)
 Q-Chem 5.0.1 for Intel X86 EM64T Linux

User input:
--------------------------------------------------------------
$molecule
0  1
O -3.94934 -3.66094 2.70899
C -3.26408 -4.56952 2.26188
C -3.36658 -6.02376 2.66595
C -2.11815 -6.89842 2.46535
C -0.85245 -6.18199 2.04961
O -0.98805 -4.8396 2.26183
C 0.00587 -4.05982 1.58855
C -0.06941 -2.60606 2.04357
O 1.23799 -2.14084 2.41394
C 2.01006 -1.69633 1.39146
C 3.48048 -1.66641 1.73441
C 4.36649 -0.92657 0.72154
C 3.6391 -0.03862 -0.26799
O 4.13876 0.88826 -0.8891
O -2.95755 -4.44382 0.93141
O 2.28596 0.00761 -0.38558
O 1.73142 -2.13668 0.27633
C 1.5472 0.84642 -1.20103
C 3.79546 -0.87312 3.02097
C 5.1258 -1.34896 3.6012
C 6.09347 -0.7928 2.57796
C 5.12675 0.00122 1.69129
O 4.1135 0.4192 2.57211
H 3.79954 -2.7248 1.87349
H 5.04514 -1.59084 0.1437
H 3.0008 -0.93697 3.79543
H 5.27266 -0.80408 4.56154
H 5.20638 -2.44176 3.78601
H 6.80312 -0.11338 3.10033
H 6.6529 -1.55205 1.98954
H 5.67491 0.81328 1.16463
O 0.18766 -6.7448 1.73095
C -3.07393 -3.30259 0.15548
C -3.53573 -6.17891 4.19528
C -4.17739 -7.52872 4.51661
C -3.02748 -8.46748 4.21733
C -1.92655 -7.45738 3.8808
O -2.22686 -6.34404 4.68557
H -4.27092 -6.43529 2.1634
H -2.30269 -7.67715 1.69273
H -3.41392 -2.41893 0.73589
H -4.12997 -5.36225 4.66032
H -4.37068 -7.54768 5.6133
H -5.12307 -7.74538 3.97483
H -2.77419 -9.02205 5.14822
H -3.20174 -9.18214 3.3839
H -0.92149 -7.91146 4.02678
H -3.79837 -3.49342 -0.66265
H -2.09152 -3.06438 -0.29858
H 0.46866 0.62443 -1.06683
H 1.81695 0.67889 -2.26557
H 1.72858 1.90763 -0.92694
H -0.64076 -1.92735 1.37278
H -0.62754 -2.60697 3.00474
H -0.02598 -4.15858 0.48163
H 0.99682 -4.43873 1.93341
$end

$opt
CONSTRAINT
tors           1           2           3           4    -155.687
tors           3           4           5           6     +15.438
tors           4           5           6           7    -164.834
tors           5           6           7           8    -171.040
tors           6           7           8           9    +130.207
tors           7           8           9          10     +84.108
tors           8           9          10          11    -160.490
tors           9          10          11          12    -168.861
tors          11          12          13          14    +158.748
ENDCONSTRAINT
$end

$rem
JOBTYPE                   OPT
METHOD                    B3LYP
DFT_D                     d3_op
BASIS                     STO-3G
GEOM_OPT_MAX_CYCLES       100
GEOM_OPT_TOL_GRADIENT     300
GEOM_OPT_TOL_DISPLACEMENT 1200
GEOM_OPT_TOL_ENERGY       100
SYMMETRY                  False
THRESH                    12
SCF_CONVERGENCE           8
MAX_SUB_FILE_NUM          128
MEM_STATIC                400
MEM_TOTAL                 4000
$end
--------------------------------------------------------------

   15   -1510.0796287690      9.91E-09 Convergence criterion met
 Total energy in the final basis set = -1510.07962877
   14   -1510.1584180148      7.66E-09 Convergence criterion met
 Total energy in the final basis set = -1510.15841801
   14   -1510.2020687409      7.04E-09 Convergence criterion met
 Total energy in the final basis set = -1510.20206874
   15   -1510.2279666819      1.57E-09 Convergence criterion met
 Total energy in the final basis set = -1510.22796668
   14   -1510.2418561777      4.80E-09 Convergence criterion met
 Total energy in the final basis set = -1510.24185618
   13   -1510.2493988946      8.33E-09 Convergence criterion met
 Total energy in the final basis set = -1510.24939889
   13   -1510.2538457280      7.05E-09 Convergence criterion met
 Total energy in the final basis set = -1510.25384573
   13   -1510.2565498331      4.52E-09 Convergence criterion met
   11   -1510.2593183714      7.40E-09 Convergence criterion met
 Total energy in the final basis set = -1510.25931837
   11   -1510.2593410785      5.04E-09 Convergence criterion met
 Total energy in the final basis set = -1510.25934108
   11   -1510.2593568202      5.82E-09 Convergence criterion met
 Total energy in the final basis set = -1510.25935682
   10   -1510.2593668403      7.49E-09 Convergence criterion met
 Total energy in the final basis set = -1510.25936684
   10   -1510.2593731418      5.09E-09 Convergence criterion met
 Total energy in the final basis set = -1510.25937314
    9   -1510.2593757273      5.34E-09 Convergence criterion met
 Total energy in the final basis set = -1510.25937573

             Standard Nuclear Orientation (Angstroms)
    I     Atom           X                Y                Z
 ----------------------------------------------------------------
    1      O      -3.7491298332     2.2481381318     1.3971591790
    2      C      -3.9072948048     1.6357115530     0.3181297127
    3      C      -4.8741336059     0.4275627418     0.0625991485
    4      C      -4.4916273659    -0.5271329741    -1.1309681649
    5      C      -2.9454839562    -0.6025555298    -1.4135986046
    6      O      -2.2269778895    -0.0648743121    -0.2926167720
    7      C      -0.8202144306     0.2140347872    -0.6628575133
    8      C      -0.0576688979     0.5736060006     0.6681006311
    9      O       1.1924167857    -0.2084549060     0.7958240822
   10      C       2.2568973369     0.4403972557     0.0678179960
   11      C       3.3555750929    -0.6523134904    -0.1760472561
   12      C       4.7880467227    -0.2525531993    -0.7151875633
   13      C       5.4384612556     1.1281468446    -0.2954163675
   14      O       6.6685298953     1.3570417083    -0.3449152354
   15      O      -3.4708035128     2.1454913047    -0.9582949349
   16      O       4.4958334187     2.0429836882     0.2536805209
   17      O       2.1475341193     1.5804703494    -0.4282326444
   18      C       5.1890077027     3.2760993881     0.6957578626
   19      C       3.7271546170    -1.5953943400     1.0580611686
   20      C       3.9467197743    -3.0410204041     0.4688251995
   21      C       5.2628522125    -2.8076936646    -0.3639154526
   22      C       5.6535189910    -1.3378941897     0.0655392138
   23      O       5.1009142951    -1.1945407866     1.4366628710
   24      H       2.8924285069    -1.2919479374    -0.9531067187
   25      H       4.8512889676    -0.3575236053    -1.8139249068
   26      H       3.0366902570    -1.5234243658     1.9203730261
   27      H       4.1098747220    -3.7660123791     1.2824746399
   28      H       3.0995768992    -3.3819781060    -0.1475297257
   29      H       6.0564356683    -3.5168491661    -0.0804641191
   30      H       5.0951933461    -2.8847647791    -1.4504518792
   31      H       6.7377448413    -1.1120553907     0.0571687607
   32      O      -2.3968957956    -1.0495826851    -2.4431172902
   33      C      -2.6908486235     3.3892473575    -0.7702538374
   34      C      -5.0688935218    -0.6021163506     1.2569329333
   35      C      -6.5448167929    -1.1449898635     1.1474286313
   36      C      -6.4438004415    -1.9781356269    -0.1858317930
   37      C      -4.8890543451    -1.9242007119    -0.4741576906
   38      O      -4.2708485827    -1.7896209635     0.8683586404
   39      H      -5.8517358243     0.8954217410    -0.1652873723
   40      H      -5.0276975190    -0.3056694385    -2.0699347017
   41      H      -2.6994180001     3.6671880580     0.3034467564
   42      H      -4.7587838193    -0.2225650304     2.2499315382
   43      H      -6.7765564243    -1.7938771953     2.0074547596
   44      H      -7.2944789265    -0.3391684962     1.0969694876
   45      H      -6.7779839980    -3.0181110859    -0.0452741160
   46      H      -7.0258368861    -1.5305388295    -1.0077197916
   47      H      -4.4788334355    -2.8059481699    -1.0042587817
   48      H      -3.1510230494     4.1932782992    -1.3770387631
   49      H      -1.6489702907     3.2283272472    -1.1109421413
   50      H       4.4039154812     3.9199519497     1.1327991185
   51      H       5.6701975533     3.8011792232    -0.1543018237
   52      H       5.9626791885     3.0567939220     1.4595546288
   53      H       0.1551342627     1.6619797347     0.7097857494
   54      H      -0.6944357067     0.2857886817     1.5297161205
   55      H      -0.7738275976     1.0477186736    -1.3954067573
   56      H      -0.3590064808    -0.6829692096    -1.1329834560
 ----------------------------------------------------------------

    9   -1510.2593760521      4.37E-09 Convergence criterion met
 Total energy in the final basis set = -1510.25937605
 Final energy is   -1510.25937605211
 **  OPTIMIZATION CONVERGED  **

                    Orbital Energies (a.u.)
 --------------------------------------------------------------

 Alpha MOs
 -- Occupied --
-18.938 -18.935 -18.929 -18.926 -18.888 -18.885 -18.881 -18.880
-18.873 -18.865 -10.104 -10.102 -10.102 -10.095 -10.075 -10.072
-10.063 -10.061 -10.060 -10.058 -10.056 -10.056 -10.041 -10.039
-10.039 -10.037 -10.023 -10.021 -10.020 -10.018  -1.018  -1.013
 -1.007  -1.005  -0.972  -0.969  -0.943  -0.937  -0.933  -0.929
 -0.767  -0.762  -0.730  -0.721  -0.712  -0.705  -0.694  -0.659
 -0.659  -0.617  -0.600  -0.583  -0.548  -0.542  -0.540  -0.536
 -0.514  -0.512  -0.489  -0.478  -0.468  -0.463  -0.442  -0.441
 -0.435  -0.433  -0.425  -0.412  -0.411  -0.409  -0.406  -0.404
 -0.396  -0.382  -0.375  -0.368  -0.363  -0.360  -0.356  -0.348
 -0.343  -0.340  -0.336  -0.333  -0.329  -0.323  -0.315  -0.312
 -0.309  -0.307  -0.306  -0.301  -0.296  -0.294  -0.294  -0.276
 -0.271  -0.252  -0.248  -0.246  -0.244  -0.236  -0.233  -0.184
 -0.177  -0.174  -0.167  -0.160  -0.153  -0.152  -0.147  -0.146
 -0.142

          Ground-State Mulliken Net Atomic Charges

     Atom                 Charge (a.u.)
  ----------------------------------------
      1 O                    -0.220859
      2 C                     0.219313
      3 C                    -0.077894
      4 C                    -0.075853
      5 C                     0.218174
      6 O                    -0.169784
      7 C                    -0.049056
      8 C                    -0.052201
      9 O                    -0.176742
     10 C                     0.211846
     11 C                    -0.079573
     12 C                    -0.076408
     13 C                     0.210680
     14 O                    -0.220489
     15 O                    -0.178574
     16 O                    -0.159811
     17 O                    -0.203608
     18 C                    -0.126393
     19 C                     0.024690
     20 C                    -0.141354
     21 C                    -0.146397
     22 C                     0.023420
     23 O                    -0.192791
     24 H                     0.083807
     25 H                     0.084354
     26 H                     0.090119
     27 H                     0.078103
     28 H                     0.073826
     29 H                     0.078772
     30 H                     0.073294
     31 H                     0.089778
     32 O                    -0.211676
     33 C                    -0.138087
     34 C                     0.024658
     35 C                    -0.141356
     36 C                    -0.145426
     37 C                     0.023755
     38 O                    -0.190827
     39 H                     0.083798
     40 H                     0.089482
     41 H                     0.101586
     42 H                     0.090158
     43 H                     0.078545
     44 H                     0.073871
     45 H                     0.078767
     46 H                     0.073936
     47 H                     0.083823
     48 H                     0.084470
     49 H                     0.080980
     50 H                     0.091472
     51 H                     0.088805
     52 H                     0.090532
     53 H                     0.096138
     54 H                     0.099313
     55 H                     0.087749
     56 H                     0.093145
  ----------------------------------------
  Sum of atomic charges =    -0.000000

                    Cartesian Multipole Moments
 -----------------------------------------------------------------
    Charge (ESU x 10^10)
                -0.0000
    Dipole Moment (Debye)
         X      -2.4266      Y      -0.2385      Z      -1.0759
       Tot       2.6651
    Quadrupole Moments (Debye-Ang)
        XX    -155.6026     XY      -2.6588     YY    -153.2575
        XZ      -0.4924     YZ       0.6793     ZZ    -165.8301

 Total job time:  60.97s(wall), 2898.63s(cpu)
        *  Thank you very much for using Q-Chem.  Have a nice day.  *
