 Q-Chem 5.0, Q-Chem, Inc., Pleasanton, CA (2017)
 Q-Chem 5.0.1 for Intel X86 EM64T Linux

User input:
--------------------------------------------------------------
$molecule
0  1
O -3.7491298332 2.2481381318 1.397159179
C -3.9072948048 1.635711553 0.3181297127
C -4.8741336059 0.4275627418 0.0625991485
C -4.4916273659 -0.5271329741 -1.1309681649
C -2.9454839562 -0.6025555298 -1.4135986046
O -2.2269778895 -0.0648743121 -0.292616772
C -0.8202144306 0.2140347872 -0.6628575133
C -0.0576688979 0.5736060006 0.6681006311
O 1.1924167857 -0.208454906 0.7958240822
C 2.2568973369 0.4403972557 0.067817996
C 3.3555750929 -0.6523134904 -0.1760472561
C 4.7880467227 -0.2525531993 -0.7151875633
C 5.4384612556 1.1281468446 -0.2954163675
O 6.6685298953 1.3570417083 -0.3449152354
O -3.4708035128 2.1454913047 -0.9582949349
O 4.4958334187 2.0429836882 0.2536805209
O 2.1475341193 1.5804703494 -0.4282326444
C 5.1890077027 3.2760993881 0.6957578626
C 3.727154617 -1.59539434 1.0580611686
C 3.9467197743 -3.0410204041 0.4688251995
C 5.2628522125 -2.8076936646 -0.3639154526
C 5.653518991 -1.3378941897 0.0655392138
O 5.1009142951 -1.1945407866 1.436662871
H 2.8924285069 -1.2919479374 -0.9531067187
H 4.8512889676 -0.3575236053 -1.8139249068
H 3.036690257 -1.5234243658 1.9203730261
H 4.109874722 -3.7660123791 1.2824746399
H 3.0995768992 -3.381978106 -0.1475297257
H 6.0564356683 -3.5168491661 -0.0804641191
H 5.0951933461 -2.8847647791 -1.4504518792
H 6.7377448413 -1.1120553907 0.0571687607
O -2.3968957956 -1.0495826851 -2.4431172902
C -2.6908486235 3.3892473575 -0.7702538374
C -5.0688935218 -0.6021163506 1.2569329333
C -6.5448167929 -1.1449898635 1.1474286313
C -6.4438004415 -1.9781356269 -0.185831793
C -4.8890543451 -1.9242007119 -0.4741576906
O -4.2708485827 -1.7896209635 0.8683586404
H -5.8517358243 0.895421741 -0.1652873723
H -5.027697519 -0.3056694385 -2.0699347017
H -2.6994180001 3.667188058 0.3034467564
H -4.7587838193 -0.2225650304 2.2499315382
H -6.7765564243 -1.7938771953 2.0074547596
H -7.2944789265 -0.3391684962 1.0969694876
H -6.777983998 -3.0181110859 -0.045274116
H -7.0258368861 -1.5305388295 -1.0077197916
H -4.4788334355 -2.8059481699 -1.0042587817
H -3.1510230494 4.1932782992 -1.3770387631
H -1.6489702907 3.2283272472 -1.1109421413
H 4.4039154812 3.9199519497 1.1327991185
H 5.6701975533 3.8011792232 -0.1543018237
H 5.9626791885 3.056793922 1.4595546288
H 0.1551342627 1.6619797347 0.7097857494
H -0.6944357067 0.2857886817 1.5297161205
H -0.7738275976 1.0477186736 -1.3954067573
H -0.3590064808 -0.6829692096 -1.132983456
$end

$rem
JOBTYPE                   OPT
METHOD                    B3LYP
DFT_D                     d3_op
BASIS                     STO-3G
GEOM_OPT_MAX_CYCLES       100
GEOM_OPT_TOL_GRADIENT     300
GEOM_OPT_TOL_DISPLACEMENT 1200
GEOM_OPT_TOL_ENERGY       100
SYMMETRY                  False
THRESH                    12
SCF_CONVERGENCE           8
MAX_SUB_FILE_NUM          128
MEM_STATIC                400
MEM_TOTAL                 4000
$end
--------------------------------------------------------------

   16   -1510.2594007770      5.88E-09 Convergence criterion met
 Total energy in the final basis set = -1510.25940078
   14   -1510.2634898838      1.45E-09 Convergence criterion met
 Total energy in the final basis set = -1510.26348988
   13   -1510.2660984621      7.27E-09 Convergence criterion met
 Total energy in the final basis set = -1510.26609846
   13   -1510.2685939743      5.78E-09 Convergence criterion met
 Total energy in the final basis set = -1510.26859397
   13   -1510.2707505024      4.46E-09 Convergence criterion met
 Total energy in the final basis set = -1510.27075050
   13   -1510.2727917477      4.89E-09 Convergence criterion met
 Total energy in the final basis set = -1510.27279175
   13   -1510.2748134180      4.26E-09 Convergence criterion met
 Total energy in the final basis set = -1510.27481342
   13   -1510.2767922212      3.51E-09 Convergence criterion met
   12   -1510.2939213409      3.25E-09 Convergence criterion met
 Total energy in the final basis set = -1510.29392134
   12   -1510.2939130820      2.35E-09 Convergence criterion met
 Total energy in the final basis set = -1510.29391308
   12   -1510.2939184922      3.18E-09 Convergence criterion met
 Total energy in the final basis set = -1510.29391849
   12   -1510.2939080258      4.45E-09 Convergence criterion met
 Total energy in the final basis set = -1510.29390803
   12   -1510.2939275869      2.74E-09 Convergence criterion met
 Total energy in the final basis set = -1510.29392759
   11   -1510.2939197182      6.66E-09 Convergence criterion met
 Total energy in the final basis set = -1510.29391972

             Standard Nuclear Orientation (Angstroms)
    I     Atom           X                Y                Z
 ----------------------------------------------------------------
    1      O      -1.6813045432     1.4893218903     1.0220925470
    2      C      -2.5263675155     1.4782318822     0.0997145827
    3      C      -4.0648107970     1.1518207113     0.1749331995
    4      C      -4.5034528079    -0.0409007388    -0.7793294233
    5      C      -3.2716330928    -0.7270045856    -1.4626863789
    6      O      -2.3557184449    -1.0383924456    -0.4072562463
    7      C      -1.0499137405    -1.5178809135    -0.9129568230
    8      C      -0.0623361451    -1.1967854292     0.2672956528
    9      O       1.3452583969    -1.5588952766    -0.0174716984
   10      C       1.9575713203    -0.6119430103    -0.8880150945
   11      C       3.4908270853    -0.9291397007    -1.0389338210
   12      C       4.4047165916     0.2089953733    -0.4064526533
   13      C       3.6014333225     1.3868954966     0.2404921036
   14      O       3.7977707540     2.6117758125     0.0898686828
   15      O      -2.2546397240     1.8377580960    -1.2563194687
   16      O       2.5752319433     0.8312655640     1.0724007969
   17      O       1.3518731831     0.3092002613    -1.4853531044
   18      C       1.7293878998     1.9079716602     1.6375763670
   19      C       3.9651877020    -2.1932345471    -0.2093183913
   20      C       5.3993978593    -2.6155638250    -0.7199768557
   21      C       6.2963810898    -1.4970637139    -0.0715198164
   22      C       5.2080535244    -0.6340799270     0.6808134727
   23      O       4.2235289809    -1.6374559562     1.1396206824
   24      H       3.7044679967    -1.0399456423    -2.1178344605
   25      H       5.0833856659     0.6457615002    -1.1596788974
   26      H       3.2181672875    -3.0075889723    -0.1553282678
   27      H       5.6633978806    -3.6155484293    -0.3408401882
   28      H       5.4616034899    -2.6270075730    -1.8198487917
   29      H       7.0134715106    -1.9218318642     0.6489094086
   30      H       6.8524897131    -0.9084689399    -0.8184879726
   31      H       5.5851216262    -0.0395814448     1.5354158172
   32      O      -3.0768182798    -0.9700286689    -2.6715029456
   33      C      -0.8489612755     2.2801237259    -1.4229635116
   34      C      -4.5135162075     0.5991637078     1.5896152666
   35      C      -6.0795984861     0.7653429203     1.7007129961
   36      C      -6.5708910243    -0.3653597500     0.7214735690
   37      C      -5.1966942531    -1.0078781629     0.2768387790
   38      O      -4.3382241505    -0.8679684614     1.4737799528
   39      H      -4.6162025069     2.0735804903    -0.0864809393
   40      H      -5.2027833918     0.2913903798    -1.5661264194
   41      H      -0.5836490109     3.0500816277    -0.6710481051
   42      H      -3.9208787849     0.9929674361     2.4380631211
   43      H      -6.4143733306     0.5762873998     2.7331827468
   44      H      -6.4174168453     1.7693134088     1.3976623681
   45      H      -7.1934580827    -1.1101712180     1.2420938331
   46      H      -7.1385018422     0.0313780846    -0.1356286954
   47      H      -5.2532920088    -2.0677302962    -0.0391265034
   48      H      -0.7966876191     2.7248923881    -2.4334074708
   49      H      -0.1211702841     1.4358370748    -1.3571931354
   50      H       0.9627158354     1.4047064707     2.2547566462
   51      H       1.2280923856     2.4891608641     0.8375902807
   52      H       2.3220605088     2.6028864054     2.2663444390
   53      H      -0.1667243124    -0.1194351664     0.5254870675
   54      H      -0.3441158226    -1.8008922623     1.1527122828
   55      H      -0.7591845344    -0.9787719553    -1.8392315256
   56      H      -1.0802150819    -2.6081668075    -1.1286075764
 ----------------------------------------------------------------

    9   -1510.2939206870      9.84E-09 Convergence criterion met
 Total energy in the final basis set = -1510.29392069
 Final energy is   -1510.29392068695
 **  OPTIMIZATION CONVERGED  **

                    Orbital Energies (a.u.)
 --------------------------------------------------------------

 Alpha MOs
 -- Occupied --
-18.943 -18.937 -18.931 -18.925 -18.890 -18.886 -18.878 -18.878
-18.876 -18.868 -10.111 -10.100 -10.099 -10.097 -10.070 -10.069
-10.063 -10.060 -10.060 -10.060 -10.057 -10.041 -10.041 -10.039
-10.036 -10.034 -10.022 -10.021 -10.020 -10.019  -1.021  -1.014
 -1.009  -1.002  -0.971  -0.968  -0.944  -0.937  -0.937  -0.930
 -0.765  -0.762  -0.729  -0.724  -0.713  -0.705  -0.694  -0.659
 -0.652  -0.615  -0.597  -0.582  -0.548  -0.545  -0.539  -0.536
 -0.518  -0.510  -0.489  -0.477  -0.472  -0.462  -0.449  -0.437
 -0.435  -0.430  -0.428  -0.413  -0.410  -0.408  -0.400  -0.398
 -0.390  -0.377  -0.372  -0.367  -0.364  -0.358  -0.356  -0.346
 -0.343  -0.342  -0.333  -0.331  -0.329  -0.325  -0.323  -0.309
 -0.309  -0.306  -0.304  -0.300  -0.298  -0.290  -0.287  -0.278
 -0.273  -0.258  -0.251  -0.247  -0.243  -0.234  -0.233  -0.186
 -0.177  -0.177  -0.169  -0.159  -0.156  -0.151  -0.147  -0.145
 -0.142

          Ground-State Mulliken Net Atomic Charges

     Atom                 Charge (a.u.)
  ----------------------------------------
      1 O                    -0.223815
      2 C                     0.214371
      3 C                    -0.077548
      4 C                    -0.077650
      5 C                     0.213756
      6 O                    -0.172335
      7 C                    -0.051433
      8 C                    -0.049615
      9 O                    -0.164168
     10 C                     0.223767
     11 C                    -0.077732
     12 C                    -0.079464
     13 C                     0.209256
     14 O                    -0.209539
     15 O                    -0.176979
     16 O                    -0.167878
     17 O                    -0.226995
     18 C                    -0.129098
     19 C                     0.025296
     20 C                    -0.144513
     21 C                    -0.143623
     22 C                     0.026176
     23 O                    -0.184924
     24 H                     0.085022
     25 H                     0.086015
     26 H                     0.091430
     27 H                     0.078339
     28 H                     0.073273
     29 H                     0.078501
     30 H                     0.074325
     31 H                     0.083474
     32 O                    -0.209310
     33 C                    -0.147270
     34 C                     0.024224
     35 C                    -0.143499
     36 C                    -0.144131
     37 C                     0.025763
     38 O                    -0.186185
     39 H                     0.083662
     40 H                     0.085672
     41 H                     0.077860
     42 H                     0.088491
     43 H                     0.077660
     44 H                     0.073007
     45 H                     0.077776
     46 H                     0.073794
     47 H                     0.082148
     48 H                     0.085417
     49 H                     0.110105
     50 H                     0.098833
     51 H                     0.091540
     52 H                     0.089104
     53 H                     0.102527
     54 H                     0.096407
     55 H                     0.096730
     56 H                     0.083989
  ----------------------------------------
  Sum of atomic charges =    -0.000000

                    Cartesian Multipole Moments
 -----------------------------------------------------------------
    Charge (ESU x 10^10)
                 0.0000
    Dipole Moment (Debye)
         X      -0.0690      Y      -0.4331      Z      -0.1486
       Tot       0.4630
    Quadrupole Moments (Debye-Ang)
        XX    -137.4745     XY      -9.5257     YY    -159.6560
        XZ      -7.0176     YZ       5.3574     ZZ    -166.5819

 Total job time:  108.50s(wall), 5173.53s(cpu)
        *  Thank you very much for using Q-Chem.  Have a nice day.  *
