 Q-Chem 5.0, Q-Chem, Inc., Pleasanton, CA (2017)
 Q-Chem 5.0.1 for Intel X86 EM64T Linux

User input:
--------------------------------------------------------------
$molecule
0  1
O -2.8844319029 -1.0540967903 1.547070809
C -4.0495821244 -1.1348026463 1.0979287556
C -4.9600055297 0.0517361759 0.614421757
C -4.1214584381 1.2461332654 -0.0106732258
C -2.5728876217 1.1252301017 0.2169875665
O -2.0081289116 0.3265167633 -0.8350260374
C -0.6114482063 -0.0351052279 -0.5083106991
C 0.4182726536 0.9456968472 -1.2030495309
O 1.5174453905 1.3181128146 -0.2784786952
C 2.4898347224 0.2725943714 -0.2250796889
C 3.5921346046 0.6440525074 0.8326012352
C 4.8847212334 -0.2332852421 0.6145452211
C 4.6297645012 -1.6082452072 -0.1046251897
O 5.2683042204 -2.0931745755 -1.0625536019
O -4.7798364924 -2.3592718103 1.0057995537
O 3.7204003224 -2.3593864799 0.7212703067
O 2.4786195744 -0.72703771 -0.9799706677
C 3.4383020414 -3.6661098302 0.0909625121
C 4.1605942991 2.069464202 0.424823924
C 5.2882083962 2.5210675141 1.4356048328
C 6.5219408303 1.6862501718 0.9246566417
C 5.8265659398 0.779351472 -0.1619980617
O 4.8954066258 1.7285953672 -0.8201878781
H 3.185668148 0.5930951939 1.8585725677
H 5.3282295434 -0.481266731 1.5967988822
H 3.3737335107 2.820880768 0.2205032869
H 5.4674524891 3.6050579726 1.3592300391
H 5.0198601918 2.2813484551 2.4771574848
H 7.2771825062 2.3358182587 0.45378169
H 7.0041830926 1.0997379353 1.7228488671
H 6.4937984059 0.3035856589 -0.9070014043
O -1.9071697849 1.669911705 1.1237076366
C -3.9432587494 -3.4876513258 1.4766153227
C -5.834231233 -0.3776310414 -0.6369180827
C -6.9019527743 0.7477051231 -0.9355323067
C -6.0096535999 1.8433773767 -1.6288684672
C -4.5827826066 1.172351891 -1.5308155386
O -4.8687080516 -0.2628536818 -1.7546852809
H -5.5802059273 0.389788927 1.465307104
H -4.4355416509 2.2007811016 0.4473745996
H -3.6273289446 -3.3499746533 2.5308207084
H -6.2299796644 -1.409011155 -0.5682666972
H -7.681975768 0.3696306895 -1.6152700322
H -7.3842355083 1.1125520559 -0.0144927622
H -6.2939801978 1.9865084464 -2.6836086703
H -6.0496812988 2.8171668983 -1.1152924658
H -3.8331128417 1.5366134767 -2.2591512535
H -3.0367365714 -3.6103211626 0.8493543916
H -4.5760842672 -4.390273731 1.3928406853
H 2.8093063055 -4.2256836501 0.8077331805
H 4.3686279327 -4.2352556578 -0.112380313
H 2.886789109 -3.5395088467 -0.8636176025
H 0.8262187819 0.4936236881 -2.1308925052
H -0.0930034446 1.8987095631 -1.4485386411
H -0.4581503656 -1.0727545124 -0.8662425216
H -0.4568712204 0.012100938 0.5911884615
$end

$rem
JOBTYPE                   OPT
METHOD                    B3LYP
DFT_D                     d3_op
BASIS                     STO-3G
GEOM_OPT_MAX_CYCLES       100
GEOM_OPT_TOL_GRADIENT     300
GEOM_OPT_TOL_DISPLACEMENT 1200
GEOM_OPT_TOL_ENERGY       100
SYMMETRY                  False
THRESH                    12
SCF_CONVERGENCE           8
MAX_SUB_FILE_NUM          128
MEM_STATIC                400
MEM_TOTAL                 4000
$end
--------------------------------------------------------------

   16   -1510.2792647541      6.03E-09 Convergence criterion met
 Total energy in the final basis set = -1510.27926475
   13   -1510.2815272533      4.23E-09 Convergence criterion met
 Total energy in the final basis set = -1510.28152725
   13   -1510.2830918419      7.86E-09 Convergence criterion met
 Total energy in the final basis set = -1510.28309184
   13   -1510.2840768813      6.97E-09 Convergence criterion met
 Total energy in the final basis set = -1510.28407688
   13   -1510.2848707773      3.20E-09 Convergence criterion met
 Total energy in the final basis set = -1510.28487078
   13   -1510.2854511474      4.76E-09 Convergence criterion met
 Total energy in the final basis set = -1510.28545115
   13   -1510.2858331478      3.28E-09 Convergence criterion met
 Total energy in the final basis set = -1510.28583315
   13   -1510.2864846057      4.22E-09 Convergence criterion met
   13   -1510.2881482984      3.61E-09 Convergence criterion met
 Total energy in the final basis set = -1510.28814830
   12   -1510.2881575572      6.12E-09 Convergence criterion met
 Total energy in the final basis set = -1510.28815756
   12   -1510.2881502237      3.51E-09 Convergence criterion met
 Total energy in the final basis set = -1510.28815022
   11   -1510.2881606295      6.69E-09 Convergence criterion met
 Total energy in the final basis set = -1510.28816063
   10   -1510.2881570883      7.69E-09 Convergence criterion met
 Total energy in the final basis set = -1510.28815709
   10   -1510.2881515148      4.88E-09 Convergence criterion met
 Total energy in the final basis set = -1510.28815151

             Standard Nuclear Orientation (Angstroms)
    I     Atom           X                Y                Z
 ----------------------------------------------------------------
    1      O      -3.1448856293    -1.1030494022     1.9615187069
    2      C      -4.2670272305    -1.2281315296     1.4210675096
    3      C      -5.0277171737    -0.1704555748     0.5515637351
    4      C      -4.1557144401     1.1126069467     0.2315670888
    5      C      -2.7280330263     1.1066938761     0.8955744336
    6      O      -1.8255745988     0.3803970275     0.0477329553
    7      C      -0.4998765430     0.2523445834     0.6938523043
    8      C       0.3168835867     1.6010312448     0.6532788865
    9      O       1.6892251586     1.4063836922     1.1847667179
   10      C       2.5281623432     0.8102601690     0.1929622911
   11      C       3.9599824067     0.6213900031     0.7912749679
   12      C       4.8311959916    -0.4105626803    -0.0346506838
   13      C       4.0587429591    -1.1068759644    -1.2164007316
   14      O       4.2767525460    -0.9836229403    -2.4396772801
   15      O      -5.0708001508    -2.4050464411     1.5136018150
   16      O       3.1178253350    -2.0310929628    -0.6462186473
   17      O       2.1549700754     0.5258451250    -0.9680546581
   18      C       2.3051113684    -2.6411118315    -1.7217088832
   19      C       4.8182445461     1.9484218561     0.6004269249
   20      C       6.1323456791     1.8282644639     1.4693020120
   21      C       6.9858566662     0.8334433111     0.5974951528
   22      C       5.9828270510     0.5296505728    -0.5821941934
   23      O       5.3006207065     1.8295566768    -0.7927627454
   24      H       3.8699366627     0.3424208484     1.8557615279
   25      H       5.2265221672    -1.2006246095     0.6291765878
   26      H       4.2445679620     2.8857811944     0.7389277982
   27      H       6.6229633054     2.8102970398     1.5606569410
   28      H       5.9266550942     1.4412782721     2.4802016415
   29      H       7.8973550519     1.3171233459     0.2117989841
   30      H       7.2740087981    -0.0767301410     1.1474677956
   31      H       6.4371784741     0.1776029159    -1.5285857976
   32      O      -2.3917180684     1.7196638605     1.9324193124
   33      C      -4.3677388706    -3.4414098587     2.3059042952
   34      C      -5.3195503511    -0.7159964070    -0.9134571964
   35      C      -6.3863864126     0.2293094077    -1.5936514491
   36      C      -5.5069321014     1.4924433329    -1.9206678460
   37      C      -4.1016676387     1.0408868480    -1.3557709167
   38      O      -4.0666659225    -0.4126154532    -1.6392330462
   39      H      -5.9665845534     0.0940303712     1.0718237037
   40      H      -4.6718592475     2.0248231505     0.5791859896
   41      H      -4.1500667262    -3.0907530089     3.3352713449
   42      H      -5.5468502389    -1.7990388232    -0.9528700404
   43      H      -6.7849215548    -0.2355405430    -2.5094503739
   44      H      -7.2267295722     0.4592226335    -0.9194181556
   45      H      -5.4450317864     1.6720937142    -3.0057647296
   46      H      -5.8766269635     2.4074210043    -1.4310684627
   47      H      -3.2255240120     1.5433559174    -1.8085024768
   48      H      -3.4137836738    -3.7408638245     1.8257903926
   49      H      -5.0512079379    -4.3093832087     2.3456979224
   50      H       1.6281571067    -3.3610810783    -1.2259418576
   51      H       2.9359823808    -3.1729818559    -2.4629211953
   52      H       1.7060034420    -1.8735856777    -2.2538601361
   53      H       0.3472941358     1.9828545049    -0.3893603852
   54      H      -0.1667259900     2.3445548058     1.3172347188
   55      H       0.0391493882    -0.5201172351     0.1090222910
   56      H      -0.6080070313    -0.0868048619     1.7460887591
 ----------------------------------------------------------------

   12   -1510.2881507145      1.75E-09 Convergence criterion met
 Total energy in the final basis set = -1510.28815071
 Final energy is   -1510.28815071447
 **  OPTIMIZATION CONVERGED  **

                    Orbital Energies (a.u.)
 --------------------------------------------------------------

 Alpha MOs
 -- Occupied --
-18.945 -18.937 -18.924 -18.917 -18.889 -18.888 -18.884 -18.879
-18.862 -18.860 -10.108 -10.101 -10.094 -10.088 -10.071 -10.065
-10.063 -10.062 -10.059 -10.059 -10.054 -10.052 -10.042 -10.037
-10.035 -10.030 -10.021 -10.020 -10.018 -10.017  -1.021  -1.015
 -1.001  -0.995  -0.971  -0.967  -0.945  -0.939  -0.928  -0.922
 -0.764  -0.760  -0.725  -0.721  -0.713  -0.704  -0.690  -0.668
 -0.652  -0.615  -0.596  -0.580  -0.546  -0.542  -0.538  -0.534
 -0.514  -0.507  -0.485  -0.473  -0.464  -0.455  -0.450  -0.445
 -0.434  -0.432  -0.428  -0.417  -0.410  -0.404  -0.401  -0.392
 -0.389  -0.381  -0.377  -0.363  -0.360  -0.354  -0.350  -0.345
 -0.340  -0.337  -0.334  -0.330  -0.329  -0.326  -0.322  -0.315
 -0.309  -0.307  -0.301  -0.300  -0.296  -0.283  -0.277  -0.275
 -0.270  -0.262  -0.256  -0.243  -0.240  -0.235  -0.231  -0.189
 -0.185  -0.163  -0.162  -0.160  -0.155  -0.146  -0.142  -0.142
 -0.139

          Ground-State Mulliken Net Atomic Charges

     Atom                 Charge (a.u.)
  ----------------------------------------
      1 O                    -0.207690
      2 C                     0.215247
      3 C                    -0.078137
      4 C                    -0.081850
      5 C                     0.214320
      6 O                    -0.170167
      7 C                    -0.050007
      8 C                    -0.055031
      9 O                    -0.170014
     10 C                     0.213284
     11 C                    -0.078296
     12 C                    -0.080853
     13 C                     0.215855
     14 O                    -0.214238
     15 O                    -0.168871
     16 O                    -0.178710
     17 O                    -0.209502
     18 C                    -0.129377
     19 C                     0.025470
     20 C                    -0.143791
     21 C                    -0.143944
     22 C                     0.024614
     23 O                    -0.188606
     24 H                     0.087263
     25 H                     0.083202
     26 H                     0.083544
     27 H                     0.077956
     28 H                     0.073754
     29 H                     0.077868
     30 H                     0.073008
     31 H                     0.090138
     32 O                    -0.221880
     33 C                    -0.128016
     34 C                     0.024966
     35 C                    -0.143855
     36 C                    -0.144262
     37 C                     0.026656
     38 O                    -0.187253
     39 H                     0.086837
     40 H                     0.083143
     41 H                     0.091325
     42 H                     0.087386
     43 H                     0.078446
     44 H                     0.073512
     45 H                     0.078348
     46 H                     0.073529
     47 H                     0.087077
     48 H                     0.091388
     49 H                     0.092508
     50 H                     0.085516
     51 H                     0.086857
     52 H                     0.092835
     53 H                     0.091796
     54 H                     0.099456
     55 H                     0.092329
     56 H                     0.094915
  ----------------------------------------
  Sum of atomic charges =     0.000000

                    Cartesian Multipole Moments
 -----------------------------------------------------------------
    Charge (ESU x 10^10)
                 0.0000
    Dipole Moment (Debye)
         X      -2.3268      Y      -1.2014      Z       2.1587
       Tot       3.3937
    Quadrupole Moments (Debye-Ang)
        XX    -137.0372     XY      -0.7313     YY    -151.5950
        XZ      12.0310     YZ      -4.1556     ZZ    -167.5163

 Total job time:  74.05s(wall), 3520.67s(cpu)
        *  Thank you very much for using Q-Chem.  Have a nice day.  *
