 Q-Chem 5.0, Q-Chem, Inc., Pleasanton, CA (2017)
 Q-Chem 5.0.1 for Intel X86 EM64T Linux

User input:
--------------------------------------------------------------
$molecule
0  1
O -3.94934 -3.66094 2.70899
C -3.26408 -4.56952 2.26188
C -3.36658 -6.02376 2.66595
C -4.7535 -6.54168 3.08075
C -5.91582 -5.59565 2.8754
O -6.39836 -5.72257 1.604
C -7.32202 -4.68901 1.24645
C -8.75477 -5.17298 1.44426
O -9.5434 -4.13452 2.04638
C -9.98393 -3.17143 1.1993
C -10.72664 -2.06194 1.90503
C -11.59381 -1.18146 0.99341
C -11.87486 -1.73655 -0.38848
O -12.9722 -1.77866 -0.92571
O -2.1913 -4.2413 1.49355
O -10.81788 -1.79681 -1.23968
O -9.32262 -2.93602 0.20006
C -10.89201 -2.12669 -2.57853
C -11.79752 -2.54784 2.91079
C -12.03706 -1.46327 3.95911
C -12.74472 -0.4161 3.12433
C -12.90404 -1.18097 1.80424
O -13.00654 -2.52837 2.193
H -9.96031 -1.4723 2.45795
H -11.16004 -0.16699 0.85298
H -11.54724 -3.5066 3.41364
H -12.76333 -1.88322 4.69202
H -11.13696 -1.10639 4.50435
H -13.73238 -0.20495 3.591
H -12.18193 0.53048 2.97241
H -13.76345 -0.77179 1.22925
O -6.52828 -5.07092 3.79805
C -1.89058 -2.96013 1.08042
C -3.0758 -7.00322 1.49734
C -2.59 -8.34134 2.05412
C -3.87222 -8.88095 2.65186
C -4.86117 -7.80139 2.19796
O -4.33556 -7.34702 0.976
H -2.57959 -6.18388 3.43674
H -4.7593 -6.79977 4.16348
H -1.71718 -2.30394 1.95999
H -2.33672 -6.62122 0.76072
H -2.31566 -8.97386 1.17913
H -1.72492 -8.29043 2.74967
H -4.10113 -9.85757 2.17044
H -3.87068 -8.99206 3.75785
H -5.89669 -8.20681 2.17089
H -2.72122 -2.55266 0.46512
H -0.96811 -2.98365 0.46488
H -9.87268 -2.10249 -3.01536
H -11.52942 -1.3957 -3.1204
H -11.30784 -3.15011 -2.69642
H -9.21065 -5.65128 0.5493
H -8.7184 -5.96036 2.22736
H -7.14714 -4.33861 0.20799
H -7.15718 -3.78003 1.87492
$end

$opt
CONSTRAINT
tors           1           2           3           4     +31.524
tors           3           4           5           6     +86.418
tors           4           5           6           7    -168.591
tors           5           6           7           8     -96.993
tors           6           7           8           9    +137.836
tors           7           8           9          10     +79.978
tors           8           9          10          11    -176.141
tors           9          10          11          12    -162.652
tors          11          12          13          14    +132.480
ENDCONSTRAINT
$end

$rem
JOBTYPE                   OPT
METHOD                    B3LYP
DFT_D                     d3_op
BASIS                     STO-3G
GEOM_OPT_MAX_CYCLES       100
GEOM_OPT_TOL_GRADIENT     300
GEOM_OPT_TOL_DISPLACEMENT 1200
GEOM_OPT_TOL_ENERGY       100
SYMMETRY                  False
THRESH                    12
SCF_CONVERGENCE           8
MAX_SUB_FILE_NUM          128
MEM_STATIC                400
MEM_TOTAL                 4000
$end
--------------------------------------------------------------

   15   -1510.1172872957      6.60E-09 Convergence criterion met
 Total energy in the final basis set = -1510.11728730
   14   -1510.1909439723      4.72E-09 Convergence criterion met
 Total energy in the final basis set = -1510.19094397
   14   -1510.2310232101      8.41E-09 Convergence criterion met
 Total energy in the final basis set = -1510.23102321
   14   -1510.2505172203      8.94E-09 Convergence criterion met
 Total energy in the final basis set = -1510.25051722
   14   -1510.2606040300      3.25E-09 Convergence criterion met
 Total energy in the final basis set = -1510.26060403
   14   -1510.2655232585      2.39E-09 Convergence criterion met
 Total energy in the final basis set = -1510.26552326
   13   -1510.2684663487      5.42E-09 Convergence criterion met
 Total energy in the final basis set = -1510.26846635
    2   -1510.2684663486      5.76E-09 Convergence criterion met
   10   -1510.2792886113      8.62E-09 Convergence criterion met
 Total energy in the final basis set = -1510.27928861
   11   -1510.2792934526      3.35E-09 Convergence criterion met
 Total energy in the final basis set = -1510.27929345
   10   -1510.2793018567      9.29E-09 Convergence criterion met
 Total energy in the final basis set = -1510.27930186
    9   -1510.2793058161      7.74E-09 Convergence criterion met
 Total energy in the final basis set = -1510.27930582
    9   -1510.2793076166      4.15E-09 Convergence criterion met
 Total energy in the final basis set = -1510.27930762
    9   -1510.2793061573      2.92E-09 Convergence criterion met
 Total energy in the final basis set = -1510.27930616

             Standard Nuclear Orientation (Angstroms)
    I     Atom           X                Y                Z
 ----------------------------------------------------------------
    1      O      -2.8844319029    -1.0540967903     1.5470708090
    2      C      -4.0495821244    -1.1348026463     1.0979287556
    3      C      -4.9600055297     0.0517361759     0.6144217570
    4      C      -4.1214584381     1.2461332654    -0.0106732258
    5      C      -2.5728876217     1.1252301017     0.2169875665
    6      O      -2.0081289116     0.3265167633    -0.8350260374
    7      C      -0.6114482063    -0.0351052279    -0.5083106991
    8      C       0.4182726536     0.9456968472    -1.2030495309
    9      O       1.5174453905     1.3181128146    -0.2784786952
   10      C       2.4898347224     0.2725943714    -0.2250796889
   11      C       3.5921346046     0.6440525074     0.8326012352
   12      C       4.8847212334    -0.2332852421     0.6145452211
   13      C       4.6297645012    -1.6082452072    -0.1046251897
   14      O       5.2683042204    -2.0931745755    -1.0625536019
   15      O      -4.7798364924    -2.3592718103     1.0057995537
   16      O       3.7204003224    -2.3593864799     0.7212703067
   17      O       2.4786195744    -0.7270377100    -0.9799706677
   18      C       3.4383020414    -3.6661098302     0.0909625121
   19      C       4.1605942991     2.0694642020     0.4248239240
   20      C       5.2882083962     2.5210675141     1.4356048328
   21      C       6.5219408303     1.6862501718     0.9246566417
   22      C       5.8265659398     0.7793514720    -0.1619980617
   23      O       4.8954066258     1.7285953672    -0.8201878781
   24      H       3.1856681480     0.5930951939     1.8585725677
   25      H       5.3282295434    -0.4812667310     1.5967988822
   26      H       3.3737335107     2.8208807680     0.2205032869
   27      H       5.4674524891     3.6050579726     1.3592300391
   28      H       5.0198601918     2.2813484551     2.4771574848
   29      H       7.2771825062     2.3358182587     0.4537816900
   30      H       7.0041830926     1.0997379353     1.7228488671
   31      H       6.4937984059     0.3035856589    -0.9070014043
   32      O      -1.9071697849     1.6699117050     1.1237076366
   33      C      -3.9432587494    -3.4876513258     1.4766153227
   34      C      -5.8342312330    -0.3776310414    -0.6369180827
   35      C      -6.9019527743     0.7477051231    -0.9355323067
   36      C      -6.0096535999     1.8433773767    -1.6288684672
   37      C      -4.5827826066     1.1723518910    -1.5308155386
   38      O      -4.8687080516    -0.2628536818    -1.7546852809
   39      H      -5.5802059273     0.3897889270     1.4653071040
   40      H      -4.4355416509     2.2007811016     0.4473745996
   41      H      -3.6273289446    -3.3499746533     2.5308207084
   42      H      -6.2299796644    -1.4090111550    -0.5682666972
   43      H      -7.6819757680     0.3696306895    -1.6152700322
   44      H      -7.3842355083     1.1125520559    -0.0144927622
   45      H      -6.2939801978     1.9865084464    -2.6836086703
   46      H      -6.0496812988     2.8171668983    -1.1152924658
   47      H      -3.8331128417     1.5366134767    -2.2591512535
   48      H      -3.0367365714    -3.6103211626     0.8493543916
   49      H      -4.5760842672    -4.3902737310     1.3928406853
   50      H       2.8093063055    -4.2256836501     0.8077331805
   51      H       4.3686279327    -4.2352556578    -0.1123803130
   52      H       2.8867891090    -3.5395088467    -0.8636176025
   53      H       0.8262187819     0.4936236881    -2.1308925052
   54      H      -0.0930034446     1.8987095631    -1.4485386411
   55      H      -0.4581503656    -1.0727545124    -0.8662425216
   56      H      -0.4568712204     0.0121009380     0.5911884615
 ----------------------------------------------------------------

    9   -1510.2793063182      2.91E-09 Convergence criterion met
 Total energy in the final basis set = -1510.27930632
 Final energy is   -1510.27930631815
 **  OPTIMIZATION CONVERGED  **

                    Orbital Energies (a.u.)
 --------------------------------------------------------------

 Alpha MOs
 -- Occupied --
-18.944 -18.939 -18.925 -18.913 -18.888 -18.883 -18.882 -18.881
-18.869 -18.857 -10.107 -10.103 -10.096 -10.087 -10.070 -10.070
-10.065 -10.060 -10.059 -10.055 -10.053 -10.051 -10.042 -10.037
-10.036 -10.029 -10.021 -10.020 -10.018 -10.016  -1.020  -1.017
 -1.004  -0.993  -0.971  -0.965  -0.943  -0.940  -0.931  -0.920
 -0.764  -0.759  -0.726  -0.722  -0.713  -0.703  -0.690  -0.667
 -0.650  -0.616  -0.596  -0.579  -0.546  -0.541  -0.538  -0.533
 -0.514  -0.505  -0.484  -0.478  -0.467  -0.453  -0.452  -0.444
 -0.434  -0.429  -0.427  -0.417  -0.409  -0.401  -0.400  -0.397
 -0.387  -0.381  -0.380  -0.367  -0.361  -0.354  -0.350  -0.345
 -0.338  -0.333  -0.332  -0.329  -0.328  -0.327  -0.319  -0.314
 -0.310  -0.307  -0.305  -0.300  -0.298  -0.283  -0.277  -0.273
 -0.270  -0.261  -0.254  -0.244  -0.240  -0.234  -0.230  -0.189
 -0.185  -0.165  -0.161  -0.160  -0.154  -0.149  -0.144  -0.141
 -0.138

          Ground-State Mulliken Net Atomic Charges

     Atom                 Charge (a.u.)
  ----------------------------------------
      1 O                    -0.212151
      2 C                     0.214292
      3 C                    -0.076967
      4 C                    -0.081468
      5 C                     0.212973
      6 O                    -0.175162
      7 C                    -0.053227
      8 C                    -0.050673
      9 O                    -0.167651
     10 C                     0.217374
     11 C                    -0.075366
     12 C                    -0.081652
     13 C                     0.216376
     14 O                    -0.219978
     15 O                    -0.168059
     16 O                    -0.177961
     17 O                    -0.208624
     18 C                    -0.128332
     19 C                     0.022888
     20 C                    -0.145407
     21 C                    -0.141885
     22 C                     0.022293
     23 O                    -0.193568
     24 H                     0.089223
     25 H                     0.082802
     26 H                     0.089356
     27 H                     0.077895
     28 H                     0.073589
     29 H                     0.077504
     30 H                     0.073000
     31 H                     0.090500
     32 O                    -0.212886
     33 C                    -0.127402
     34 C                     0.023207
     35 C                    -0.144928
     36 C                    -0.143377
     37 C                     0.025817
     38 O                    -0.189117
     39 H                     0.086838
     40 H                     0.083131
     41 H                     0.090764
     42 H                     0.091623
     43 H                     0.078199
     44 H                     0.073113
     45 H                     0.077942
     46 H                     0.073482
     47 H                     0.086388
     48 H                     0.091686
     49 H                     0.092392
     50 H                     0.084569
     51 H                     0.086595
     52 H                     0.089084
     53 H                     0.095632
     54 H                     0.091703
     55 H                     0.091286
     56 H                     0.102326
  ----------------------------------------
  Sum of atomic charges =     0.000000

                    Cartesian Multipole Moments
 -----------------------------------------------------------------
    Charge (ESU x 10^10)
                 0.0000
    Dipole Moment (Debye)
         X      -2.8718      Y       0.0423      Z       2.0746
       Tot       3.5431
    Quadrupole Moments (Debye-Ang)
        XX    -146.6731     XY       2.8184     YY    -151.5532
        XZ       8.7436     YZ      -6.0008     ZZ    -163.2675

 Total job time:  80.08s(wall), 3808.63s(cpu)
        *  Thank you very much for using Q-Chem.  Have a nice day.  *
