 Q-Chem 5.0, Q-Chem, Inc., Pleasanton, CA (2017)
 Q-Chem 5.0.1 for Intel X86 EM64T Linux

User input:
--------------------------------------------------------------
$molecule
0  1
O -4.6478002601 -1.6585251357 2.2012994639
C -4.8240721082 -1.391060985 0.9928865612
C -5.2243642479 0.0122333845 0.4022140591
C -4.1521109939 1.1500633256 0.6422832276
C -2.695763802 0.5511390672 0.7511909382
O -1.7387958324 1.5621030158 0.4073130454
C -0.4938788042 0.9476836354 -0.111006919
C 0.5388124988 0.6821368049 1.0530262827
O 1.680502281 -0.1696472889 0.6388344922
C 2.468712394 0.47243154 -0.372784282
C 3.600172776 -0.5134816192 -0.8408909813
C 5.0292141109 0.1377091878 -1.0118274656
C 5.3421004684 1.3460777954 -0.0495081223
O 6.4358757595 1.9445135343 0.0450211729
O -4.7118572572 -2.3470396074 -0.0679067156
O 4.2636412113 1.5350181517 0.8710691747
O 2.1859313951 1.5719733568 -0.8976947233
C 4.587469631 2.6027292593 1.8419407413
C 3.9293052069 -1.7716903821 0.0760368847
C 4.3950769159 -2.9239912352 -0.8948119109
C 5.7679000348 -2.3355405558 -1.3952766578
C 5.9226991065 -1.0632303442 -0.4691288444
O 5.1894716939 -1.418134953 0.7716550317
H 3.2689925485 -0.8755558312 -1.8333408617
H 5.2558995025 0.4187448422 -2.0554644394
H 3.1346651901 -2.0295387067 0.801848779
H 4.5419983043 -3.8609730688 -0.3335386086
H 3.6803445677 -3.1074958909 -1.7128598166
H 6.599507992 -3.03822464 -1.2296157493
H 5.7461445181 -2.0620977491 -2.4626750021
H 6.9660179811 -0.7733503051 -0.2365239176
O -2.3921146961 -0.6512453228 0.9171900543
C -4.2803763536 -3.6523629097 0.4802833624
C -5.4463624639 0.12038084 -1.1685567102
C -6.5022214078 1.2679602694 -1.4033376721
C -5.6567535311 2.5271437133 -0.9807035561
C -4.228032582 1.8889412316 -0.761640724
O -4.1961422228 0.7271824492 -1.6862239847
H -6.156711737 0.2991747749 0.9234319996
H -4.3897200613 1.7977407199 1.5055373033
H -5.0233985434 -4.0637843738 1.1940924769
H -5.6514949472 -0.8432265086 -1.6723932565
H -6.7861779961 1.3147378046 -2.4670534682
H -7.4137333473 1.1381456442 -0.7982050039
H -5.6235627198 3.2846419855 -1.7796617976
H -6.0372823086 3.0020133955 -0.0619796382
H -3.3677550853 2.5592341325 -0.949453287
H -3.3030315661 -3.5679348863 0.9977597974
H -4.1850923167 -4.3319406988 -0.3865951917
H 3.7341489523 2.6435534126 2.5436382118
H 4.7038284266 3.5856326523 1.3411690859
H 5.5194621561 2.3752501297 2.3985377914
H 0.8995738344 1.6541363096 1.4533947676
H 0.0400879585 0.1164305836 1.8659835525
H -0.0561164134 1.6735196872 -0.8248731367
H -0.7145961601 -0.0094593926 -0.6290038499
$end

$rem
JOBTYPE                   OPT
METHOD                    B3LYP
DFT_D                     d3_op
BASIS                     STO-3G
GEOM_OPT_MAX_CYCLES       100
GEOM_OPT_TOL_GRADIENT     300
GEOM_OPT_TOL_DISPLACEMENT 1200
GEOM_OPT_TOL_ENERGY       100
SYMMETRY                  False
THRESH                    12
SCF_CONVERGENCE           8
MAX_SUB_FILE_NUM          128
MEM_STATIC                400
MEM_TOTAL                 4000
$end
--------------------------------------------------------------

   16   -1510.2689063283      7.53E-09 Convergence criterion met
 Total energy in the final basis set = -1510.26890633
   14   -1510.2729807056      3.06E-09 Convergence criterion met
 Total energy in the final basis set = -1510.27298071
   14   -1510.2760273659      3.46E-09 Convergence criterion met
 Total energy in the final basis set = -1510.27602737
   13   -1510.2782232742      7.71E-09 Convergence criterion met
 Total energy in the final basis set = -1510.27822327
   14   -1510.2797718918      5.23E-09 Convergence criterion met
 Total energy in the final basis set = -1510.27977189
   13   -1510.2810696705      4.75E-09 Convergence criterion met
 Total energy in the final basis set = -1510.28106967
   13   -1510.2822579110      5.68E-09 Convergence criterion met
 Total energy in the final basis set = -1510.28225791
   13   -1510.2831414805      6.33E-09 Convergence criterion met
   12   -1510.2856242310      6.12E-09 Convergence criterion met
 Total energy in the final basis set = -1510.28562423
   12   -1510.2856313883      2.24E-09 Convergence criterion met
 Total energy in the final basis set = -1510.28563139
   13   -1510.2855989187      2.95E-09 Convergence criterion met
 Total energy in the final basis set = -1510.28559892
   11   -1510.2856144982      8.68E-09 Convergence criterion met
 Total energy in the final basis set = -1510.28561450
   12   -1510.2856031902      2.82E-09 Convergence criterion met
 Total energy in the final basis set = -1510.28560319
   11   -1510.2855789227      8.36E-09 Convergence criterion met
 Total energy in the final basis set = -1510.28557892

             Standard Nuclear Orientation (Angstroms)
    I     Atom           X                Y                Z
 ----------------------------------------------------------------
    1      O      -3.8231780971    -0.9186285208     2.7225580870
    2      C      -4.3483337085    -0.8144563662     1.5925274967
    3      C      -4.8484909126     0.5183642614     0.9185344194
    4      C      -3.8108662768     1.1767693499    -0.0820413786
    5      C      -2.5160210389     0.3207682166    -0.2815240664
    6      O      -1.6792403215     0.9821694115    -1.2337823705
    7      C      -0.4451484819     0.1942003755    -1.4804770472
    8      C       0.5811511983     0.3336129200    -0.2954216853
    9      O       1.8495261952    -0.3414136524    -0.6524655356
   10      C       2.8650570559     0.6282035110    -0.9451946668
   11      C       4.2193223905    -0.1003716941    -1.2752854161
   12      C       5.3425947076     0.1754170090    -0.1825577067
   13      C       4.8573779902     1.0617289142     1.0124031803
   14      O       5.4369984862     2.0454766536     1.5196724905
   15      O      -4.7030809369    -1.9249919388     0.7585681592
   16      O       3.6006967359     0.5432191999     1.4670741039
   17      O       2.6691206121     1.8640878395    -0.9608836497
   18      C       3.0397516730     1.4046534223     2.5317596244
   19      C       4.1278546300    -1.6825340862    -1.2217432056
   20      C       5.4034490359    -2.2773284409    -1.9393102404
   21      C       6.5145040343    -2.0085955965    -0.8575240617
   22      C       5.6680671740    -1.3136757819     0.2806676137
   23      O       4.3568623370    -1.9929211894     0.2086270990
   24      H       4.5550195520     0.2548724473    -2.2671505619
   25      H       6.2280916694     0.6640211261    -0.6256710981
   26      H       3.1562404869    -2.0931608464    -1.5553468197
   27      H       5.2724198081    -3.3554153768    -2.1239925767
   28      H       5.6119652975    -1.7771403613    -2.8984400976
   29      H       6.9559606801    -2.9481690150    -0.4889011630
   30      H       7.3237416543    -1.3591902278    -1.2278243881
   31      H       6.0924851381    -1.3940314489     1.3002320839
   32      O      -2.2298350601    -0.7657187181     0.2702725911
   33      C      -4.1871261673    -3.1775077202     1.3524515944
   34      C      -6.0940429685     0.3080594523    -0.0459898544
   35      C      -6.7769967738     1.7139401664    -0.2765683176
   36      C      -5.7475159281     2.3946020663    -1.2523571865
   37      C      -4.6757820913     1.2455870103    -1.4157988732
   38      O      -5.4782034215     0.0041739059    -1.3588845513
   39      H      -5.0893271478     1.2226704268     1.7342554822
   40      H      -3.5097935230     2.1882759314     0.2467562404
   41      H      -4.5764578440    -3.3368558290     2.3789386133
   42      H      -6.7773347135    -0.5079688165     0.2573832018
   43      H      -7.7631436843     1.5907659573    -0.7519535937
   44      H      -6.9048169781     2.2713180985     0.6650747333
   45      H      -6.2069331238     2.6323016962    -2.2249688357
   46      H      -5.3079396150     3.3145129623    -0.8346475988
   47      H      -4.0734377189     1.2854186851    -2.3441101367
   48      H      -3.0784820878    -3.1737840151     1.3911876629
   49      H      -4.5321994673    -3.9946638114     0.6925567864
   50      H       2.1130860988     0.9057735767     2.8699780420
   51      H       2.7969469785     2.4154400536     2.1439553743
   52      H       3.7399946671     1.5105513604     3.3848511869
   53      H       0.7785893048     1.4086035067    -0.0952603836
   54      H       0.1794745229    -0.1665647768     0.6090964121
   55      H      -0.0074557656     0.6164112803    -2.4075662639
   56      H      -0.6881190715    -0.8777757172    -1.6413284888
 ----------------------------------------------------------------

   10   -1510.2855790181      7.02E-09 Convergence criterion met
 Total energy in the final basis set = -1510.28557902
 Final energy is   -1510.28557901814
 **  OPTIMIZATION CONVERGED  **

                    Orbital Energies (a.u.)
 --------------------------------------------------------------

 Alpha MOs
 -- Occupied --
-18.944 -18.937 -18.934 -18.919 -18.889 -18.888 -18.887 -18.878
-18.871 -18.856 -10.109 -10.102 -10.100 -10.088 -10.076 -10.068
-10.064 -10.062 -10.061 -10.059 -10.058 -10.051 -10.041 -10.040
-10.038 -10.032 -10.021 -10.021 -10.020 -10.019  -1.022  -1.016
 -1.007  -0.996  -0.970  -0.970  -0.946  -0.938  -0.936  -0.921
 -0.765  -0.763  -0.728  -0.723  -0.715  -0.707  -0.694  -0.661
 -0.650  -0.620  -0.597  -0.582  -0.547  -0.545  -0.538  -0.536
 -0.515  -0.512  -0.489  -0.478  -0.469  -0.462  -0.451  -0.436
 -0.434  -0.433  -0.425  -0.414  -0.410  -0.406  -0.402  -0.400
 -0.392  -0.388  -0.371  -0.365  -0.363  -0.359  -0.354  -0.345
 -0.341  -0.337  -0.334  -0.332  -0.331  -0.326  -0.323  -0.313
 -0.309  -0.306  -0.304  -0.300  -0.298  -0.294  -0.281  -0.277
 -0.274  -0.263  -0.252  -0.247  -0.241  -0.234  -0.233  -0.195
 -0.178  -0.169  -0.162  -0.161  -0.159  -0.151  -0.145  -0.144
 -0.137

          Ground-State Mulliken Net Atomic Charges

     Atom                 Charge (a.u.)
  ----------------------------------------
      1 O                    -0.222262
      2 C                     0.213389
      3 C                    -0.081935
      4 C                    -0.078196
      5 C                     0.214101
      6 O                    -0.170262
      7 C                    -0.049769
      8 C                    -0.056821
      9 O                    -0.167956
     10 C                     0.214622
     11 C                    -0.077737
     12 C                    -0.079192
     13 C                     0.210131
     14 O                    -0.209190
     15 O                    -0.170074
     16 O                    -0.166534
     17 O                    -0.223862
     18 C                    -0.128585
     19 C                     0.025322
     20 C                    -0.144494
     21 C                    -0.143776
     22 C                     0.026203
     23 O                    -0.184679
     24 H                     0.083956
     25 H                     0.085749
     26 H                     0.091162
     27 H                     0.078084
     28 H                     0.072900
     29 H                     0.078335
     30 H                     0.074108
     31 H                     0.083134
     32 O                    -0.207066
     33 C                    -0.127390
     34 C                     0.026422
     35 C                    -0.144266
     36 C                    -0.143813
     37 C                     0.025099
     38 O                    -0.187741
     39 H                     0.082563
     40 H                     0.086816
     41 H                     0.085858
     42 H                     0.087651
     43 H                     0.077631
     44 H                     0.073428
     45 H                     0.078148
     46 H                     0.073653
     47 H                     0.086232
     48 H                     0.091928
     49 H                     0.087089
     50 H                     0.092434
     51 H                     0.090221
     52 H                     0.091246
     53 H                     0.098890
     54 H                     0.095205
     55 H                     0.090253
     56 H                     0.093637
  ----------------------------------------
  Sum of atomic charges =    -0.000000

                    Cartesian Multipole Moments
 -----------------------------------------------------------------
    Charge (ESU x 10^10)
                -0.0000
    Dipole Moment (Debye)
         X      -0.0257      Y       0.2789      Z      -1.5590
       Tot       1.5840
    Quadrupole Moments (Debye-Ang)
        XX    -148.8790     XY     -15.3633     YY    -161.0692
        XZ      -7.4955     YZ       2.4874     ZZ    -159.4500

 Total job time:  79.74s(wall), 3793.36s(cpu)
        *  Thank you very much for using Q-Chem.  Have a nice day.  *
