 Q-Chem 5.0, Q-Chem, Inc., Pleasanton, CA (2017)
 Q-Chem 5.0.1 for Intel X86 EM64T Linux

User input:
--------------------------------------------------------------
$molecule
0  1
O -3.94934 -3.66094 2.70899
C -3.26408 -4.56952 2.26188
C -3.36658 -6.02376 2.66595
C -4.69009 -6.7454 2.36363
C -5.69856 -5.98426 1.53192
O -6.53778 -6.86005 0.90412
C -7.09608 -6.33618 -0.30547
C -8.41806 -5.63397 -0.01324
O -8.83976 -4.88579 -1.16445
C -9.1167 -5.62217 -2.26907
C -9.46407 -4.77429 -3.46953
C -10.66533 -5.27106 -4.28714
C -11.54526 -6.30191 -3.60907
O -12.58951 -6.74951 -4.06048
O -2.33822 -4.25482 1.3152
O -11.34546 -6.66094 -2.31166
O -8.85782 -6.81233 -2.39979
C -12.12787 -7.53031 -1.57583
C -9.91538 -3.32073 -3.18441
C -9.67931 -2.45516 -4.4225
C -10.7564 -2.98029 -5.34867
C -11.46566 -3.96556 -4.41493
O -11.31956 -3.39301 -3.13695
H -8.5441 -4.7523 -4.09652
H -10.35597 -5.71051 -5.26088
H -9.41921 -2.84684 -2.3111
H -9.93537 -1.40781 -4.14286
H -8.64643 -2.48069 -4.8316
H -11.43253 -2.13751 -5.61466
H -10.38886 -3.48037 -6.27093
H -12.51046 -4.13908 -4.75517
O -5.69081 -4.78489 1.29179
C -2.12383 -2.98456 0.82228
C -2.35327 -6.93352 1.93955
C -2.11784 -8.2107 2.74467
C -3.41504 -8.93946 2.49253
C -4.11435 -7.94762 1.55899
O -3.06126 -7.38646 0.81745
H -3.14223 -6.03527 3.75581
H -5.22481 -7.11708 3.26542
H -1.81628 -2.30214 1.64324
H -1.37368 -6.44714 1.74129
H -1.29278 -8.77859 2.25789
H -1.86782 -8.03819 3.81369
H -3.18641 -9.87549 1.93472
H -4.01407 -9.1786 3.39759
H -4.86871 -8.5068 0.96624
H -3.04824 -2.60069 0.34004
H -1.31416 -3.02036 0.06492
H -11.7044 -7.62257 -0.5547
H -12.13509 -8.53386 -2.05216
H -13.16541 -7.141 -1.49807
H -9.19512 -6.35777 0.31824
H -8.26374 -4.89926 0.80397
H -7.17313 -7.19394 -0.99312
H -6.39641 -5.63057 -0.81342
$end

$opt
CONSTRAINT
tors           1           2           3           4     +63.275
tors           3           4           5           6    +155.956
tors           4           5           6           7    -153.689
tors           5           6           7           8     -90.910
tors           6           7           8           9    +168.542
tors           7           8           9          10     +63.738
tors           8           9          10          11    -176.141
tors           9          10          11          12    -136.403
tors          11          12          13          14    +174.951
ENDCONSTRAINT
$end

$rem
JOBTYPE                   OPT
METHOD                    B3LYP
DFT_D                     d3_op
BASIS                     STO-3G
GEOM_OPT_MAX_CYCLES       100
GEOM_OPT_TOL_GRADIENT     300
GEOM_OPT_TOL_DISPLACEMENT 1200
GEOM_OPT_TOL_ENERGY       100
SYMMETRY                  False
THRESH                    12
SCF_CONVERGENCE           8
MAX_SUB_FILE_NUM          128
MEM_STATIC                400
MEM_TOTAL                 4000
$end
--------------------------------------------------------------

   15   -1510.1293364566      6.69E-09 Convergence criterion met
 Total energy in the final basis set = -1510.12933646
   13   -1510.2029152747      7.77E-09 Convergence criterion met
 Total energy in the final basis set = -1510.20291527
   14   -1510.2428053795      5.59E-09 Convergence criterion met
 Total energy in the final basis set = -1510.24280538
   13   -1510.2601613122      9.85E-09 Convergence criterion met
 Total energy in the final basis set = -1510.26016131
   14   -1510.2647809964      1.84E-09 Convergence criterion met
 Total energy in the final basis set = -1510.26478100
   13   -1510.2662461212      4.64E-09 Convergence criterion met
 Total energy in the final basis set = -1510.26624612
   13   -1510.2670573514      2.30E-09 Convergence criterion met
 Total energy in the final basis set = -1510.26705735
   13   -1510.2676168786      4.71E-09 Convergence criterion met
   12   -1510.2688265408      3.07E-09 Convergence criterion met
 Total energy in the final basis set = -1510.26882654
   11   -1510.2688634567      6.63E-09 Convergence criterion met
 Total energy in the final basis set = -1510.26886346
   10   -1510.2688886490      9.01E-09 Convergence criterion met
 Total energy in the final basis set = -1510.26888865
   11   -1510.2689057675      4.61E-09 Convergence criterion met
 Total energy in the final basis set = -1510.26890577
   10   -1510.2689116681      5.84E-09 Convergence criterion met
 Total energy in the final basis set = -1510.26891167
    9   -1510.2689127030      5.16E-09 Convergence criterion met
 Total energy in the final basis set = -1510.26891270

             Standard Nuclear Orientation (Angstroms)
    I     Atom           X                Y                Z
 ----------------------------------------------------------------
    1      O      -4.6478002601    -1.6585251357     2.2012994639
    2      C      -4.8240721082    -1.3910609850     0.9928865612
    3      C      -5.2243642479     0.0122333845     0.4022140591
    4      C      -4.1521109939     1.1500633256     0.6422832276
    5      C      -2.6957638020     0.5511390672     0.7511909382
    6      O      -1.7387958324     1.5621030158     0.4073130454
    7      C      -0.4938788042     0.9476836354    -0.1110069190
    8      C       0.5388124988     0.6821368049     1.0530262827
    9      O       1.6805022810    -0.1696472889     0.6388344922
   10      C       2.4687123940     0.4724315400    -0.3727842820
   11      C       3.6001727760    -0.5134816192    -0.8408909813
   12      C       5.0292141109     0.1377091878    -1.0118274656
   13      C       5.3421004684     1.3460777954    -0.0495081223
   14      O       6.4358757595     1.9445135343     0.0450211729
   15      O      -4.7118572572    -2.3470396074    -0.0679067156
   16      O       4.2636412113     1.5350181517     0.8710691747
   17      O       2.1859313951     1.5719733568    -0.8976947233
   18      C       4.5874696310     2.6027292593     1.8419407413
   19      C       3.9293052069    -1.7716903821     0.0760368847
   20      C       4.3950769159    -2.9239912352    -0.8948119109
   21      C       5.7679000348    -2.3355405558    -1.3952766578
   22      C       5.9226991065    -1.0632303442    -0.4691288444
   23      O       5.1894716939    -1.4181349530     0.7716550317
   24      H       3.2689925485    -0.8755558312    -1.8333408617
   25      H       5.2558995025     0.4187448422    -2.0554644394
   26      H       3.1346651901    -2.0295387067     0.8018487790
   27      H       4.5419983043    -3.8609730688    -0.3335386086
   28      H       3.6803445677    -3.1074958909    -1.7128598166
   29      H       6.5995079920    -3.0382246400    -1.2296157493
   30      H       5.7461445181    -2.0620977491    -2.4626750021
   31      H       6.9660179811    -0.7733503051    -0.2365239176
   32      O      -2.3921146961    -0.6512453228     0.9171900543
   33      C      -4.2803763536    -3.6523629097     0.4802833624
   34      C      -5.4463624639     0.1203808400    -1.1685567102
   35      C      -6.5022214078     1.2679602694    -1.4033376721
   36      C      -5.6567535311     2.5271437133    -0.9807035561
   37      C      -4.2280325820     1.8889412316    -0.7616407240
   38      O      -4.1961422228     0.7271824492    -1.6862239847
   39      H      -6.1567117370     0.2991747749     0.9234319996
   40      H      -4.3897200613     1.7977407199     1.5055373033
   41      H      -5.0233985434    -4.0637843738     1.1940924769
   42      H      -5.6514949472    -0.8432265086    -1.6723932565
   43      H      -6.7861779961     1.3147378046    -2.4670534682
   44      H      -7.4137333473     1.1381456442    -0.7982050039
   45      H      -5.6235627198     3.2846419855    -1.7796617976
   46      H      -6.0372823086     3.0020133955    -0.0619796382
   47      H      -3.3677550853     2.5592341325    -0.9494532870
   48      H      -3.3030315661    -3.5679348863     0.9977597974
   49      H      -4.1850923167    -4.3319406988    -0.3865951917
   50      H       3.7341489523     2.6435534126     2.5436382118
   51      H       4.7038284266     3.5856326523     1.3411690859
   52      H       5.5194621561     2.3752501297     2.3985377914
   53      H       0.8995738344     1.6541363096     1.4533947676
   54      H       0.0400879585     0.1164305836     1.8659835525
   55      H      -0.0561164134     1.6735196872    -0.8248731367
   56      H      -0.7145961601    -0.0094593926    -0.6290038499
 ----------------------------------------------------------------

    9   -1510.2689132274      4.00E-09 Convergence criterion met
 Total energy in the final basis set = -1510.26891323
 Final energy is   -1510.26891322743
 **  OPTIMIZATION CONVERGED  **

                    Orbital Energies (a.u.)
 --------------------------------------------------------------

 Alpha MOs
 -- Occupied --
-18.940 -18.935 -18.932 -18.925 -18.886 -18.885 -18.884 -18.873
-18.866 -18.859 -10.105 -10.102 -10.100 -10.092 -10.070 -10.068
-10.066 -10.060 -10.058 -10.056 -10.056 -10.056 -10.041 -10.039
-10.035 -10.033 -10.021 -10.021 -10.019 -10.019  -1.018  -1.015
 -1.006  -1.000  -0.969  -0.969  -0.942  -0.937  -0.932  -0.925
 -0.763  -0.762  -0.727  -0.723  -0.713  -0.704  -0.691  -0.662
 -0.654  -0.618  -0.597  -0.583  -0.544  -0.543  -0.537  -0.536
 -0.512  -0.510  -0.486  -0.480  -0.466  -0.462  -0.450  -0.440
 -0.436  -0.433  -0.426  -0.414  -0.410  -0.405  -0.403  -0.395
 -0.392  -0.380  -0.375  -0.368  -0.363  -0.359  -0.356  -0.343
 -0.339  -0.337  -0.332  -0.330  -0.327  -0.323  -0.318  -0.311
 -0.309  -0.307  -0.303  -0.300  -0.298  -0.293  -0.280  -0.278
 -0.273  -0.260  -0.247  -0.245  -0.243  -0.233  -0.233  -0.191
 -0.178  -0.169  -0.165  -0.157  -0.154  -0.149  -0.147  -0.140
 -0.138

          Ground-State Mulliken Net Atomic Charges

     Atom                 Charge (a.u.)
  ----------------------------------------
      1 O                    -0.219506
      2 C                     0.214286
      3 C                    -0.082203
      4 C                    -0.074872
      5 C                     0.215207
      6 O                    -0.175808
      7 C                    -0.054222
      8 C                    -0.049696
      9 O                    -0.171025
     10 C                     0.220654
     11 C                    -0.080048
     12 C                    -0.075931
     13 C                     0.213915
     14 O                    -0.215026
     15 O                    -0.171913
     16 O                    -0.166005
     17 O                    -0.225000
     18 C                    -0.125250
     19 C                     0.022965
     20 C                    -0.141736
     21 C                    -0.145594
     22 C                     0.023694
     23 O                    -0.192389
     24 H                     0.082109
     25 H                     0.087250
     26 H                     0.094069
     27 H                     0.077938
     28 H                     0.073163
     29 H                     0.078607
     30 H                     0.073764
     31 H                     0.085973
     32 O                    -0.205840
     33 C                    -0.127423
     34 C                     0.022141
     35 C                    -0.142042
     36 C                    -0.145831
     37 C                     0.022330
     38 O                    -0.194497
     39 H                     0.081631
     40 H                     0.087377
     41 H                     0.086038
     42 H                     0.092381
     43 H                     0.077479
     44 H                     0.073109
     45 H                     0.078322
     46 H                     0.073623
     47 H                     0.090673
     48 H                     0.093660
     49 H                     0.087550
     50 H                     0.091221
     51 H                     0.090397
     52 H                     0.093322
     53 H                     0.086619
     54 H                     0.093918
     55 H                     0.103752
     56 H                     0.092719
  ----------------------------------------
  Sum of atomic charges =    -0.000000

                    Cartesian Multipole Moments
 -----------------------------------------------------------------
    Charge (ESU x 10^10)
                 0.0000
    Dipole Moment (Debye)
         X      -1.4394      Y       0.0358      Z      -0.9375
       Tot       1.7182
    Quadrupole Moments (Debye-Ang)
        XX    -156.0189     XY     -10.2201     YY    -153.2437
        XZ      -1.1696     YZ       9.1247     ZZ    -162.2127

 Total job time:  55.14s(wall), 2623.28s(cpu)
        *  Thank you very much for using Q-Chem.  Have a nice day.  *
