 Q-Chem 5.0, Q-Chem, Inc., Pleasanton, CA (2017)
 Q-Chem 5.0.1 for Intel X86 EM64T Linux

User input:
--------------------------------------------------------------
$molecule
0  1
O -1.722442061 1.6700972168 -1.5279645167
C -1.4745701781 1.5778065053 -0.3342106935
C -2.1128862792 0.5913702978 0.6187263223
C -2.2408981368 -0.864506405 0.1413530471
C -1.556671634 -1.2092313386 -1.1628967867
O -1.581086061 -2.5610205729 -1.3565636634
C -0.4935460937 -3.0348333168 -2.1578109013
C -0.0123229917 -1.93250239 -3.0955920153
O 0.1260368123 -0.699819603 -2.3715599469
C 0.6443117433 -0.8117256546 -1.1233557159
C 0.6784472622 0.5026544173 -0.380448356
C 1.6114099832 0.5329414678 0.8389492481
C 2.6193011481 -0.5953047397 0.9280073151
O 3.4127392296 -0.9077275892 0.0519887556
O -1.311141604 2.7423107864 0.359138054
O 2.6350234624 -1.2799323871 2.1010702706
O 1.2086000501 -1.822320142 -0.7209181963
C 3.4829765378 -2.3323332964 2.3743684073
C 1.4914956131 1.4843831468 -1.3337469127
C 1.2409708605 2.9480104055 -1.0634543052
C 1.7650218636 3.0623611762 0.3561746753
C 2.5191608428 1.727616408 0.4467111921
O 2.8189554159 1.4139140456 -0.8891820103
H 0.0280406767 -0.0523114466 0.1696137884
H 1.1301761219 0.7285255579 1.8235220605
H 1.3762858122 1.3136303654 -2.4261251187
H 1.9481641935 3.4893079347 -1.7370453969
H 0.2669408864 3.3738731684 -1.3172456131
H 2.4290101284 3.9530388009 0.406820363
H 1.0079262133 3.107876905 1.165587693
H 3.3975731096 1.8262872459 1.124854393
O -2.1403770703 -0.6069482754 -2.0701191663
C -1.7965404651 3.9910160355 0.003038709
C -1.5946410694 0.3691335482 2.0708137085
C -2.745650266 -0.1074533701 2.9641176004
C -2.8967978717 -1.5450915319 2.4869237247
C -1.7877184534 -1.6117086014 1.428659083
O -0.8039822593 -0.7963841782 2.0080274298
H -3.1375675076 1.0196414824 0.7147767958
H -3.309281938 -1.1413736888 -0.0297947355
H -2.3486299216 3.9722163736 -0.9605300055
H -1.117443457 1.2738985249 2.5034686998
H -2.3857383431 -0.1237967248 4.0176121563
H -3.6636254622 0.5156010332 2.9017493303
H -2.6326518967 -2.2224298989 3.3299321885
H -3.9023365849 -1.8158818867 2.0991265288
H -1.4983360644 -2.6664154174 1.2340022384
H -0.9661372075 4.7235183196 -0.0572619249
H -2.4912759095 4.3394530184 0.7945575659
H 3.2816093121 -2.7048227859 3.399616061
H 4.54050813 -1.9965595172 2.3167596939
H 3.3109540593 -3.1592579196 1.6525371904
H 0.943456351 -2.2323360016 -3.5761831649
H -0.759060289 -1.7617112366 -3.9013217431
H -0.8719359847 -3.8438934583 -2.8179532217
H 0.2396537604 -3.5890497384 -1.5403759809
$end

$rem
JOBTYPE                   OPT
METHOD                    B3LYP
DFT_D                     d3_op
BASIS                     STO-3G
GEOM_OPT_MAX_CYCLES       100
GEOM_OPT_TOL_GRADIENT     300
GEOM_OPT_TOL_DISPLACEMENT 1200
GEOM_OPT_TOL_ENERGY       100
SYMMETRY                  False
THRESH                    12
SCF_CONVERGENCE           8
MAX_SUB_FILE_NUM          128
MEM_STATIC                400
MEM_TOTAL                 4000
$end
--------------------------------------------------------------

   17   -1509.8621878217      6.05E-09 Convergence criterion met
 Total energy in the final basis set = -1509.86218782
   16   -1509.9444358242      3.23E-09 Convergence criterion met
 Total energy in the final basis set = -1509.94443582
   14   -1510.0238001136      4.86E-09 Convergence criterion met
 Total energy in the final basis set = -1510.02380011
   14   -1510.0798349019      2.75E-09 Convergence criterion met
 Total energy in the final basis set = -1510.07983490
   14   -1510.1254085854      4.36E-09 Convergence criterion met
 Total energy in the final basis set = -1510.12540859
   15   -1510.1167111767      7.43E-09 Convergence criterion met
 Total energy in the final basis set = -1510.11671118
   14   -1510.1764007488      8.81E-09 Convergence criterion met
 Total energy in the final basis set = -1510.17640075
   14   -1510.1954196804      2.06E-09 Convergence criterion met
    9   -1510.3080005297      7.73E-09 Convergence criterion met
 Total energy in the final basis set = -1510.30800053
   10   -1510.3080175866      9.71E-09 Convergence criterion met
 Total energy in the final basis set = -1510.30801759
   11   -1510.3080340534      5.05E-09 Convergence criterion met
 Total energy in the final basis set = -1510.30803405
   10   -1510.3080473317      6.74E-09 Convergence criterion met
 Total energy in the final basis set = -1510.30804733
    9   -1510.3080525058      7.67E-09 Convergence criterion met
 Total energy in the final basis set = -1510.30805251
    9   -1510.3080522003      6.43E-09 Convergence criterion met
 Total energy in the final basis set = -1510.30805220

             Standard Nuclear Orientation (Angstroms)
    I     Atom           X                Y                Z
 ----------------------------------------------------------------
    1      O      -4.0821726837     1.5809460503    -1.1242295675
    2      C      -3.1090256487     1.1984220098    -0.4398353480
    3      C      -3.1423410803     0.2564345005     0.8142318494
    4      C      -2.3174287020    -1.0840996027     0.6063110965
    5      C      -1.8838771730    -1.3081769178    -0.8851162977
    6      O      -0.7586412489    -2.1934296371    -0.9365711291
    7      C      -0.4321563702    -2.5385399356    -2.3429617131
    8      C       0.1349437061    -1.3046088000    -3.1767566139
    9      O       0.2440060949    -0.0930232383    -2.3382295560
   10      C       1.2492991601    -0.2793934947    -1.3296159271
   11      C       1.1420524626     0.8832049457    -0.3028991109
   12      C       1.9583783602     0.5980951424     1.0208179614
   13      C       2.6294486048    -0.8197877780     1.0706619799
   14      O       3.8440983321    -1.1007499479     1.0323686033
   15      O      -1.7522803117     1.6171364638    -0.6570753435
   16      O       1.5930916789    -1.7987838720     1.3066024381
   17      O       2.0512002725    -1.2403433313    -1.3269025402
   18      C       2.1411264815    -3.1667165009     1.2202174205
   19      C       1.8681018463     2.1953210955    -0.8212902895
   20      C       1.4392118057     3.3925303042     0.1170941113
   21      C       2.3052331403     3.1016330875     1.3986296680
   22      C       3.0299232431     1.7646615504     0.9762324234
   23      O       3.2863485310     1.9570425952    -0.4713486668
   24      H       0.0651920856     1.0613787570    -0.0835989334
   25      H       1.2735798559     0.6964708028     1.8836145024
   26      H       1.7588108728     2.3840318061    -1.9069717679
   27      H       1.7020451178     4.3594967781    -0.3403721428
   28      H       0.3579206978     3.3771935986     0.3261592743
   29      H       3.0421069709     3.9009194766     1.5768466842
   30      H       1.6925199430     2.9726017892     2.3049361804
   31      H       3.9750445044     1.5368761528     1.5063224221
   32      O      -2.4658266703    -0.8619971052    -1.8988679281
   33      C      -1.6162706385     2.3185596465    -1.9545097149
   34      C      -2.3616086053     0.8844862149     2.0444247137
   35      C      -2.6676443983     0.0213210151     3.3333295630
   36      C      -1.7500516695    -1.2348384394     3.0863302789
   37      C      -1.1468203350    -0.9048063815     1.6665247789
   38      O      -0.9519071999     0.5633359273     1.7374899143
   39      H      -4.2001140079     0.0502170197     1.0529543605
   40      H      -2.9403300254    -1.9574381431     0.8791193567
   41      H      -2.6103695854     2.4058899332    -2.4352623793
   42      H      -2.4958724041     1.9771333913     2.1640991644
   43      H      -2.3750276603     0.5674975416     4.2439594366
   44      H      -3.7352355540    -0.2410559299     3.4072250663
   45      H      -0.9453027943    -1.2959526280     3.8364556032
   46      H      -2.3126386254    -2.1817959783     3.0961235919
   47      H      -0.1734628264    -1.3980725261     1.4210446093
   48      H      -0.9241549754     1.7157032949    -2.5778214441
   49      H      -1.1885039790     3.3244477317    -1.7781722960
   50      H       1.2982618050    -3.8503388253     1.4314285407
   51      H       2.9506759132    -3.3312937911     1.9604040633
   52      H       2.5394929699    -3.3691462726     0.2048690158
   53      H       1.1200504776    -1.5765953553    -3.6121866397
   54      H      -0.5684704872    -1.0327123537    -3.9872522143
   55      H      -1.3262173338    -2.9505782424    -2.8571594774
   56      H       0.3410445789    -3.3269125204    -2.2608774333
 ----------------------------------------------------------------

    9   -1510.3080519674      3.80E-09 Convergence criterion met
 Total energy in the final basis set = -1510.30805197
 Final energy is   -1510.30805196745
 **  OPTIMIZATION CONVERGED  **

                    Orbital Energies (a.u.)
 --------------------------------------------------------------

 Alpha MOs
 -- Occupied --
-18.945 -18.938 -18.927 -18.926 -18.889 -18.883 -18.880 -18.877
-18.871 -18.866 -10.108 -10.100 -10.097 -10.092 -10.079 -10.077
-10.063 -10.058 -10.051 -10.048 -10.047 -10.044 -10.040 -10.038
-10.021 -10.021 -10.017 -10.016 -10.011 -10.010  -1.028  -1.011
 -1.004  -0.999  -0.972  -0.961  -0.945  -0.939  -0.931  -0.927
 -0.764  -0.753  -0.726  -0.719  -0.710  -0.702  -0.691  -0.655
 -0.652  -0.622  -0.596  -0.577  -0.545  -0.539  -0.538  -0.530
 -0.512  -0.502  -0.482  -0.478  -0.467  -0.458  -0.445  -0.440
 -0.428  -0.427  -0.422  -0.420  -0.411  -0.406  -0.404  -0.403
 -0.393  -0.378  -0.371  -0.369  -0.362  -0.355  -0.348  -0.344
 -0.343  -0.341  -0.332  -0.329  -0.324  -0.322  -0.317  -0.313
 -0.306  -0.303  -0.298  -0.296  -0.293  -0.286  -0.279  -0.272
 -0.268  -0.260  -0.250  -0.244  -0.241  -0.235  -0.220  -0.198
 -0.174  -0.169  -0.169  -0.162  -0.155  -0.150  -0.146  -0.142
 -0.135

          Ground-State Mulliken Net Atomic Charges

     Atom                 Charge (a.u.)
  ----------------------------------------
      1 O                    -0.212201
      2 C                     0.216495
      3 C                    -0.079925
      4 C                    -0.079972
      5 C                     0.213399
      6 O                    -0.167521
      7 C                    -0.050903
      8 C                    -0.049680
      9 O                    -0.173050
     10 C                     0.214536
     11 C                    -0.093907
     12 C                    -0.085519
     13 C                     0.219860
     14 O                    -0.211438
     15 O                    -0.176666
     16 O                    -0.178307
     17 O                    -0.212248
     18 C                    -0.125872
     19 C                     0.024053
     20 C                    -0.144080
     21 C                    -0.143003
     22 C                     0.024064
     23 O                    -0.191990
     24 H                     0.121290
     25 H                     0.095940
     26 H                     0.078995
     27 H                     0.073907
     28 H                     0.077921
     29 H                     0.075156
     30 H                     0.074321
     31 H                     0.086286
     32 O                    -0.211197
     33 C                    -0.139989
     34 C                     0.026258
     35 C                    -0.144879
     36 C                    -0.144279
     37 C                     0.005428
     38 O                    -0.195554
     39 H                     0.084958
     40 H                     0.084591
     41 H                     0.100148
     42 H                     0.081859
     43 H                     0.076687
     44 H                     0.073271
     45 H                     0.076504
     46 H                     0.071358
     47 H                     0.117184
     48 H                     0.098638
     49 H                     0.079950
     50 H                     0.086769
     51 H                     0.088225
     52 H                     0.093710
     53 H                     0.091501
     54 H                     0.095191
     55 H                     0.088935
     56 H                     0.094793
  ----------------------------------------
  Sum of atomic charges =    -0.000000

                    Cartesian Multipole Moments
 -----------------------------------------------------------------
    Charge (ESU x 10^10)
                -0.0000
    Dipole Moment (Debye)
         X      -2.0120      Y      -1.4114      Z       1.0474
       Tot       2.6716
    Quadrupole Moments (Debye-Ang)
        XX    -180.5761     XY       4.6298     YY    -148.7459
        XZ      -6.0127     YZ       3.2904     ZZ    -149.9653

 Total job time:  179.78s(wall), 8582.83s(cpu)
        *  Thank you very much for using Q-Chem.  Have a nice day.  *
