 Q-Chem 5.0, Q-Chem, Inc., Pleasanton, CA (2017)
 Q-Chem 5.0.1 for Intel X86 EM64T Linux

User input:
--------------------------------------------------------------
$molecule
0  1
O -3.94934 -3.66094 2.70899
C -3.26408 -4.56952 2.26188
C -3.36658 -6.02376 2.66595
C -4.66056 -6.46868 3.36702
C -5.77909 -5.45211 3.42671
O -6.07737 -5.01592 2.16727
C -7.04522 -3.96129 2.15106
C -8.24475 -4.36174 1.29849
O -9.46205 -3.9646 1.94914
C -10.20995 -3.05229 1.2802
C -11.22805 -2.367 2.16028
C -12.6765 -2.83672 1.9612
C -12.85133 -4.13491 1.19907
O -13.79136 -4.90703 1.32048
O -2.22986 -4.25419 1.43804
O -12.14899 -4.26685 0.04233
O -10.04304 -2.7432 0.10604
C -12.25796 -5.32385 -0.83901
C -11.07427 -2.63277 3.68188
C -11.72676 -1.50057 4.47432
C -13.18952 -1.77622 4.20559
C -13.07934 -3.09107 3.42633
O -11.93232 -3.71214 3.94962
H -11.08543 -1.27278 2.01273
H -13.31049 -2.0762 1.45543
H -10.01971 -2.74836 4.01473
H -11.5206 -1.70073 5.55062
H -11.38311 -0.47391 4.22402
H -13.70223 -1.9315 5.18084
H -13.71951 -0.99863 3.61377
H -14.02709 -3.66575 3.5178
O -6.30702 -5.09397 4.47303
C -1.94773 -2.97826 0.99698
C -3.41299 -6.9625 1.43427
C -2.95104 -8.3651 1.83096
C -4.13971 -8.83427 2.64365
C -5.08327 -7.64104 2.46371
O -4.78034 -7.16204 1.17742
H -2.44537 -6.25798 3.24491
H -4.4692 -6.80314 4.41118
H -1.73123 -2.31321 1.86018
H -2.80733 -6.59905 0.57579
H -2.90134 -8.9714 0.89798
H -1.96969 -8.4127 2.35007
H -4.56374 -9.74044 2.15649
H -3.9313 -9.04125 3.71567
H -6.13923 -7.94546 2.63712
H -2.80656 -2.57569 0.4183
H -1.05606 -3.01008 0.33791
H -11.55761 -5.16498 -1.6844
H -13.29235 -5.38742 -1.23897
H -11.9917 -6.2739 -0.32822
H -8.09599 -4.04467 0.24231
H -8.29696 -5.4717 1.27366
H -6.60433 -3.0244 1.7493
H -7.43178 -3.67985 3.15533
$end

$opt
CONSTRAINT
tors           1           2           3           4     +18.520
tors           3           4           5           6     +55.192
tors           4           5           6           7    -174.680
tors           5           6           7           8    -122.823
tors           6           7           8           9    +137.836
tors           7           8           9          10    +117.074
tors           8           9          10          11    -162.570
tors           9          10          11          12    -104.855
tors          11          12          13          14    +152.905
ENDCONSTRAINT
$end

$rem
JOBTYPE                   OPT
METHOD                    B3LYP
DFT_D                     d3_op
BASIS                     STO-3G
GEOM_OPT_MAX_CYCLES       100
GEOM_OPT_TOL_GRADIENT     300
GEOM_OPT_TOL_DISPLACEMENT 1200
GEOM_OPT_TOL_ENERGY       100
SYMMETRY                  False
THRESH                    12
SCF_CONVERGENCE           8
MAX_SUB_FILE_NUM          128
MEM_STATIC                400
MEM_TOTAL                 4000
$end
--------------------------------------------------------------

   15   -1510.1417367453      8.11E-09 Convergence criterion met
 Total energy in the final basis set = -1510.14173675
   13   -1510.2119141534      5.13E-09 Convergence criterion met
 Total energy in the final basis set = -1510.21191415
   13   -1510.2494994953      7.29E-09 Convergence criterion met
 Total energy in the final basis set = -1510.24949950
   13   -1510.2661826001      9.30E-09 Convergence criterion met
 Total energy in the final basis set = -1510.26618260
   13   -1510.2721791229      7.06E-09 Convergence criterion met
 Total energy in the final basis set = -1510.27217912
   13   -1510.2745037494      3.07E-09 Convergence criterion met
 Total energy in the final basis set = -1510.27450375
   13   -1510.2751824007      2.43E-09 Convergence criterion met
 Total energy in the final basis set = -1510.27518240
   12   -1510.2754889530      8.32E-09 Convergence criterion met
   12   -1510.2755634496      4.90E-09 Convergence criterion met
 Total energy in the final basis set = -1510.27556345
   11   -1510.2755986032      4.43E-09 Convergence criterion met
 Total energy in the final basis set = -1510.27559860
   11   -1510.2756211670      4.47E-09 Convergence criterion met
 Total energy in the final basis set = -1510.27562117
   11   -1510.2756404663      5.16E-09 Convergence criterion met
 Total energy in the final basis set = -1510.27564047
   10   -1510.2756482024      6.43E-09 Convergence criterion met
 Total energy in the final basis set = -1510.27564820
    9   -1510.2756522983      7.52E-09 Convergence criterion met
 Total energy in the final basis set = -1510.27565230

             Standard Nuclear Orientation (Angstroms)
    I     Atom           X                Y                Z
 ----------------------------------------------------------------
    1      O       3.5694421726    -2.2062603348     0.1940840196
    2      C       4.4957461736    -1.3914032674     0.3999959383
    3      C       4.9113402242    -0.1758519054    -0.4990783639
    4      C       3.7926716415     0.2826015864    -1.5212600644
    5      C       2.3730212893    -0.3299041170    -1.2559054127
    6      O       1.9851500976    -0.0333446854     0.0931998509
    7      C       0.7058342313    -0.7059778846     0.4171242076
    8      C      -0.3494990334     0.3701996280     0.8725663579
    9      O      -1.6634636883     0.0621129063     0.2601894719
   10      C      -2.6326245412    -0.2307791795     1.2803465623
   11      C      -3.8644457322    -0.9750574575     0.6450915226
   12      C      -5.1921544499    -0.1279035936     0.4497465650
   13      C      -5.0316532934     1.4395582341     0.4356994690
   14      O      -5.7879137646     2.2450088048    -0.1495265368
   15      O       5.3890402420    -1.4625263704     1.5148255226
   16      O      -3.8766389695     1.8356458137     1.1741274723
   17      O      -2.4131329062    -0.1035103276     2.5064352273
   18      C      -3.6823010616     3.3006975520     1.0948542833
   19      C      -3.6540819413    -1.5506031812    -0.8234014315
   20      C      -4.6101463111    -2.7972928774    -0.9796994871
   21      C      -6.0139889155    -2.0867991544    -1.0400798712
   22      C      -5.5923004472    -0.5647427455    -1.0226644077
   23      O      -4.2790358737    -0.5431826781    -1.7105815376
   24      H      -4.0830300880    -1.8028429855     1.3447831033
   25      H      -5.9602855352    -0.3990985222     1.1977156511
   26      H      -2.5959438863    -1.7130125923    -1.1034669063
   27      H      -4.3910532421    -3.3317700306    -1.9181139451
   28      H      -4.5221104900    -3.5049590186    -0.1401047731
   29      H      -6.5534022026    -2.3285364881    -1.9694424045
   30      H      -6.6561679627    -2.3441161036    -0.1823743411
   31      H      -6.2992450052     0.1356128130    -1.5090903091
   32      O       1.6606217592    -0.9500667730    -2.0761044376
   33      C       5.0374438997    -2.6197255335     2.3701661205
   34      C       5.1977846336     1.1772518220     0.2867172923
   35      C       6.1258692018     2.0684071248    -0.6279003696
   36      C       5.1109352622     2.4948599326    -1.7530444050
   37      C       3.7698825495     1.8459948449    -1.2228348739
   38      O       3.9065607990     1.8989272668     0.2508420409
   39      H       5.8205473645    -0.4850766169    -1.0490566591
   40      H       4.0700589887     0.0578492470    -2.5657920898
   41      H       5.1203116364    -3.5770992313     1.8160379815
   42      H       5.5416000951     1.0325578323     1.3290592207
   43      H       6.4904390621     2.9419727388    -0.0642508813
   44      H       6.9924515341     1.5114713017    -1.0183288586
   45      H       5.0118931952     3.5899829206    -1.8174195547
   46      H       5.3896678375     2.1067700852    -2.7457935362
   47      H       2.8418961717     2.3578402742    -1.5438089085
   48      H       4.0064271819    -2.5324684898     2.7696087379
   49      H       5.7608814823    -2.6115834978     3.2060752151
   50      H      -2.7624232058     3.5143992066     1.6696757896
   51      H      -4.5374879532     3.8475232694     1.5418769276
   52      H      -3.5554407454     3.6360141995     0.0453532591
   53      H      -0.4745899143     0.3965742634     1.9765862940
   54      H      -0.0210271294     1.3688179251     0.5131758618
   55      H       0.8962513243    -1.4495126522     1.2183871574
   56      H       0.3443691738    -1.2265503384    -0.4981056729
 ----------------------------------------------------------------

    9   -1510.2756530637      8.32E-09 Convergence criterion met
 Total energy in the final basis set = -1510.27565306
 Final energy is   -1510.27565306372
 **  OPTIMIZATION CONVERGED  **

                    Orbital Energies (a.u.)
 --------------------------------------------------------------

 Alpha MOs
 -- Occupied --
-18.942 -18.940 -18.922 -18.920 -18.889 -18.882 -18.879 -18.874
-18.869 -18.861 -10.104 -10.100 -10.094 -10.094 -10.068 -10.066
-10.061 -10.060 -10.057 -10.056 -10.055 -10.054 -10.040 -10.037
-10.037 -10.032 -10.021 -10.020 -10.017 -10.016  -1.017  -1.015
 -1.003  -0.999  -0.971  -0.966  -0.940  -0.937  -0.930  -0.924
 -0.764  -0.759  -0.725  -0.720  -0.711  -0.703  -0.686  -0.665
 -0.663  -0.610  -0.596  -0.575  -0.545  -0.541  -0.538  -0.534
 -0.513  -0.508  -0.485  -0.476  -0.467  -0.463  -0.443  -0.437
 -0.434  -0.432  -0.420  -0.414  -0.413  -0.409  -0.405  -0.403
 -0.387  -0.379  -0.377  -0.374  -0.358  -0.352  -0.351  -0.348
 -0.341  -0.332  -0.330  -0.326  -0.326  -0.324  -0.320  -0.314
 -0.308  -0.305  -0.303  -0.297  -0.296  -0.287  -0.286  -0.276
 -0.272  -0.258  -0.243  -0.239  -0.235  -0.234  -0.228  -0.183
 -0.180  -0.172  -0.160  -0.156  -0.155  -0.149  -0.146  -0.143
 -0.138

          Ground-State Mulliken Net Atomic Charges

     Atom                 Charge (a.u.)
  ----------------------------------------
      1 O                    -0.212606
      2 C                     0.214390
      3 C                    -0.078225
      4 C                    -0.079122
      5 C                     0.215061
      6 O                    -0.172660
      7 C                    -0.056765
      8 C                    -0.057413
      9 O                    -0.175616
     10 C                     0.218374
     11 C                    -0.081090
     12 C                    -0.076829
     13 C                     0.213463
     14 O                    -0.213497
     15 O                    -0.170323
     16 O                    -0.164938
     17 O                    -0.222017
     18 C                    -0.125334
     19 C                     0.024090
     20 C                    -0.143005
     21 C                    -0.145299
     22 C                     0.023654
     23 O                    -0.190644
     24 H                     0.083142
     25 H                     0.085524
     26 H                     0.091090
     27 H                     0.078007
     28 H                     0.072488
     29 H                     0.078179
     30 H                     0.072789
     31 H                     0.089109
     32 O                    -0.214186
     33 C                    -0.127791
     34 C                     0.025360
     35 C                    -0.142876
     36 C                    -0.144812
     37 C                     0.026207
     38 O                    -0.185967
     39 H                     0.084872
     40 H                     0.085430
     41 H                     0.089579
     42 H                     0.090105
     43 H                     0.078084
     44 H                     0.073416
     45 H                     0.078152
     46 H                     0.074070
     47 H                     0.082737
     48 H                     0.090631
     49 H                     0.091451
     50 H                     0.094064
     51 H                     0.091050
     52 H                     0.092725
     53 H                     0.099689
     54 H                     0.086453
     55 H                     0.083992
     56 H                     0.103590
  ----------------------------------------
  Sum of atomic charges =    -0.000000

                    Cartesian Multipole Moments
 -----------------------------------------------------------------
    Charge (ESU x 10^10)
                 0.0000
    Dipole Moment (Debye)
         X       2.3292      Y      -0.5684      Z       0.9299
       Tot       2.5716
    Quadrupole Moments (Debye-Ang)
        XX    -140.1684     XY       6.7727     YY    -152.1310
        XZ      -4.7204     YZ      -5.0480     ZZ    -164.2488

 Total job time:  40.73s(wall), 1934.43s(cpu)
        *  Thank you very much for using Q-Chem.  Have a nice day.  *
