 Q-Chem 5.0, Q-Chem, Inc., Pleasanton, CA (2017)
 Q-Chem 5.0.1 for Intel X86 EM64T Linux

User input:
--------------------------------------------------------------
$molecule
0  1
O 3.5694421726 -2.2062603348 0.1940840196
C 4.4957461736 -1.3914032674 0.3999959383
C 4.9113402242 -0.1758519054 -0.4990783639
C 3.7926716415 0.2826015864 -1.5212600644
C 2.3730212893 -0.329904117 -1.2559054127
O 1.9851500976 -0.0333446854 0.0931998509
C 0.7058342313 -0.7059778846 0.4171242076
C -0.3494990334 0.370199628 0.8725663579
O -1.6634636883 0.0621129063 0.2601894719
C -2.6326245412 -0.2307791795 1.2803465623
C -3.8644457322 -0.9750574575 0.6450915226
C -5.1921544499 -0.1279035936 0.449746565
C -5.0316532934 1.4395582341 0.435699469
O -5.7879137646 2.2450088048 -0.1495265368
O 5.389040242 -1.4625263704 1.5148255226
O -3.8766389695 1.8356458137 1.1741274723
O -2.4131329062 -0.1035103276 2.5064352273
C -3.6823010616 3.300697552 1.0948542833
C -3.6540819413 -1.5506031812 -0.8234014315
C -4.6101463111 -2.7972928774 -0.9796994871
C -6.0139889155 -2.0867991544 -1.0400798712
C -5.5923004472 -0.5647427455 -1.0226644077
O -4.2790358737 -0.5431826781 -1.7105815376
H -4.083030088 -1.8028429855 1.3447831033
H -5.9602855352 -0.3990985222 1.1977156511
H -2.5959438863 -1.7130125923 -1.1034669063
H -4.3910532421 -3.3317700306 -1.9181139451
H -4.52211049 -3.5049590186 -0.1401047731
H -6.5534022026 -2.3285364881 -1.9694424045
H -6.6561679627 -2.3441161036 -0.1823743411
H -6.2992450052 0.135612813 -1.5090903091
O 1.6606217592 -0.950066773 -2.0761044376
C 5.0374438997 -2.6197255335 2.3701661205
C 5.1977846336 1.177251822 0.2867172923
C 6.1258692018 2.0684071248 -0.6279003696
C 5.1109352622 2.4948599326 -1.753044405
C 3.7698825495 1.8459948449 -1.2228348739
O 3.906560799 1.8989272668 0.2508420409
H 5.8205473645 -0.4850766169 -1.0490566591
H 4.0700589887 0.057849247 -2.5657920898
H 5.1203116364 -3.5770992313 1.8160379815
H 5.5416000951 1.0325578323 1.3290592207
H 6.4904390621 2.9419727388 -0.0642508813
H 6.9924515341 1.5114713017 -1.0183288586
H 5.0118931952 3.5899829206 -1.8174195547
H 5.3896678375 2.1067700852 -2.7457935362
H 2.8418961717 2.3578402742 -1.5438089085
H 4.0064271819 -2.5324684898 2.7696087379
H 5.7608814823 -2.6115834978 3.2060752151
H -2.7624232058 3.5143992066 1.6696757896
H -4.5374879532 3.8475232694 1.5418769276
H -3.5554407454 3.6360141995 0.0453532591
H -0.4745899143 0.3965742634 1.976586294
H -0.0210271294 1.3688179251 0.5131758618
H 0.8962513243 -1.4495126522 1.2183871574
H 0.3443691738 -1.2265503384 -0.4981056729
$end

$rem
JOBTYPE                   OPT
METHOD                    B3LYP
DFT_D                     d3_op
BASIS                     STO-3G
GEOM_OPT_MAX_CYCLES       100
GEOM_OPT_TOL_GRADIENT     300
GEOM_OPT_TOL_DISPLACEMENT 1200
GEOM_OPT_TOL_ENERGY       100
SYMMETRY                  False
THRESH                    12
SCF_CONVERGENCE           8
MAX_SUB_FILE_NUM          128
MEM_STATIC                400
MEM_TOTAL                 4000
$end
--------------------------------------------------------------

   16   -1510.2758633569      5.96E-09 Convergence criterion met
 Total energy in the final basis set = -1510.27586336
   14   -1510.2781365972      2.02E-09 Convergence criterion met
 Total energy in the final basis set = -1510.27813660
   14   -1510.2793901375      1.51E-09 Convergence criterion met
 Total energy in the final basis set = -1510.27939014
   13   -1510.2802632760      6.29E-09 Convergence criterion met
 Total energy in the final basis set = -1510.28026328
   13   -1510.2813258005      7.24E-09 Convergence criterion met
 Total energy in the final basis set = -1510.28132580
   13   -1510.2821903824      6.29E-09 Convergence criterion met
 Total energy in the final basis set = -1510.28219038
   13   -1510.2830961997      3.42E-09 Convergence criterion met
 Total energy in the final basis set = -1510.28309620
   12   -1510.2839085271      9.10E-09 Convergence criterion met
   10   -1510.2878831920      5.71E-09 Convergence criterion met
 Total energy in the final basis set = -1510.28788319
   10   -1510.2878866811      3.69E-09 Convergence criterion met
 Total energy in the final basis set = -1510.28788668
    9   -1510.2878855579      9.37E-09 Convergence criterion met
 Total energy in the final basis set = -1510.28788556
    9   -1510.2878865707      6.40E-09 Convergence criterion met
 Total energy in the final basis set = -1510.28788657
    9   -1510.2878880981      4.36E-09 Convergence criterion met
 Total energy in the final basis set = -1510.28788810
    9   -1510.2878898240      5.74E-09 Convergence criterion met
 Total energy in the final basis set = -1510.28788982

             Standard Nuclear Orientation (Angstroms)
    I     Atom           X                Y                Z
 ----------------------------------------------------------------
    1      O       3.3249832714    -1.9975633322     0.0557750637
    2      C       4.3632657033    -1.3552340661     0.3307928412
    3      C       4.9296081125    -0.1039212375    -0.4226863247
    4      C       3.8906431623     0.5407060076    -1.4298130201
    5      C       2.4858576843    -0.1619549301    -1.4569343637
    6      O       1.7540147070     0.2199962697    -0.2816687121
    7      C       0.4291745518    -0.4423858639    -0.2701342439
    8      C      -0.6654517306     0.6461264412     0.0178362463
    9      O      -2.0338120675     0.1089624940    -0.1765596072
   10      C      -2.4272831827    -0.6982496517     0.9427250183
   11      C      -3.8764507905    -1.2252514476     0.6710349822
   12      C      -4.9080448817    -0.0816370228     0.2894452497
   13      C      -4.2874483244     1.3607238164     0.3082748075
   14      O      -4.3206534846     2.2203210130    -0.5962929004
   15      O       5.2458191170    -1.6846486599     1.4046068917
   16      O      -3.6905024144     1.5667828146     1.5978029518
   17      O      -1.7012077559    -0.9420450606     1.9299961711
   18      C      -3.0662505047     2.9072920910     1.6584351320
   19      C      -3.9353199749    -2.1140090656    -0.6486459703
   20      C      -5.3110082719    -2.8923539765    -0.6643720982
   21      C      -6.3091623129    -1.7433877176    -1.0680192331
   22      C      -5.3244953366    -0.5140786359    -1.1767106953
   23      O      -4.0856382090    -1.1127809345    -1.7266371265
   24      H      -4.2030199186    -1.7898425354     1.5615915439
   25      H      -5.7733234364    -0.0958230766     0.9777024055
   26      H      -3.0383143513    -2.7398973782    -0.8220812765
   27      H      -5.2906003750    -3.6950605825    -1.4188419974
   28      H      -5.5469947235    -3.3355000878     0.3162577915
   29      H      -6.7849783322    -1.9446692615    -2.0409186249
   30      H      -7.0965902188    -1.5792164170    -0.3153538805
   31      H      -5.6625231831     0.3268340209    -1.8131322384
   32      O       2.0186768837    -0.8519058330    -2.3899221551
   33      C       4.7347950647    -2.8686285219     2.1349620738
   34      C       5.2193109561     1.1189862046     0.5503955195
   35      C       6.1613501745     2.1343878963    -0.2069440741
   36      C       5.1517136116     2.7724874573    -1.2324752186
   37      C       3.8132094312     2.0204757247    -0.8552173600
   38      O       3.9220016196     1.8283284411     0.6093494974
   39      H       5.8531288638    -0.4126938593    -0.9468126359
   40      H       4.2828946508     0.5234926202    -2.4619983444
   41      H       4.6932157584    -3.7637612862     1.4812081308
   42      H       5.5516736954     0.8184958493     1.5629453671
   43      H       6.5568970115     2.8875535799     0.4931893157
   44      H       7.0079582040     1.6288465635    -0.6985054881
   45      H       5.0430045248     3.8569125970    -1.0721068675
   46      H       5.4430835423     2.5976474712    -2.2805414234
   47      H       2.8808874755     2.5619121106    -1.1060391315
   48      H       3.7215176905    -2.6858186907     2.5470718054
   49      H       5.4460865517    -3.0465915916     2.9622160912
   50      H      -2.5413925053     2.9572910609     2.6301595337
   51      H      -3.8264278531     3.7137040376     1.6067219951
   52      H      -2.3403867976     3.0562818623     0.8338032405
   53      H      -0.5391442564     1.0403834219     1.0485942319
   54      H      -0.5687015978     1.4775086465    -0.7093176999
   55      H       0.4163320699    -1.2127315885     0.5297986052
   56      H       0.2596822355    -0.9276558125    -1.2562672449
 ----------------------------------------------------------------

    9   -1510.2878906749      2.52E-09 Convergence criterion met
 Total energy in the final basis set = -1510.28789067
 Final energy is   -1510.28789067489
 **  OPTIMIZATION CONVERGED  **

                    Orbital Energies (a.u.)
 --------------------------------------------------------------

 Alpha MOs
 -- Occupied --
-18.941 -18.930 -18.929 -18.919 -18.888 -18.885 -18.883 -18.873
-18.871 -18.863 -10.105 -10.097 -10.096 -10.091 -10.068 -10.066
-10.062 -10.060 -10.059 -10.058 -10.055 -10.054 -10.040 -10.035
-10.034 -10.034 -10.021 -10.019 -10.018 -10.017  -1.018  -1.013
 -1.003  -0.998  -0.970  -0.967  -0.941  -0.934  -0.933  -0.924
 -0.763  -0.761  -0.725  -0.722  -0.710  -0.703  -0.688  -0.665
 -0.660  -0.610  -0.595  -0.578  -0.545  -0.543  -0.537  -0.535
 -0.512  -0.508  -0.484  -0.474  -0.464  -0.461  -0.446  -0.437
 -0.433  -0.430  -0.427  -0.414  -0.413  -0.408  -0.404  -0.395
 -0.386  -0.378  -0.378  -0.367  -0.359  -0.353  -0.351  -0.347
 -0.341  -0.337  -0.330  -0.330  -0.327  -0.324  -0.322  -0.314
 -0.307  -0.305  -0.303  -0.298  -0.290  -0.287  -0.281  -0.276
 -0.271  -0.259  -0.251  -0.248  -0.236  -0.234  -0.231  -0.184
 -0.179  -0.174  -0.159  -0.157  -0.153  -0.146  -0.145  -0.143
 -0.140

          Ground-State Mulliken Net Atomic Charges

     Atom                 Charge (a.u.)
  ----------------------------------------
      1 O                    -0.207062
      2 C                     0.214769
      3 C                    -0.078150
      4 C                    -0.080665
      5 C                     0.215339
      6 O                    -0.174041
      7 C                    -0.057354
      8 C                    -0.048847
      9 O                    -0.169750
     10 C                     0.212506
     11 C                    -0.078772
     12 C                    -0.078255
     13 C                     0.215876
     14 O                    -0.211490
     15 O                    -0.169438
     16 O                    -0.174519
     17 O                    -0.214435
     18 C                    -0.128902
     19 C                     0.025997
     20 C                    -0.143924
     21 C                    -0.143913
     22 C                     0.024620
     23 O                    -0.185308
     24 H                     0.084937
     25 H                     0.083891
     26 H                     0.083045
     27 H                     0.078042
     28 H                     0.073395
     29 H                     0.078017
     30 H                     0.072632
     31 H                     0.090280
     32 O                    -0.217405
     33 C                    -0.128073
     34 C                     0.024836
     35 C                    -0.143616
     36 C                    -0.144398
     37 C                     0.026889
     38 O                    -0.186846
     39 H                     0.086122
     40 H                     0.084014
     41 H                     0.090193
     42 H                     0.088771
     43 H                     0.077984
     44 H                     0.073392
     45 H                     0.077658
     46 H                     0.073769
     47 H                     0.083945
     48 H                     0.092980
     49 H                     0.091871
     50 H                     0.090877
     51 H                     0.087161
     52 H                     0.089642
     53 H                     0.091293
     54 H                     0.088651
     55 H                     0.090242
     56 H                     0.101524
  ----------------------------------------
  Sum of atomic charges =    -0.000000

                    Cartesian Multipole Moments
 -----------------------------------------------------------------
    Charge (ESU x 10^10)
                -0.0000
    Dipole Moment (Debye)
         X       1.2147      Y      -0.0216      Z       1.4432
       Tot       1.8865
    Quadrupole Moments (Debye-Ang)
        XX    -131.2800     XY       5.4505     YY    -152.2114
        XZ      -5.2853     YZ      -3.4038     ZZ    -166.0329

 Total job time:  74.91s(wall), 3565.13s(cpu)
        *  Thank you very much for using Q-Chem.  Have a nice day.  *
