 Q-Chem 5.0, Q-Chem, Inc., Pleasanton, CA (2017)
 Q-Chem 5.0.1 for Intel X86 EM64T Linux

User input:
--------------------------------------------------------------
$molecule
0  1
O -3.94934 -3.66094 2.70899
C -3.26408 -4.56952 2.26188
C -3.36658 -6.02376 2.66595
C -4.7385 -6.52444 3.14657
C -5.89641 -5.56202 3.00136
O -6.44229 -5.67759 1.75473
C -7.45034 -4.69674 1.48825
C -8.61658 -4.86512 2.45659
O -9.04813 -3.58003 2.93113
C -10.30474 -3.21776 2.57219
C -10.50663 -1.72115 2.56648
C -11.97313 -1.26572 2.58208
C -12.9901 -2.32514 2.95642
O -14.18213 -2.12868 3.14359
O -2.18589 -4.24096 1.50124
O -12.60297 -3.54982 3.40921
O -10.89915 -3.85995 1.70814
C -13.43521 -4.55204 3.87137
C -9.99709 -1.00863 3.84255
C -9.70559 0.45742 3.52553
C -11.11114 0.99175 3.33895
C -11.92768 -0.24544 3.72992
O -11.12462 -0.90624 4.67694
H -9.94553 -1.32415 1.68988
H -12.29086 -0.84287 1.60411
H -9.09867 -1.47953 4.29635
H -9.2764 0.90583 4.45051
H -9.01136 0.64089 2.67748
H -11.26977 1.8222 4.06216
H -11.35906 1.32766 2.30863
H -12.94294 0.05089 4.07493
O -6.10124 -4.64172 3.78663
C -1.87808 -2.95862 1.09708
C -3.13612 -6.9866 1.47324
C -2.6524 -8.34198 1.98775
C -3.92191 -8.87222 2.61702
C -4.90291 -7.76007 2.22996
O -4.42035 -7.29236 0.99619
H -2.54817 -6.19681 3.40005
H -4.73402 -6.84549 4.2116
H -1.70714 -2.30827 1.98147
H -2.41894 -6.60301 0.71587
H -2.41477 -8.96377 1.0946
H -1.76563 -8.31202 2.65673
H -4.19173 -9.82692 2.11308
H -3.8814 -9.02091 3.71776
H -5.94527 -8.14905 2.23452
H -2.70362 -2.5444 0.47955
H -0.95206 -2.98208 0.48685
H -12.82044 -5.42904 4.16017
H -14.14325 -4.85885 3.07229
H -13.9989 -4.20302 4.76275
H -9.37909 -5.53661 2.00299
H -8.3421 -5.4178 3.37569
H -7.80733 -4.74575 0.43803
H -6.98599 -3.6911 1.61653
$end

$opt
CONSTRAINT
tors           1           2           3           4     +28.604
tors           3           4           5           6     +86.418
tors           4           5           6           7    -173.548
tors           5           6           7           8     -62.380
tors           6           7           8           9    +137.023
tors           7           8           9          10    +115.431
tors           8           9          10          11    -155.745
tors           9          10          11          12    -162.652
tors          11          12          13          14    +172.860
ENDCONSTRAINT
$end

$rem
JOBTYPE                   OPT
METHOD                    B3LYP
DFT_D                     d3_op
BASIS                     STO-3G
GEOM_OPT_MAX_CYCLES       100
GEOM_OPT_TOL_GRADIENT     300
GEOM_OPT_TOL_DISPLACEMENT 1200
GEOM_OPT_TOL_ENERGY       100
SYMMETRY                  False
THRESH                    12
SCF_CONVERGENCE           8
MAX_SUB_FILE_NUM          128
MEM_STATIC                400
MEM_TOTAL                 4000
$end
--------------------------------------------------------------

   15   -1510.1038451392      7.68E-09 Convergence criterion met
 Total energy in the final basis set = -1510.10384514
   14   -1510.1795174778      8.63E-09 Convergence criterion met
 Total energy in the final basis set = -1510.17951748
   14   -1510.2224719582      7.58E-09 Convergence criterion met
 Total energy in the final basis set = -1510.22247196
   14   -1510.2440810888      6.55E-09 Convergence criterion met
 Total energy in the final basis set = -1510.24408109
   13   -1510.2543108370      9.48E-09 Convergence criterion met
 Total energy in the final basis set = -1510.25431084
   13   -1510.2596242022      6.61E-09 Convergence criterion met
 Total energy in the final basis set = -1510.25962420
   13   -1510.2624528483      2.83E-09 Convergence criterion met
 Total energy in the final basis set = -1510.26245285
   13   -1510.2639774502      3.23E-09 Convergence criterion met
   10   -1510.2661160766      7.47E-09 Convergence criterion met
 Total energy in the final basis set = -1510.26611608
   10   -1510.2661528164      9.88E-09 Convergence criterion met
 Total energy in the final basis set = -1510.26615282
   11   -1510.2661791297      3.35E-09 Convergence criterion met
 Total energy in the final basis set = -1510.26617913
   11   -1510.2661909974      4.13E-09 Convergence criterion met
 Total energy in the final basis set = -1510.26619100
   10   -1510.2661958934      5.27E-09 Convergence criterion met
 Total energy in the final basis set = -1510.26619589
    9   -1510.2661972113      6.73E-09 Convergence criterion met
 Total energy in the final basis set = -1510.26619721

             Standard Nuclear Orientation (Angstroms)
    I     Atom           X                Y                Z
 ----------------------------------------------------------------
    1      O       2.8796663205    -1.7935964612    -0.2476152749
    2      C       4.1076454993    -1.5794101472    -0.1356316581
    3      C       4.9163112507    -0.3809065695    -0.7499719939
    4      C       4.0286326548     0.9213001589    -0.9296979294
    5      C       2.4899197990     0.6867081599    -0.7039201193
    6      O       2.2157506968     0.8223358487     0.6978815240
    7      C       0.8174542394     0.4680147111     1.0294037257
    8      C      -0.2923513198     1.3775681066     0.3577301823
    9      O      -1.3813444944     0.5000784470    -0.1311154567
   10      C      -2.6025239154     0.7684504284     0.5804380928
   11      C      -3.4871683257    -0.5244380704     0.4997874221
   12      C      -5.0271772045    -0.3929450093     0.8218746355
   13      C      -5.7496090586     0.9525622180     0.4232841007
   14      O      -6.9839448411     1.1459421794     0.5008829042
   15      O       5.0070894525    -2.4625361879     0.5371580985
   16      O      -4.8608425647     1.8395660970    -0.2539125196
   17      O      -2.7751024626     1.7701272238     1.3085080726
   18      C      -5.6017178546     3.0240258937    -0.7432508280
   19      C      -3.5091967067    -1.3286254862    -0.8762394649
   20      C      -3.6037511750    -2.8570651420    -0.5004557173
   21      C      -5.0569788099    -2.9109545898     0.1030913372
   22      C      -5.5893066419    -1.4581776372    -0.2237516005
   23      O      -4.8496937560    -1.0623328820    -1.4488119846
   24      H      -3.0412070912    -1.1841786918     1.2700770291
   25      H      -5.2660797536    -0.6438054380     1.8705735625
   26      H      -2.7072826962    -1.0503765248    -1.5869853018
   27      H      -3.5228433179    -3.4786242506    -1.4067233247
   28      H      -2.8269603217    -3.1684672060     0.2160987450
   29      H      -5.6787330800    -3.6716209595    -0.3946994622
   30      H      -5.0579790015    -3.1110702971     1.1867297948
   31      H      -6.6822528991    -1.3828670988    -0.3865881785
   32      O       1.6365621855     0.4837856806    -1.5938335398
   33      C       4.2641642867    -3.6221723197     1.0834829591
   34      C       6.0104506735     0.1487920434     0.2694131968
   35      C       6.9568922443     1.1716350891    -0.4754824561
   36      C       6.0411719983     2.4500204661    -0.5359965503
   37      C       4.7132976886     1.8993773145     0.1180989740
   38      O       5.2111599740     0.9980085518     1.1828189663
   39      H       5.3601743115    -0.7103044711    -1.7078424497
   40      H       4.1384408990     1.3085207477    -1.9584513146
   41      H       3.7568492013    -4.1958111798     0.2810695242
   42      H       6.5214568308    -0.6565201064     0.8310812048
   43      H       7.8705553776     1.3529631769     0.1126365909
   44      H       7.2468400338     0.8099820278    -1.4750881251
   45      H       6.4546247217     3.2702485408     0.0722636334
   46      H       5.8831813985     2.8152077857    -1.5632463122
   47      H       4.0378094964     2.6663121308     0.5427466288
   48      H       3.5032343459    -3.3047228323     1.8253792607
   49      H       5.0189912044    -4.2614812275     1.5770216512
   50      H      -4.8557783146     3.6527601503    -1.2630565651
   51      H      -6.0534773738     3.5966902591     0.0921055192
   52      H      -6.4064302186     2.7359199503    -1.4503688137
   53      H      -0.7187129498     2.1109208505     1.0755839573
   54      H       0.1360042459     1.9156170104    -0.5115439178
   55      H       0.7614893255     0.5371250625     2.1339326523
   56      H       0.6155741409    -0.5842461683     0.7252771381
 ----------------------------------------------------------------

    9   -1510.2661979688      3.78E-09 Convergence criterion met
 Total energy in the final basis set = -1510.26619797
 Final energy is   -1510.26619796885
 **  OPTIMIZATION CONVERGED  **

                    Orbital Energies (a.u.)
 --------------------------------------------------------------

 Alpha MOs
 -- Occupied --
-18.944 -18.931 -18.925 -18.923 -18.887 -18.884 -18.883 -18.872
-18.866 -18.862 -10.106 -10.097 -10.095 -10.092 -10.071 -10.066
-10.059 -10.059 -10.059 -10.058 -10.056 -10.055 -10.042 -10.035
-10.034 -10.034 -10.021 -10.019 -10.018 -10.016  -1.020  -1.008
 -1.003  -1.000  -0.970  -0.966  -0.943  -0.933  -0.929  -0.925
 -0.763  -0.759  -0.724  -0.720  -0.713  -0.703  -0.687  -0.667
 -0.655  -0.614  -0.596  -0.580  -0.545  -0.540  -0.537  -0.534
 -0.513  -0.508  -0.483  -0.477  -0.469  -0.459  -0.442  -0.439
 -0.434  -0.433  -0.419  -0.417  -0.409  -0.408  -0.403  -0.393
 -0.384  -0.380  -0.380  -0.367  -0.363  -0.355  -0.353  -0.345
 -0.339  -0.334  -0.332  -0.330  -0.326  -0.326  -0.313  -0.312
 -0.307  -0.306  -0.303  -0.299  -0.294  -0.290  -0.281  -0.277
 -0.267  -0.261  -0.245  -0.241  -0.239  -0.234  -0.230  -0.185
 -0.179  -0.170  -0.161  -0.159  -0.151  -0.146  -0.144  -0.141
 -0.139

          Ground-State Mulliken Net Atomic Charges

     Atom                 Charge (a.u.)
  ----------------------------------------
      1 O                    -0.210902
      2 C                     0.214711
      3 C                    -0.077089
      4 C                    -0.081925
      5 C                     0.213407
      6 O                    -0.173828
      7 C                    -0.050799
      8 C                    -0.057544
      9 O                    -0.174599
     10 C                     0.217186
     11 C                    -0.078151
     12 C                    -0.076455
     13 C                     0.212221
     14 O                    -0.220479
     15 O                    -0.168211
     16 O                    -0.163145
     17 O                    -0.211702
     18 C                    -0.125497
     19 C                     0.024643
     20 C                    -0.141297
     21 C                    -0.146123
     22 C                     0.023590
     23 O                    -0.192022
     24 H                     0.082107
     25 H                     0.084861
     26 H                     0.094238
     27 H                     0.078014
     28 H                     0.072892
     29 H                     0.078155
     30 H                     0.072903
     31 H                     0.086175
     32 O                    -0.213330
     33 C                    -0.127500
     34 C                     0.023282
     35 C                    -0.144775
     36 C                    -0.143518
     37 C                     0.025599
     38 O                    -0.189519
     39 H                     0.086818
     40 H                     0.082514
     41 H                     0.090535
     42 H                     0.090598
     43 H                     0.077913
     44 H                     0.073048
     45 H                     0.077655
     46 H                     0.073512
     47 H                     0.086528
     48 H                     0.091303
     49 H                     0.092261
     50 H                     0.091132
     51 H                     0.089373
     52 H                     0.090086
     53 H                     0.096504
     54 H                     0.093070
     55 H                     0.087058
     56 H                     0.094524
  ----------------------------------------
  Sum of atomic charges =    -0.000000

                    Cartesian Multipole Moments
 -----------------------------------------------------------------
    Charge (ESU x 10^10)
                 0.0000
    Dipole Moment (Debye)
         X       3.3080      Y      -1.5745      Z       0.4746
       Tot       3.6942
    Quadrupole Moments (Debye-Ang)
        XX    -159.1792     XY       2.9330     YY    -146.3878
        XZ      -6.6071     YZ      -8.1285     ZZ    -162.4802

 Total job time:  57.87s(wall), 2749.58s(cpu)
        *  Thank you very much for using Q-Chem.  Have a nice day.  *
