 Q-Chem 5.0, Q-Chem, Inc., Pleasanton, CA (2017)
 Q-Chem 5.0.1 for Intel X86 EM64T Linux

User input:
--------------------------------------------------------------
$molecule
0  1
O 2.8796663205 -1.7935964612 -0.2476152749
C 4.1076454993 -1.5794101472 -0.1356316581
C 4.9163112507 -0.3809065695 -0.7499719939
C 4.0286326548 0.9213001589 -0.9296979294
C 2.489919799 0.6867081599 -0.7039201193
O 2.2157506968 0.8223358487 0.697881524
C 0.8174542394 0.4680147111 1.0294037257
C -0.2923513198 1.3775681066 0.3577301823
O -1.3813444944 0.500078447 -0.1311154567
C -2.6025239154 0.7684504284 0.5804380928
C -3.4871683257 -0.5244380704 0.4997874221
C -5.0271772045 -0.3929450093 0.8218746355
C -5.7496090586 0.952562218 0.4232841007
O -6.9839448411 1.1459421794 0.5008829042
O 5.0070894525 -2.4625361879 0.5371580985
O -4.8608425647 1.839566097 -0.2539125196
O -2.7751024626 1.7701272238 1.3085080726
C -5.6017178546 3.0240258937 -0.743250828
C -3.5091967067 -1.3286254862 -0.8762394649
C -3.603751175 -2.857065142 -0.5004557173
C -5.0569788099 -2.9109545898 0.1030913372
C -5.5893066419 -1.4581776372 -0.2237516005
O -4.849693756 -1.062332882 -1.4488119846
H -3.0412070912 -1.1841786918 1.2700770291
H -5.2660797536 -0.643805438 1.8705735625
H -2.7072826962 -1.0503765248 -1.5869853018
H -3.5228433179 -3.4786242506 -1.4067233247
H -2.8269603217 -3.168467206 0.216098745
H -5.67873308 -3.6716209595 -0.3946994622
H -5.0579790015 -3.1110702971 1.1867297948
H -6.6822528991 -1.3828670988 -0.3865881785
O 1.6365621855 0.4837856806 -1.5938335398
C 4.2641642867 -3.6221723197 1.0834829591
C 6.0104506735 0.1487920434 0.2694131968
C 6.9568922443 1.1716350891 -0.4754824561
C 6.0411719983 2.4500204661 -0.5359965503
C 4.7132976886 1.8993773145 0.118098974
O 5.211159974 0.9980085518 1.1828189663
H 5.3601743115 -0.7103044711 -1.7078424497
H 4.138440899 1.3085207477 -1.9584513146
H 3.7568492013 -4.1958111798 0.2810695242
H 6.5214568308 -0.6565201064 0.8310812048
H 7.8705553776 1.3529631769 0.1126365909
H 7.2468400338 0.8099820278 -1.4750881251
H 6.4546247217 3.2702485408 0.0722636334
H 5.8831813985 2.8152077857 -1.5632463122
H 4.0378094964 2.6663121308 0.5427466288
H 3.5032343459 -3.3047228323 1.8253792607
H 5.0189912044 -4.2614812275 1.5770216512
H -4.8557783146 3.6527601503 -1.2630565651
H -6.0534773738 3.5966902591 0.0921055192
H -6.4064302186 2.7359199503 -1.4503688137
H -0.7187129498 2.1109208505 1.0755839573
H 0.1360042459 1.9156170104 -0.5115439178
H 0.7614893255 0.5371250625 2.1339326523
H 0.6155741409 -0.5842461683 0.7252771381
$end

$rem
JOBTYPE                   OPT
METHOD                    B3LYP
DFT_D                     d3_op
BASIS                     STO-3G
GEOM_OPT_MAX_CYCLES       100
GEOM_OPT_TOL_GRADIENT     300
GEOM_OPT_TOL_DISPLACEMENT 1200
GEOM_OPT_TOL_ENERGY       100
SYMMETRY                  False
THRESH                    12
SCF_CONVERGENCE           8
MAX_SUB_FILE_NUM          128
MEM_STATIC                400
MEM_TOTAL                 4000
$end
--------------------------------------------------------------

   16   -1510.2660784200      5.93E-09 Convergence criterion met
 Total energy in the final basis set = -1510.26607842
   14   -1510.2701329858      3.55E-09 Convergence criterion met
 Total energy in the final basis set = -1510.27013299
   14   -1510.2729180514      2.82E-09 Convergence criterion met
 Total energy in the final basis set = -1510.27291805
   14   -1510.2749747585      1.94E-09 Convergence criterion met
 Total energy in the final basis set = -1510.27497476
   13   -1510.2768349915      2.97E-09 Convergence criterion met
 Total energy in the final basis set = -1510.27683499
   13   -1510.2784235624      8.96E-09 Convergence criterion met
 Total energy in the final basis set = -1510.27842356
   13   -1510.2796827530      5.44E-09 Convergence criterion met
 Total energy in the final basis set = -1510.27968275
   13   -1510.2808046574      3.02E-09 Convergence criterion met
   14   -1510.2860483820      2.11E-09 Convergence criterion met
 Total energy in the final basis set = -1510.28604838
   13   -1510.2861397355      3.11E-09 Convergence criterion met
 Total energy in the final basis set = -1510.28613974
   12   -1510.2861720800      4.63E-09 Convergence criterion met
 Total energy in the final basis set = -1510.28617208
   12   -1510.2861754334      2.56E-09 Convergence criterion met
 Total energy in the final basis set = -1510.28617543
   11   -1510.2861840004      5.31E-09 Convergence criterion met
 Total energy in the final basis set = -1510.28618400
   11   -1510.2861851496      3.65E-09 Convergence criterion met
 Total energy in the final basis set = -1510.28618515

             Standard Nuclear Orientation (Angstroms)
    I     Atom           X                Y                Z
 ----------------------------------------------------------------
    1      O       3.5610287453    -2.0023830576     0.0768148639
    2      C       4.6556668398    -1.4299364948     0.2785704370
    3      C       5.1381125649    -0.0637491921    -0.3142634434
    4      C       4.0005816016     0.7181865662    -1.0920845695
    5      C       2.6110469224    -0.0183144401    -1.1210895289
    6      O       1.9342028318     0.2140517931     0.1233054400
    7      C       0.6636653045    -0.5459133770     0.1645750700
    8      C      -0.4765062281     0.1691929260    -0.6578598471
    9      O      -1.7343639986    -0.6155280750    -0.6356265194
   10      C      -2.4266898365    -0.4183615042     0.6004316934
   11      C      -3.7801385501    -1.2246352679     0.5912539243
   12      C      -5.0534172166    -0.2800415428     0.7203755345
   13      C      -4.7031153215     1.2440094988     0.7645414582
   14      O      -5.1107126426     2.0962137666     1.5824561245
   15      O       5.6932215894    -1.9614821102     1.1041423596
   16      O      -3.8198473657     1.5320297625    -0.3277961683
   17      O      -1.9882823610     0.2713501347     1.5479940999
   18      C      -3.3779719864     2.9429630617    -0.2696556208
   19      C      -4.0870249713    -1.9609095357    -0.7783738585
   20      C      -5.2274687672    -3.0252752248    -0.5270590739
   21      C      -6.4898188324    -2.0944448692    -0.3984263478
   22      C      -5.8394202693    -0.6700368219    -0.6082245445
   23      O      -4.7605198766    -0.9185271785    -1.5882276665
   24      H      -3.7459982144    -1.9381393777     1.4352409772
   25      H      -5.6441554687    -0.5143865355     1.6232288785
   26      H      -3.1886877739    -2.3371550956    -1.3029723193
   27      H      -5.3151015561    -3.7051563149    -1.3893514239
   28      H      -5.0461707757    -3.6258287820     0.3788760200
   29      H      -7.2258021381    -2.3002378094    -1.1918326339
   30      H      -6.9894637648    -2.1834148156     0.5794260976
   31      H      -6.5297616457     0.1121266877    -0.9797541014
   32      O       2.1133288700    -0.6239819818    -2.0954953264
   33      C       5.2698492213    -3.2612463845     1.6766421373
   34      C       5.5167228443     0.9860098175     0.8185313281
   35      C       6.3642256335     2.1403284180     0.1549631818
   36      C       5.2468208500     2.9166699445    -0.6363566835
   37      C       3.9628951354     2.0733507649    -0.2628022036
   38      O       4.2247766075     1.6362023161     1.1280999594
   39      H       6.0063850823    -0.2650403644    -0.9686166947
   40      H       4.2975110216     0.8914640744    -2.1414263050
   41      H       5.0579588817    -4.0059824326     0.8824665078
   42      H       5.9569013791     0.5292614646     1.7262558942
   43      H       6.8237100243     2.7735689055     0.9304291395
   44      H       7.1594281301     1.7487670889    -0.4993790947
   45      H       5.1448165965     3.9534991022    -0.2785136616
   46      H       5.4281562977     2.9339624929    -1.7228299698
   47      H       3.0034502004     2.6223263242    -0.3206802536
   48      H       4.3646098823    -3.1519233480     2.3080962642
   49      H       6.1153791264    -3.6105444419     2.2971818626
   50      H      -2.7628913439     3.1071450522    -1.1734541667
   51      H      -2.7668604668     3.1349918290     0.6364227597
   52      H      -4.2383118350     3.6425799937    -0.2710956401
   53      H      -0.6416904721     1.1903873526    -0.2542721989
   54      H      -0.1805512372     0.2260864848    -1.7243050872
   55      H       0.3739334511    -0.5866796147     1.2335845145
   56      H       0.8086767411    -1.5759836098    -0.2249298020
 ----------------------------------------------------------------

   11   -1510.2861859419      3.57E-09 Convergence criterion met
 Total energy in the final basis set = -1510.28618594
 Final energy is   -1510.28618594191
 **  OPTIMIZATION CONVERGED  **

                    Orbital Energies (a.u.)
 --------------------------------------------------------------

 Alpha MOs
 -- Occupied --
-18.943 -18.932 -18.930 -18.922 -18.888 -18.886 -18.885 -18.873
-18.863 -18.861 -10.107 -10.096 -10.096 -10.092 -10.070 -10.062
-10.061 -10.061 -10.059 -10.059 -10.058 -10.054 -10.041 -10.035
-10.034 -10.034 -10.021 -10.020 -10.018 -10.016  -1.020  -1.011
 -1.003  -0.999  -0.970  -0.966  -0.943  -0.933  -0.931  -0.925
 -0.764  -0.760  -0.724  -0.721  -0.712  -0.705  -0.687  -0.667
 -0.657  -0.612  -0.595  -0.579  -0.546  -0.543  -0.538  -0.534
 -0.513  -0.509  -0.485  -0.476  -0.468  -0.462  -0.446  -0.436
 -0.434  -0.430  -0.423  -0.416  -0.411  -0.409  -0.406  -0.392
 -0.384  -0.379  -0.377  -0.364  -0.358  -0.355  -0.353  -0.346
 -0.340  -0.338  -0.332  -0.328  -0.327  -0.325  -0.317  -0.315
 -0.306  -0.305  -0.301  -0.300  -0.294  -0.291  -0.282  -0.276
 -0.271  -0.261  -0.253  -0.248  -0.238  -0.234  -0.230  -0.186
 -0.180  -0.173  -0.161  -0.156  -0.153  -0.145  -0.144  -0.141
 -0.139

          Ground-State Mulliken Net Atomic Charges

     Atom                 Charge (a.u.)
  ----------------------------------------
      1 O                    -0.207898
      2 C                     0.214895
      3 C                    -0.078303
      4 C                    -0.081585
      5 C                     0.213439
      6 O                    -0.170429
      7 C                    -0.051503
      8 C                    -0.051708
      9 O                    -0.166989
     10 C                     0.212889
     11 C                    -0.077925
     12 C                    -0.079455
     13 C                     0.210348
     14 O                    -0.210213
     15 O                    -0.169155
     16 O                    -0.166939
     17 O                    -0.224902
     18 C                    -0.128684
     19 C                     0.024491
     20 C                    -0.144406
     21 C                    -0.143884
     22 C                     0.026029
     23 O                    -0.185602
     24 H                     0.083113
     25 H                     0.084990
     26 H                     0.092864
     27 H                     0.077604
     28 H                     0.072539
     29 H                     0.077555
     30 H                     0.073536
     31 H                     0.082089
     32 O                    -0.220825
     33 C                    -0.128052
     34 C                     0.025143
     35 C                    -0.143644
     36 C                    -0.144423
     37 C                     0.026752
     38 O                    -0.186347
     39 H                     0.086438
     40 H                     0.083130
     41 H                     0.090687
     42 H                     0.087844
     43 H                     0.078349
     44 H                     0.073511
     45 H                     0.077861
     46 H                     0.073474
     47 H                     0.085322
     48 H                     0.091816
     49 H                     0.092225
     50 H                     0.090470
     51 H                     0.090660
     52 H                     0.090184
     53 H                     0.088801
     54 H                     0.096126
     55 H                     0.093217
     56 H                     0.094479
  ----------------------------------------
  Sum of atomic charges =     0.000000

                    Cartesian Multipole Moments
 -----------------------------------------------------------------
    Charge (ESU x 10^10)
                 0.0000
    Dipole Moment (Debye)
         X       2.1701      Y      -1.0313      Z      -0.1558
       Tot       2.4077
    Quadrupole Moments (Debye-Ang)
        XX    -137.0778     XY       6.7419     YY    -148.6574
        XZ       0.5461     YZ     -12.4463     ZZ    -168.3575

 Total job time:  74.58s(wall), 3545.95s(cpu)
        *  Thank you very much for using Q-Chem.  Have a nice day.  *
