 Q-Chem 5.0, Q-Chem, Inc., Pleasanton, CA (2017)
 Q-Chem 5.0.1 for Intel X86 EM64T Linux

User input:
--------------------------------------------------------------
$molecule
0  1
O 3.6296666905 -1.6283827644 1.1632873495
C 4.7032923332 -1.1476361119 0.7361881079
C 4.9446163123 -0.4821742071 -0.6653352746
C 3.6086665187 0.0790553253 -1.3091908298
C 2.296621375 -0.3282261832 -0.5466972115
O 2.0496198404 0.6206444854 0.5031412914
C 0.8208510171 0.2532419519 1.2401700733
C -0.4294872613 1.0644174856 0.7128510443
O -1.4522126775 0.1362599297 0.1760411299
C -2.6069509715 0.1105422156 1.0271851781
C -3.6294894337 -0.9575341874 0.4814553188
C -5.1014820635 -0.4426792414 0.1539070146
C -5.5074657615 1.0378383417 0.4919983029
O -6.1744010713 1.7985792253 -0.2448724042
O 5.9335277593 -1.1824671237 1.461094186
O -5.1776072647 1.3349614222 1.8478235933
O -2.7015696111 0.7915722215 2.0719437812
C -5.6346654745 2.7000500007 2.1959263103
C -3.2078679639 -1.5201913594 -0.9428266931
C -4.0226405743 -2.8394301209 -1.2480391566
C -5.4336594408 -2.2536000383 -1.6280597661
C -5.1821007223 -0.7129760154 -1.4076403794
O -3.7888148723 -0.5233272661 -1.872390118
H -3.6788062163 -1.7625465377 1.238721623
H -5.8259299899 -1.0843689107 0.6905755213
H -2.1131390795 -1.5935107292 -1.0852537674
H -3.5689315323 -3.3790379049 -2.0943783897
H -4.0614908317 -3.5157523322 -0.3791675139
H -5.6847897459 -2.4569339105 -2.6813234009
H -6.2442894624 -2.6409313261 -0.9903446474
H -5.8694252994 -0.0244505238 -1.9375412158
O 1.5233188782 -1.2628635277 -0.849146474
C 5.7272324213 -1.8334394463 2.7758591612
C 5.7898372754 0.8532055929 -0.5288924667
C 6.2296748231 1.3352094755 -1.9680644742
C 4.8841148202 1.9442515485 -2.5118244531
C 3.9079022385 1.6395988717 -1.3087184827
O 4.7660158981 1.8418396519 -0.1184118314
H 5.4377404628 -1.221380077 -1.3234246175
H 3.5008814478 -0.3001452256 -2.3411550817
H 5.3639809011 -2.8751929951 2.6619314441
H 6.6000091405 0.7918502853 0.2230014017
H 7.0197246795 2.0991627145 -1.893946736
H 6.5999300098 0.5027024058 -2.5873595105
H 4.9695061595 3.0314127303 -2.6689334119
H 4.5499041848 1.4762334129 -3.4513746746
H 3.0077289689 2.2807255133 -1.2519539163
H 4.9997892066 -1.2721741859 3.3970257195
H 6.7150314655 -1.8359113367 3.2721363837
H -5.347774126 2.85389404 3.2522019919
H -6.7340209643 2.8030111094 2.0876651505
H -5.1451487212 3.4679944323 1.563115617
H -0.8928309434 1.6554527319 1.5317695089
H -0.1164928387 1.7362044658 -0.1136822114
H 1.0128820295 0.487063136 2.3065083159
H 0.618382784 -0.833137815 1.1192993519
$end

$rem
JOBTYPE                   OPT
METHOD                    B3LYP
DFT_D                     d3_op
BASIS                     STO-3G
GEOM_OPT_MAX_CYCLES       100
GEOM_OPT_TOL_GRADIENT     300
GEOM_OPT_TOL_DISPLACEMENT 1200
GEOM_OPT_TOL_ENERGY       100
SYMMETRY                  False
THRESH                    12
SCF_CONVERGENCE           8
MAX_SUB_FILE_NUM          128
MEM_STATIC                400
MEM_TOTAL                 4000
$end
--------------------------------------------------------------

   16   -1510.2744955875      4.81E-09 Convergence criterion met
 Total energy in the final basis set = -1510.27449559
   13   -1510.2759996992      4.08E-09 Convergence criterion met
 Total energy in the final basis set = -1510.27599970
   13   -1510.2773266477      8.75E-09 Convergence criterion met
 Total energy in the final basis set = -1510.27732665
   13   -1510.2786068653      4.10E-09 Convergence criterion met
 Total energy in the final basis set = -1510.27860687
   13   -1510.2797049542      3.65E-09 Convergence criterion met
 Total energy in the final basis set = -1510.27970495
   13   -1510.2808147553      3.31E-09 Convergence criterion met
 Total energy in the final basis set = -1510.28081476
   13   -1510.2818872206      2.62E-09 Convergence criterion met
 Total energy in the final basis set = -1510.28188722
   14   -1510.2756611926      4.64E-09 Convergence criterion met
   11   -1510.3002924782      7.87E-09 Convergence criterion met
 Total energy in the final basis set = -1510.30029248
   12   -1510.3002933246      4.16E-09 Convergence criterion met
 Total energy in the final basis set = -1510.30029332
   12   -1510.3003025839      3.72E-09 Convergence criterion met
 Total energy in the final basis set = -1510.30030258
   11   -1510.3003053992      5.30E-09 Convergence criterion met
 Total energy in the final basis set = -1510.30030540
   10   -1510.3003082227      5.81E-09 Convergence criterion met
 Total energy in the final basis set = -1510.30030822
   11   -1510.3003090302      5.13E-09 Convergence criterion met
 Total energy in the final basis set = -1510.30030903

             Standard Nuclear Orientation (Angstroms)
    I     Atom           X                Y                Z
 ----------------------------------------------------------------
    1      O      -3.3088867432     0.1085802878     2.3758683210
    2      C      -3.8402367222     0.1597951361     1.2438459456
    3      C      -3.2051916726     0.7257061677    -0.0710798039
    4      C      -1.6263441487     0.8162154439    -0.0096477928
    5      C      -0.9889143018     0.2292585341     1.2956809428
    6      O      -1.1768712315    -1.1951117795     1.3089391489
    7      C      -0.3575565020    -1.7935562329     2.3847662340
    8      C       1.0237324803    -2.2268026583     1.7706859049
    9      O       1.5368392814    -1.1165001015     0.9335306384
   10      C       2.5400540134    -0.3654267474     1.6266623023
   11      C       2.9923607671     0.8315589247     0.7307002924
   12      C       3.1908940013     0.5146646671    -0.8131600625
   13      C       2.6313388898    -0.8831989775    -1.2653151376
   14      O       1.5830111570    -1.1096045458    -1.9111074728
   15      O      -5.1735543979    -0.2768440346     0.9675387688
   16      O       3.5766409086    -1.8923463122    -0.8939256955
   17      O       2.9527012850    -0.6445693845     2.7735808205
   18      C       3.0789917362    -3.2234177877    -1.3104526331
   19      C       1.8914392568     1.9904410051     0.6566649697
   20      C       2.6374597814     3.3291800283     0.2904998868
   21      C       3.0123211046     3.0580842606    -1.2155744317
   22      C       2.3170405387     1.6607634140    -1.4638215933
   23      O       1.1342583761     1.6873355902    -0.5762052339
   24      H       3.9283287899     1.2189701166     1.1702306884
   25      H       4.2585311241     0.5735099929    -1.0919028024
   26      H       1.1856824612     2.0068119838     1.5154371390
   27      H       1.9508070451     4.1858906312     0.3844095656
   28      H       3.5189556299     3.5118561104     0.9254402761
   29      H       2.5913236551     3.8254949520    -1.8841191585
   30      H       4.1010203377     3.0086798239    -1.3771782321
   31      H       2.0102706538     1.4554154049    -2.5075604005
   32      O      -0.3420600589     0.8579899977     2.1656266981
   33      C      -5.7978077192    -0.8131930315     2.1989840908
   34      C      -3.4100370067    -0.2156251010    -1.3365921440
   35      C      -3.1479715308     0.6540357662    -2.6282288631
   36      C      -1.5820334220     0.7990738776    -2.5752915464
   37      C      -1.2294490965    -0.0460543979    -1.2878413734
   38      O      -2.2452623917    -1.1254192307    -1.2911414216
   39      H      -3.6507270715     1.7216143599    -0.2534117057
   40      H      -1.2746581387     1.8579588273    -0.1015665146
   41      H      -5.8571519232    -0.0440675621     2.9960979834
   42      H      -4.3597410461    -0.7847216509    -1.3244068106
   43      H      -3.4735427675     0.1092824833    -3.5288130244
   44      H      -3.6724186852     1.6221755878    -2.5930138263
   45      H      -1.1032454052     0.3569038629    -3.4633896008
   46      H      -1.2512277455     1.8455826720    -2.4805810101
   47      H      -0.1948244964    -0.4582036450    -1.2879339531
   48      H      -5.2366139917    -1.6852073523     2.5924844663
   49      H      -6.8178380510    -1.1281610202     1.9113384050
   50      H       3.7956820581    -3.9604625893    -0.9038419125
   51      H       3.0401257257    -3.3158819584    -2.4153324797
   52      H       2.0659225250    -3.4228544208    -0.9075995494
   53      H       1.7537093772    -2.4632479464     2.5745826780
   54      H       0.8904771581    -3.0966874277     1.0969166306
   55      H      -0.9026806717    -2.6763959111     2.7747869929
   56      H      -0.1958305120    -1.0474542746     3.1914680541
 ----------------------------------------------------------------

    9   -1510.3003088826      7.91E-09 Convergence criterion met
 Total energy in the final basis set = -1510.30030888
 Final energy is   -1510.30030888263
 **  OPTIMIZATION CONVERGED  **

                    Orbital Energies (a.u.)
 --------------------------------------------------------------

 Alpha MOs
 -- Occupied --
-18.935 -18.934 -18.932 -18.917 -18.884 -18.877 -18.875 -18.872
-18.869 -18.857 -10.101 -10.101 -10.097 -10.088 -10.068 -10.064
-10.063 -10.061 -10.057 -10.050 -10.046 -10.037 -10.035 -10.032
-10.028 -10.020 -10.019 -10.017 -10.007 -10.001  -1.018  -1.011
 -1.007  -0.994  -0.969  -0.953  -0.938  -0.934  -0.933  -0.921
 -0.762  -0.750  -0.724  -0.712  -0.705  -0.698  -0.685  -0.662
 -0.658  -0.610  -0.591  -0.576  -0.542  -0.536  -0.531  -0.520
 -0.508  -0.502  -0.484  -0.472  -0.462  -0.456  -0.443  -0.437
 -0.429  -0.421  -0.418  -0.417  -0.411  -0.408  -0.404  -0.397
 -0.389  -0.373  -0.369  -0.364  -0.360  -0.356  -0.349  -0.344
 -0.342  -0.337  -0.332  -0.325  -0.321  -0.316  -0.309  -0.305
 -0.302  -0.302  -0.298  -0.294  -0.289  -0.279  -0.275  -0.269
 -0.262  -0.252  -0.250  -0.243  -0.232  -0.230  -0.217  -0.183
 -0.176  -0.175  -0.161  -0.153  -0.152  -0.149  -0.143  -0.140
 -0.127

          Ground-State Mulliken Net Atomic Charges

     Atom                 Charge (a.u.)
  ----------------------------------------
      1 O                    -0.211378
      2 C                     0.213616
      3 C                    -0.079645
      4 C                    -0.078274
      5 C                     0.224759
      6 O                    -0.168772
      7 C                    -0.052301
      8 C                    -0.051904
      9 O                    -0.173889
     10 C                     0.214342
     11 C                    -0.080524
     12 C                    -0.078992
     13 C                     0.221493
     14 O                    -0.216284
     15 O                    -0.169720
     16 O                    -0.172608
     17 O                    -0.211218
     18 C                    -0.128155
     19 C                     0.016881
     20 C                    -0.143262
     21 C                    -0.145310
     22 C                     0.024638
     23 O                    -0.193696
     24 H                     0.085619
     25 H                     0.084906
     26 H                     0.105154
     27 H                     0.077608
     28 H                     0.074260
     29 H                     0.076706
     30 H                     0.072806
     31 H                     0.085632
     32 O                    -0.229257
     33 C                    -0.127760
     34 C                     0.024308
     35 C                    -0.144421
     36 C                    -0.143996
     37 C                     0.021892
     38 O                    -0.191413
     39 H                     0.083365
     40 H                     0.089472
     41 H                     0.089063
     42 H                     0.085064
     43 H                     0.074337
     44 H                     0.069383
     45 H                     0.075410
     46 H                     0.072358
     47 H                     0.107990
     48 H                     0.090367
     49 H                     0.090521
     50 H                     0.089512
     51 H                     0.087778
     52 H                     0.090176
     53 H                     0.099053
     54 H                     0.086378
     55 H                     0.087342
     56 H                     0.100585
  ----------------------------------------
  Sum of atomic charges =    -0.000000

                    Cartesian Multipole Moments
 -----------------------------------------------------------------
    Charge (ESU x 10^10)
                 0.0000
    Dipole Moment (Debye)
         X       0.2733      Y       0.1603      Z      -1.1586
       Tot       1.2011
    Quadrupole Moments (Debye-Ang)
        XX    -145.4585     XY       0.3978     YY    -148.7111
        XZ      -9.0078     YZ      -6.2769     ZZ    -163.8823

 Total job time:  128.29s(wall), 6116.11s(cpu)
        *  Thank you very much for using Q-Chem.  Have a nice day.  *
