 Q-Chem 5.0, Q-Chem, Inc., Pleasanton, CA (2017)
 Q-Chem 5.0.1 for Intel X86 EM64T Linux

User input:
--------------------------------------------------------------
$molecule
0  1
O -3.94934 -3.66094 2.70899
C -3.26408 -4.56952 2.26188
C -3.36658 -6.02376 2.66595
C -4.70467 -6.49588 3.25794
C -5.84762 -5.50595 3.21554
O -6.49898 -5.60023 2.01877
C -7.59429 -4.68618 1.90024
C -8.90346 -5.38654 2.24908
O -9.51413 -4.74706 3.3809
C -10.65337 -4.05993 3.11796
C -11.19562 -3.33515 4.32681
C -12.64251 -3.69015 4.69931
C -13.20207 -4.94303 4.05596
O -13.87738 -5.78989 4.62283
O -2.20548 -4.24844 1.47166
O -13.22863 -4.96115 2.69764
O -11.06974 -3.82988 1.98857
C -13.79361 -5.96123 1.93279
C -10.49652 -3.61988 5.68206
C -10.71906 -2.44396 6.63266
C -12.19207 -2.60328 6.94217
C -12.48437 -3.91928 6.21333
O -11.27178 -4.62976 6.2802
H -11.0799 -2.25012 4.10425
H -13.34408 -2.8674 4.43851
H -9.40602 -3.81821 5.60498
H -10.13815 -2.66325 7.55758
H -10.42033 -1.44629 6.2451
H -12.30858 -2.72203 8.04234
H -12.84656 -1.7833 6.57463
H -13.36894 -4.41679 6.66759
O -6.31736 -4.98327 4.21976
C -1.90923 -2.96978 1.04795
C -3.27508 -6.98949 1.4556
C -2.76693 -8.35329 1.92223
C -3.97348 -8.8576 2.68606
C -4.97594 -7.73762 2.38428
O -4.60568 -7.28116 1.1074
H -2.48998 -6.22566 3.32182
H -4.57667 -6.76992 4.32915
H -1.71775 -2.31077 1.92162
H -2.6309 -6.61485 0.63086
H -2.64066 -8.97878 1.00913
H -1.81246 -8.34599 2.49115
H -4.30087 -9.81892 2.23154
H -3.82392 -8.98414 3.78021
H -6.01956 -8.10684 2.4941
H -2.75007 -2.56239 0.44669
H -0.99842 -2.99812 0.41541
H -13.66204 -5.71539 0.85915
H -14.87997 -6.04416 2.14984
H -13.29215 -6.93029 2.14195
H -9.54245 -5.42473 1.33799
H -8.72635 -6.45448 2.50038
H -7.63676 -4.3725 0.8351
H -7.45665 -3.72889 2.4561
$end

$opt
CONSTRAINT
tors           1           2           3           4     +23.581
tors           3           4           5           6     +86.418
tors           4           5           6           7    -179.726
tors           5           6           7           8     -96.993
tors           6           7           8           9    +118.930
tors           7           8           9          10    +110.522
tors           8           9          10          11    -176.141
tors           9          10          11          12    -123.677
tors          11          12          13          14    +137.462
ENDCONSTRAINT
$end

$rem
JOBTYPE                   OPT
METHOD                    B3LYP
DFT_D                     d3_op
BASIS                     STO-3G
GEOM_OPT_MAX_CYCLES       100
GEOM_OPT_TOL_GRADIENT     300
GEOM_OPT_TOL_DISPLACEMENT 1200
GEOM_OPT_TOL_ENERGY       100
SYMMETRY                  False
THRESH                    12
SCF_CONVERGENCE           8
MAX_SUB_FILE_NUM          128
MEM_STATIC                400
MEM_TOTAL                 4000
$end
--------------------------------------------------------------

   15   -1510.1395292416      8.17E-09 Convergence criterion met
 Total energy in the final basis set = -1510.13952924
   14   -1510.2096246264      5.88E-09 Convergence criterion met
 Total energy in the final basis set = -1510.20962463
   14   -1510.2472337904      6.98E-09 Convergence criterion met
 Total energy in the final basis set = -1510.24723379
   14   -1510.2639759944      4.98E-09 Convergence criterion met
 Total energy in the final basis set = -1510.26397599
   14   -1510.2697877870      4.00E-09 Convergence criterion met
 Total energy in the final basis set = -1510.26978779
   13   -1510.2719532745      5.83E-09 Convergence criterion met
 Total energy in the final basis set = -1510.27195327
   13   -1510.2727693306      2.74E-09 Convergence criterion met
 Total energy in the final basis set = -1510.27276933
   12   -1510.2732547727      5.43E-09 Convergence criterion met
   12   -1510.2744764095      2.17E-09 Convergence criterion met
 Total energy in the final basis set = -1510.27447641
   12   -1510.2744941143      3.24E-09 Convergence criterion met
 Total energy in the final basis set = -1510.27449411
   12   -1510.2745193380      3.98E-09 Convergence criterion met
 Total energy in the final basis set = -1510.27451934
   12   -1510.2745489364      3.95E-09 Convergence criterion met
 Total energy in the final basis set = -1510.27454894
   12   -1510.2745747477      3.04E-09 Convergence criterion met
 Total energy in the final basis set = -1510.27457475
   12   -1510.2745748825      2.98E-09 Convergence criterion met
 Total energy in the final basis set = -1510.27457488

             Standard Nuclear Orientation (Angstroms)
    I     Atom           X                Y                Z
 ----------------------------------------------------------------
    1      O       3.6296666905    -1.6283827644     1.1632873495
    2      C       4.7032923332    -1.1476361119     0.7361881079
    3      C       4.9446163123    -0.4821742071    -0.6653352746
    4      C       3.6086665187     0.0790553253    -1.3091908298
    5      C       2.2966213750    -0.3282261832    -0.5466972115
    6      O       2.0496198404     0.6206444854     0.5031412914
    7      C       0.8208510171     0.2532419519     1.2401700733
    8      C      -0.4294872613     1.0644174856     0.7128510443
    9      O      -1.4522126775     0.1362599297     0.1760411299
   10      C      -2.6069509715     0.1105422156     1.0271851781
   11      C      -3.6294894337    -0.9575341874     0.4814553188
   12      C      -5.1014820635    -0.4426792414     0.1539070146
   13      C      -5.5074657615     1.0378383417     0.4919983029
   14      O      -6.1744010713     1.7985792253    -0.2448724042
   15      O       5.9335277593    -1.1824671237     1.4610941860
   16      O      -5.1776072647     1.3349614222     1.8478235933
   17      O      -2.7015696111     0.7915722215     2.0719437812
   18      C      -5.6346654745     2.7000500007     2.1959263103
   19      C      -3.2078679639    -1.5201913594    -0.9428266931
   20      C      -4.0226405743    -2.8394301209    -1.2480391566
   21      C      -5.4336594408    -2.2536000383    -1.6280597661
   22      C      -5.1821007223    -0.7129760154    -1.4076403794
   23      O      -3.7888148723    -0.5233272661    -1.8723901180
   24      H      -3.6788062163    -1.7625465377     1.2387216230
   25      H      -5.8259299899    -1.0843689107     0.6905755213
   26      H      -2.1131390795    -1.5935107292    -1.0852537674
   27      H      -3.5689315323    -3.3790379049    -2.0943783897
   28      H      -4.0614908317    -3.5157523322    -0.3791675139
   29      H      -5.6847897459    -2.4569339105    -2.6813234009
   30      H      -6.2442894624    -2.6409313261    -0.9903446474
   31      H      -5.8694252994    -0.0244505238    -1.9375412158
   32      O       1.5233188782    -1.2628635277    -0.8491464740
   33      C       5.7272324213    -1.8334394463     2.7758591612
   34      C       5.7898372754     0.8532055929    -0.5288924667
   35      C       6.2296748231     1.3352094755    -1.9680644742
   36      C       4.8841148202     1.9442515485    -2.5118244531
   37      C       3.9079022385     1.6395988717    -1.3087184827
   38      O       4.7660158981     1.8418396519    -0.1184118314
   39      H       5.4377404628    -1.2213800770    -1.3234246175
   40      H       3.5008814478    -0.3001452256    -2.3411550817
   41      H       5.3639809011    -2.8751929951     2.6619314441
   42      H       6.6000091405     0.7918502853     0.2230014017
   43      H       7.0197246795     2.0991627145    -1.8939467360
   44      H       6.5999300098     0.5027024058    -2.5873595105
   45      H       4.9695061595     3.0314127303    -2.6689334119
   46      H       4.5499041848     1.4762334129    -3.4513746746
   47      H       3.0077289689     2.2807255133    -1.2519539163
   48      H       4.9997892066    -1.2721741859     3.3970257195
   49      H       6.7150314655    -1.8359113367     3.2721363837
   50      H      -5.3477741260     2.8538940400     3.2522019919
   51      H      -6.7340209643     2.8030111094     2.0876651505
   52      H      -5.1451487212     3.4679944323     1.5631156170
   53      H      -0.8928309434     1.6554527319     1.5317695089
   54      H      -0.1164928387     1.7362044658    -0.1136822114
   55      H       1.0128820295     0.4870631360     2.3065083159
   56      H       0.6183827840    -0.8331378150     1.1192993519
 ----------------------------------------------------------------

   11   -1510.2745754606      6.18E-09 Convergence criterion met
 Total energy in the final basis set = -1510.27457546
 Final energy is   -1510.27457546063
 **  OPTIMIZATION CONVERGED  **

                    Orbital Energies (a.u.)
 --------------------------------------------------------------

 Alpha MOs
 -- Occupied --
-18.943 -18.932 -18.928 -18.921 -18.886 -18.884 -18.879 -18.873
-18.868 -18.863 -10.106 -10.095 -10.094 -10.092 -10.070 -10.061
-10.060 -10.059 -10.059 -10.058 -10.051 -10.049 -10.041 -10.035
-10.034 -10.033 -10.020 -10.019 -10.014 -10.013  -1.019  -1.010
 -1.005  -1.000  -0.969  -0.962  -0.943  -0.934  -0.929  -0.925
 -0.763  -0.756  -0.724  -0.718  -0.711  -0.702  -0.686  -0.666
 -0.658  -0.612  -0.595  -0.576  -0.545  -0.538  -0.537  -0.531
 -0.512  -0.506  -0.482  -0.476  -0.464  -0.460  -0.443  -0.442
 -0.433  -0.426  -0.421  -0.416  -0.410  -0.406  -0.402  -0.401
 -0.383  -0.379  -0.376  -0.369  -0.362  -0.354  -0.348  -0.343
 -0.340  -0.331  -0.330  -0.329  -0.326  -0.324  -0.321  -0.313
 -0.307  -0.305  -0.300  -0.298  -0.291  -0.281  -0.278  -0.275
 -0.270  -0.260  -0.248  -0.243  -0.238  -0.233  -0.226  -0.185
 -0.180  -0.172  -0.159  -0.158  -0.149  -0.147  -0.146  -0.142
 -0.137

          Ground-State Mulliken Net Atomic Charges

     Atom                 Charge (a.u.)
  ----------------------------------------
      1 O                    -0.208949
      2 C                     0.214952
      3 C                    -0.077206
      4 C                    -0.081597
      5 C                     0.213957
      6 O                    -0.174652
      7 C                    -0.053405
      8 C                    -0.057878
      9 O                    -0.170159
     10 C                     0.207687
     11 C                    -0.076507
     12 C                    -0.079242
     13 C                     0.206514
     14 O                    -0.216476
     15 O                    -0.168593
     16 O                    -0.160731
     17 O                    -0.208901
     18 C                    -0.126493
     19 C                     0.022416
     20 C                    -0.145170
     21 C                    -0.143700
     22 C                     0.022359
     23 O                    -0.191331
     24 H                     0.084563
     25 H                     0.083401
     26 H                     0.097812
     27 H                     0.077968
     28 H                     0.071760
     29 H                     0.077099
     30 H                     0.071576
     31 H                     0.089957
     32 O                    -0.216433
     33 C                    -0.127564
     34 C                     0.023622
     35 C                    -0.144682
     36 C                    -0.143584
     37 C                     0.025982
     38 O                    -0.189279
     39 H                     0.086718
     40 H                     0.083592
     41 H                     0.090725
     42 H                     0.089726
     43 H                     0.077998
     44 H                     0.073214
     45 H                     0.077703
     46 H                     0.073792
     47 H                     0.086138
     48 H                     0.091915
     49 H                     0.092162
     50 H                     0.092720
     51 H                     0.087464
     52 H                     0.088880
     53 H                     0.099872
     54 H                     0.088045
     55 H                     0.087309
     56 H                     0.102932
  ----------------------------------------
  Sum of atomic charges =    -0.000000

                    Cartesian Multipole Moments
 -----------------------------------------------------------------
    Charge (ESU x 10^10)
                 0.0000
    Dipole Moment (Debye)
         X       2.0868      Y      -1.1701      Z       0.7276
       Tot       2.5006
    Quadrupole Moments (Debye-Ang)
        XX    -142.2248     XY       2.0732     YY    -156.2054
        XZ      -7.3287     YZ      -1.7903     ZZ    -155.9705

 Total job time:  67.95s(wall), 3228.46s(cpu)
        *  Thank you very much for using Q-Chem.  Have a nice day.  *
