 Q-Chem 5.0, Q-Chem, Inc., Pleasanton, CA (2017)
 Q-Chem 5.0.1 for Intel X86 EM64T Linux

User input:
--------------------------------------------------------------
$molecule
0  1
O -2.1749609508 0.8349656596 1.0148651244
C -3.373304444 1.1923763305 1.0008759088
C -4.5768717824 0.502070292 0.2809363578
C -4.2012008315 -0.2825560724 -1.048115183
C -2.668821648 -0.216201932 -1.4053323369
O -2.006213155 -1.4238238004 -0.9922880422
C -0.635875487 -1.1353088312 -0.5125497974
C 0.4460256478 -1.8274515262 -1.440791628
O 1.5751517062 -0.9045737906 -1.6907247982
C 2.4792656098 -0.8998178445 -0.5599970631
C 2.8447298404 0.5909838386 -0.1813082493
C 4.3168043041 0.7712169077 0.3653404701
C 4.9944316702 -0.5054051313 0.9762335285
O 6.1281679684 -0.9593742917 0.7103355499
O -3.8757381819 2.3245090255 1.7175032901
O 4.192878654 -0.9387970942 2.0831429814
O 2.8784534302 -1.9443186329 -0.0043375852
C 4.7880023409 -2.1466101075 2.6956546489
C 2.9584687148 1.4262978039 -1.5262752057
C 3.230891148 2.9509690686 -1.2092878554
C 4.7724518388 2.9354945668 -0.8851035664
C 5.0521263958 1.383981966 -0.9001066145
O 4.2507739734 0.9255198471 -2.0597364172
H 2.0782170024 0.9717391406 0.5190357362
H 4.3019530668 1.5161369838 1.1834936532
H 2.1368822693 1.2224895571 -2.2391045901
H 3.0039385721 3.5753990762 -2.0876651732
H 2.624056221 3.305041124 -0.3603495597
H 5.3532725241 3.4379786166 -1.6752378032
H 5.012917003 3.4006967769 0.0840650982
H 6.1104753993 1.0747714582 -1.0055698766
O -2.0847071276 0.7582545264 -1.9279404116
C -2.7752715376 2.9827034903 2.4601195282
C -5.1826309957 -0.682518818 1.1629956155
C -6.6248781908 -1.0131327862 0.6109057921
C -6.2697864383 -1.7721781049 -0.7210091153
C -4.6901153374 -1.7460938165 -0.6783517383
O -4.3779042468 -1.856556864 0.7660031329
H -5.343250427 1.2723347591 0.0856842499
H -4.7696495651 0.132340713 -1.9002065324
H -1.9824496033 3.3463141509 1.774899438
H -5.1216422185 -0.5175535045 2.2564424696
H -7.1644220127 -1.6648645205 1.3165701982
H -7.2237209786 -0.1042648079 0.4398343631
H -6.638565675 -2.8100799778 -0.7062304595
H -6.6674607106 -1.2678986466 -1.6162107074
H -4.187109196 -2.5532577178 -1.2438939198
H -2.3147080556 2.2961423738 3.1995200858
H -3.2329650242 3.8409691679 2.9854882037
H 4.1873094566 -2.3608132422 3.598766689
H 5.8475890707 -1.9830423326 2.9801659623
H 4.7350371507 -3.0119255606 2.003699412
H 0.7972485874 -2.7851719764 -1.0004212419
H -0.0078154923 -2.0333405478 -2.4322310813
H -0.5640592494 -1.5181945243 0.5270183745
H -0.4518184708 -0.0406485149 -0.5152682902
$end

$rem
JOBTYPE                   OPT
METHOD                    B3LYP
DFT_D                     d3_op
BASIS                     STO-3G
GEOM_OPT_MAX_CYCLES       100
GEOM_OPT_TOL_GRADIENT     300
GEOM_OPT_TOL_DISPLACEMENT 1200
GEOM_OPT_TOL_ENERGY       100
SYMMETRY                  False
THRESH                    12
SCF_CONVERGENCE           8
MAX_SUB_FILE_NUM          128
MEM_STATIC                400
MEM_TOTAL                 4000
$end
--------------------------------------------------------------

   15   -1510.2606116692      9.90E-09 Convergence criterion met
 Total energy in the final basis set = -1510.26061167
   14   -1510.2664307386      3.05E-09 Convergence criterion met
 Total energy in the final basis set = -1510.26643074
   14   -1510.2715968507      3.16E-09 Convergence criterion met
 Total energy in the final basis set = -1510.27159685
   14   -1510.2762533044      3.18E-09 Convergence criterion met
 Total energy in the final basis set = -1510.27625330
   14   -1510.2797437739      3.00E-09 Convergence criterion met
 Total energy in the final basis set = -1510.27974377
   14   -1510.2817521514      2.28E-09 Convergence criterion met
 Total energy in the final basis set = -1510.28175215
   14   -1510.2832808646      1.63E-09 Convergence criterion met
 Total energy in the final basis set = -1510.28328086
   13   -1510.2839919968      8.54E-09 Convergence criterion met
   12   -1510.2879176461      9.53E-09 Convergence criterion met
 Total energy in the final basis set = -1510.28791765
   12   -1510.2880027637      6.48E-09 Convergence criterion met
 Total energy in the final basis set = -1510.28800276
   12   -1510.2879975394      8.63E-09 Convergence criterion met
 Total energy in the final basis set = -1510.28799754
   11   -1510.2880058872      7.94E-09 Convergence criterion met
 Total energy in the final basis set = -1510.28800589
   11   -1510.2880076373      3.67E-09 Convergence criterion met
 Total energy in the final basis set = -1510.28800764
    9   -1510.2880091053      9.87E-09 Convergence criterion met
 Total energy in the final basis set = -1510.28800911

             Standard Nuclear Orientation (Angstroms)
    I     Atom           X                Y                Z
 ----------------------------------------------------------------
    1      O      -2.8331392019     1.4830965204     1.8950690594
    2      C      -3.9083580900     0.8700866251     2.0816508817
    3      C      -4.9184824050     0.3691384247     0.9931247222
    4      C      -4.3498410218     0.4656935233    -0.4824944552
    5      C      -2.8846018676     1.0298940325    -0.5776393510
    6      O      -1.9623339485    -0.0141818038    -0.2301472385
    7      C      -0.5771866824     0.5072188113    -0.2310860319
    8      C       0.0254612092     0.5530808496    -1.6870870347
    9      O       1.3823712676     1.1549197125    -1.6897534256
   10      C       2.3459437087     0.2304556072    -1.1737338228
   11      C       3.7472874678     0.9244770423    -1.1894566620
   12      C       4.6340918686     0.5550521818     0.0710089947
   13      C       3.9081322341    -0.3842313455     1.1011604657
   14      O       4.2457699729    -1.5341908590     1.4507252225
   15      O      -4.4190701492     0.5281225768     3.3712444775
   16      O       2.7854995953     0.3302194517     1.6388378752
   17      O       2.0803998561    -0.9355606790    -0.8055701589
   18      C       2.0140459818    -0.5525560205     2.5422451956
   19      C       4.6536617230     0.3410858076    -2.3623803104
   20      C       5.9021290632     1.2928850151    -2.5452939713
   21      C       6.7770523257     0.8920070746    -1.2990121702
   22      C       5.8520638304    -0.1883095863    -0.6157423663
   23      O       5.2271929703    -0.8843880149    -1.7656606627
   24      H       3.5984665436     2.0136796200    -1.2899926122
   25      H       4.9548318673     1.4709177409     0.6000023005
   26      H       4.1026095951     0.1015107685    -3.2926851064
   27      H       6.4198287197     1.0712324867    -3.4921444409
   28      H       5.6151225085     2.3565419786    -2.5400873450
   29      H       7.7341204004     0.4416909079    -1.6065824728
   30      H       6.9843657457     1.7443798582    -0.6324099331
   31      H       6.3604349528    -0.9175779218     0.0442457759
   32      O      -2.5492997073     2.1651938252    -0.9800835526
   33      C      -3.4826049401     0.9842775502     4.4248752426
   34      C      -5.2115153171    -1.1893192692     1.1094775175
   35      C      -6.5137313086    -1.5090425422     0.2761076571
   36      C      -5.9635470280    -1.4085679351    -1.1945806057
   37      C      -4.4449523044    -1.0564820765    -0.9306802454
   38      O      -4.1274705842    -1.8015769648     0.3097469232
   39      H      -5.8516332545     0.9523997742     1.1017230461
   40      H      -4.9899786028     1.1154165468    -1.1050152173
   41      H      -3.3103614205     2.0785783696     4.3719141625
   42      H      -5.2015644354    -1.5721543935     2.1483893909
   43      H      -6.8756956481    -2.5241867721     0.5043863819
   44      H      -7.3242755221    -0.7910442258     0.4792108644
   45      H      -6.0477685773    -2.3704408165    -1.7249922970
   46      H      -6.4729888371    -0.6325795171    -1.7881022115
   47      H      -3.7471121271    -1.3415953381    -1.7412530772
   48      H      -2.5035273006     0.4687040369     4.3479052794
   49      H      -3.9606336311     0.7288783860     5.3883746651
   50      H       1.1934783077     0.0665029342     2.9494939798
   51      H       2.6389143200    -0.9375344728     3.3736910767
   52      H       1.5895776258    -1.4170614999     1.9910405359
   53      H       0.0446023690    -0.4721521353    -2.1144924339
   54      H      -0.5938286989     1.2152623207    -2.3245011614
   55      H       0.0126963955    -0.1976172207     0.3869079726
   56      H      -0.5373765077     1.5231352560     0.2159452663
 ----------------------------------------------------------------

    9   -1510.2880084033      5.22E-09 Convergence criterion met
 Total energy in the final basis set = -1510.28800840
 Final energy is   -1510.28800840332
 **  OPTIMIZATION CONVERGED  **

                    Orbital Energies (a.u.)
 --------------------------------------------------------------

 Alpha MOs
 -- Occupied --
-18.944 -18.933 -18.925 -18.923 -18.889 -18.886 -18.885 -18.872
-18.870 -18.863 -10.108 -10.097 -10.093 -10.093 -10.071 -10.065
-10.061 -10.060 -10.060 -10.059 -10.058 -10.055 -10.042 -10.035
-10.035 -10.033 -10.021 -10.020 -10.019 -10.017  -1.021  -1.012
 -1.002  -1.000  -0.971  -0.967  -0.944  -0.935  -0.929  -0.927
 -0.764  -0.760  -0.725  -0.721  -0.712  -0.705  -0.690  -0.668
 -0.657  -0.615  -0.596  -0.580  -0.546  -0.543  -0.538  -0.535
 -0.513  -0.507  -0.484  -0.473  -0.465  -0.457  -0.449  -0.444
 -0.434  -0.433  -0.428  -0.417  -0.410  -0.408  -0.405  -0.392
 -0.387  -0.380  -0.379  -0.364  -0.359  -0.355  -0.352  -0.346
 -0.343  -0.337  -0.332  -0.330  -0.327  -0.326  -0.323  -0.315
 -0.308  -0.306  -0.302  -0.300  -0.294  -0.283  -0.280  -0.276
 -0.270  -0.262  -0.255  -0.248  -0.239  -0.235  -0.231  -0.187
 -0.183  -0.170  -0.162  -0.159  -0.153  -0.146  -0.145  -0.143
 -0.141

          Ground-State Mulliken Net Atomic Charges

     Atom                 Charge (a.u.)
  ----------------------------------------
      1 O                    -0.208482
      2 C                     0.214749
      3 C                    -0.078140
      4 C                    -0.081539
      5 C                     0.213352
      6 O                    -0.170941
      7 C                    -0.051581
      8 C                    -0.052782
      9 O                    -0.169462
     10 C                     0.211232
     11 C                    -0.078899
     12 C                    -0.079465
     13 C                     0.214536
     14 O                    -0.208970
     15 O                    -0.169012
     16 O                    -0.176329
     17 O                    -0.214565
     18 C                    -0.129862
     19 C                     0.025724
     20 C                    -0.143712
     21 C                    -0.144020
     22 C                     0.024739
     23 O                    -0.186933
     24 H                     0.087404
     25 H                     0.084052
     26 H                     0.082537
     27 H                     0.077847
     28 H                     0.073883
     29 H                     0.078052
     30 H                     0.072985
     31 H                     0.090301
     32 O                    -0.220055
     33 C                    -0.127866
     34 C                     0.024858
     35 C                    -0.143691
     36 C                    -0.144356
     37 C                     0.026803
     38 O                    -0.186355
     39 H                     0.086361
     40 H                     0.083277
     41 H                     0.091403
     42 H                     0.088163
     43 H                     0.078402
     44 H                     0.073401
     45 H                     0.078215
     46 H                     0.073511
     47 H                     0.085184
     48 H                     0.090277
     49 H                     0.092457
     50 H                     0.088089
     51 H                     0.088381
     52 H                     0.092597
     53 H                     0.089887
     54 H                     0.094178
     55 H                     0.093650
     56 H                     0.096527
  ----------------------------------------
  Sum of atomic charges =     0.000000

                    Cartesian Multipole Moments
 -----------------------------------------------------------------
    Charge (ESU x 10^10)
                 0.0000
    Dipole Moment (Debye)
         X      -2.2051      Y       1.9546      Z       0.9449
       Tot       3.0945
    Quadrupole Moments (Debye-Ang)
        XX    -138.4856     XY      13.4394     YY    -170.6251
        XZ      -3.7907     YZ       2.1408     ZZ    -146.3327

 Total job time:  85.53s(wall), 4069.40s(cpu)
        *  Thank you very much for using Q-Chem.  Have a nice day.  *
