 Q-Chem 5.0, Q-Chem, Inc., Pleasanton, CA (2017)
 Q-Chem 5.0.1 for Intel X86 EM64T Linux

User input:
--------------------------------------------------------------
$molecule
0  1
O -3.94934 -3.66094 2.70899
C -3.26408 -4.56952 2.26188
C -3.36658 -6.02376 2.66595
C -3.82427 -6.32317 4.10286
C -4.29881 -5.14165 4.91952
O -5.66391 -5.09775 4.92223
C -6.18447 -3.76432 4.9072
C -6.96237 -3.48926 6.18991
O -6.65403 -2.17364 6.67669
C -7.30625 -1.15641 6.06107
C -6.39342 -0.01279 5.68753
C -7.03595 1.37989 5.7641
C -8.34318 1.4635 6.52623
O -8.60202 2.2756 7.40262
O -2.22938 -4.2563 1.43821
O -9.39478 0.78327 6.00049
O -8.31895 -1.3687 5.40545
C -10.6847 0.82528 6.48924
C -5.17297 0.20886 6.61829
C -4.06714 0.92568 5.84521
C -4.67576 2.30377 5.69255
C -5.94341 2.13825 6.53912
O -5.58334 1.20257 7.52539
H -6.01531 -0.24295 4.66533
H -7.23531 1.79604 4.75208
H -4.75918 -0.71863 7.06782
H -3.19284 0.99926 6.53168
H -3.74447 0.44114 4.89859
H -3.98233 3.04568 6.14713
H -4.92466 2.60043 4.6505
H -6.28864 3.12927 6.90686
O -3.5549 -4.27359 5.36155
C -1.94207 -2.97971 1.00217
C -4.46673 -6.74818 1.8606
C -4.15712 -8.24185 1.79241
C -4.42058 -8.64551 3.22648
C -4.96641 -7.32508 3.78628
O -5.6009 -6.72086 2.68791
H -2.39512 -6.50579 2.41044
H -3.04391 -6.82866 4.713
H -1.72192 -2.31931 1.8681
H -4.6022 -6.34035 0.83445
H -4.93739 -8.70188 1.14404
H -3.15311 -8.51182 1.40009
H -5.20351 -9.43612 3.22926
H -3.5294 -8.98849 3.79531
H -5.60598 -7.53265 4.6725
H -2.79956 -2.57066 0.42607
H -1.05118 -3.01253 0.34207
H -11.3297 0.17002 5.86872
H -11.07954 1.86268 6.44257
H -10.70733 0.46018 7.53825
H -8.04265 -3.75245 6.15393
H -6.52099 -4.15611 6.96163
H -6.83338 -3.59635 4.02227
H -5.38738 -2.98992 4.82155
$end

$opt
CONSTRAINT
tors           1           2           3           4     -29.982
tors           3           4           5           6     +99.687
tors           4           5           6           7    -144.316
tors           5           6           7           8    -116.246
tors           6           7           8           9    +137.836
tors           7           8           9          10     +79.978
tors           8           9          10          11    -133.472
tors           9          10          11          12    -146.274
tors          11          12          13          14    +130.271
ENDCONSTRAINT
$end

$rem
JOBTYPE                   OPT
METHOD                    B3LYP
DFT_D                     d3_op
BASIS                     STO-3G
GEOM_OPT_MAX_CYCLES       100
GEOM_OPT_TOL_GRADIENT     300
GEOM_OPT_TOL_DISPLACEMENT 1200
GEOM_OPT_TOL_ENERGY       100
SYMMETRY                  False
THRESH                    12
SCF_CONVERGENCE           8
MAX_SUB_FILE_NUM          128
MEM_STATIC                400
MEM_TOTAL                 4000
$end
--------------------------------------------------------------

   15   -1510.1191882577      7.44E-09 Convergence criterion met
 Total energy in the final basis set = -1510.11918826
   13   -1510.1905191619      9.42E-09 Convergence criterion met
 Total energy in the final basis set = -1510.19051916
   14   -1510.2289628039      2.45E-09 Convergence criterion met
 Total energy in the final basis set = -1510.22896280
   13   -1510.2466000663      9.31E-09 Convergence criterion met
 Total energy in the final basis set = -1510.24660007
   13   -1510.2530594759      6.73E-09 Convergence criterion met
 Total energy in the final basis set = -1510.25305948
    2   -1510.2530594759      7.80E-09 Convergence criterion met
 Total energy in the final basis set = -1510.25305948
   13   -1510.2554926302      4.93E-09 Convergence criterion met
 Total energy in the final basis set = -1510.25549263
   13   -1510.2565446959      1.81E-09 Convergence criterion met
    9   -1510.2604896262      7.12E-09 Convergence criterion met
 Total energy in the final basis set = -1510.26048963
   10   -1510.2604976936      9.88E-09 Convergence criterion met
 Total energy in the final basis set = -1510.26049769
    9   -1510.2605013423      6.25E-09 Convergence criterion met
 Total energy in the final basis set = -1510.26050134
    9   -1510.2605035061      4.00E-09 Convergence criterion met
 Total energy in the final basis set = -1510.26050351
    9   -1510.2605047902      2.93E-09 Convergence criterion met
 Total energy in the final basis set = -1510.26050479
    9   -1510.2605061513      3.59E-09 Convergence criterion met
 Total energy in the final basis set = -1510.26050615

             Standard Nuclear Orientation (Angstroms)
    I     Atom           X                Y                Z
 ----------------------------------------------------------------
    1      O      -2.1749609508     0.8349656596     1.0148651244
    2      C      -3.3733044440     1.1923763305     1.0008759088
    3      C      -4.5768717824     0.5020702920     0.2809363578
    4      C      -4.2012008315    -0.2825560724    -1.0481151830
    5      C      -2.6688216480    -0.2162019320    -1.4053323369
    6      O      -2.0062131550    -1.4238238004    -0.9922880422
    7      C      -0.6358754870    -1.1353088312    -0.5125497974
    8      C       0.4460256478    -1.8274515262    -1.4407916280
    9      O       1.5751517062    -0.9045737906    -1.6907247982
   10      C       2.4792656098    -0.8998178445    -0.5599970631
   11      C       2.8447298404     0.5909838386    -0.1813082493
   12      C       4.3168043041     0.7712169077     0.3653404701
   13      C       4.9944316702    -0.5054051313     0.9762335285
   14      O       6.1281679684    -0.9593742917     0.7103355499
   15      O      -3.8757381819     2.3245090255     1.7175032901
   16      O       4.1928786540    -0.9387970942     2.0831429814
   17      O       2.8784534302    -1.9443186329    -0.0043375852
   18      C       4.7880023409    -2.1466101075     2.6956546489
   19      C       2.9584687148     1.4262978039    -1.5262752057
   20      C       3.2308911480     2.9509690686    -1.2092878554
   21      C       4.7724518388     2.9354945668    -0.8851035664
   22      C       5.0521263958     1.3839819660    -0.9001066145
   23      O       4.2507739734     0.9255198471    -2.0597364172
   24      H       2.0782170024     0.9717391406     0.5190357362
   25      H       4.3019530668     1.5161369838     1.1834936532
   26      H       2.1368822693     1.2224895571    -2.2391045901
   27      H       3.0039385721     3.5753990762    -2.0876651732
   28      H       2.6240562210     3.3050411240    -0.3603495597
   29      H       5.3532725241     3.4379786166    -1.6752378032
   30      H       5.0129170030     3.4006967769     0.0840650982
   31      H       6.1104753993     1.0747714582    -1.0055698766
   32      O      -2.0847071276     0.7582545264    -1.9279404116
   33      C      -2.7752715376     2.9827034903     2.4601195282
   34      C      -5.1826309957    -0.6825188180     1.1629956155
   35      C      -6.6248781908    -1.0131327862     0.6109057921
   36      C      -6.2697864383    -1.7721781049    -0.7210091153
   37      C      -4.6901153374    -1.7460938165    -0.6783517383
   38      O      -4.3779042468    -1.8565568640     0.7660031329
   39      H      -5.3432504270     1.2723347591     0.0856842499
   40      H      -4.7696495651     0.1323407130    -1.9002065324
   41      H      -1.9824496033     3.3463141509     1.7748994380
   42      H      -5.1216422185    -0.5175535045     2.2564424696
   43      H      -7.1644220127    -1.6648645205     1.3165701982
   44      H      -7.2237209786    -0.1042648079     0.4398343631
   45      H      -6.6385656750    -2.8100799778    -0.7062304595
   46      H      -6.6674607106    -1.2678986466    -1.6162107074
   47      H      -4.1871091960    -2.5532577178    -1.2438939198
   48      H      -2.3147080556     2.2961423738     3.1995200858
   49      H      -3.2329650242     3.8409691679     2.9854882037
   50      H       4.1873094566    -2.3608132422     3.5987666890
   51      H       5.8475890707    -1.9830423326     2.9801659623
   52      H       4.7350371507    -3.0119255606     2.0036994120
   53      H       0.7972485874    -2.7851719764    -1.0004212419
   54      H      -0.0078154923    -2.0333405478    -2.4322310813
   55      H      -0.5640592494    -1.5181945243     0.5270183745
   56      H      -0.4518184708    -0.0406485149    -0.5152682902
 ----------------------------------------------------------------

    9   -1510.2605066925      2.91E-09 Convergence criterion met
 Total energy in the final basis set = -1510.26050669
 Final energy is   -1510.26050669247
 **  OPTIMIZATION CONVERGED  **

                    Orbital Energies (a.u.)
 --------------------------------------------------------------

 Alpha MOs
 -- Occupied --
-18.943 -18.922 -18.920 -18.916 -18.892 -18.888 -18.883 -18.879
-18.876 -18.865 -10.107 -10.101 -10.100 -10.091 -10.071 -10.066
-10.066 -10.063 -10.061 -10.054 -10.052 -10.051 -10.044 -10.040
-10.035 -10.030 -10.024 -10.022 -10.016 -10.015  -1.020  -1.009
 -1.004  -0.999  -0.974  -0.963  -0.944  -0.938  -0.931  -0.926
 -0.766  -0.758  -0.727  -0.720  -0.713  -0.702  -0.688  -0.669
 -0.653  -0.612  -0.598  -0.578  -0.549  -0.541  -0.539  -0.532
 -0.516  -0.503  -0.486  -0.475  -0.463  -0.454  -0.449  -0.447
 -0.437  -0.426  -0.425  -0.419  -0.413  -0.403  -0.400  -0.399
 -0.388  -0.385  -0.378  -0.365  -0.361  -0.357  -0.350  -0.349
 -0.343  -0.338  -0.334  -0.333  -0.329  -0.323  -0.321  -0.313
 -0.306  -0.305  -0.305  -0.303  -0.293  -0.286  -0.278  -0.274
 -0.271  -0.262  -0.249  -0.244  -0.239  -0.236  -0.226  -0.186
 -0.180  -0.169  -0.163  -0.154  -0.153  -0.152  -0.147  -0.143
 -0.138

          Ground-State Mulliken Net Atomic Charges

     Atom                 Charge (a.u.)
  ----------------------------------------
      1 O                    -0.216497
      2 C                     0.210325
      3 C                    -0.079594
      4 C                    -0.079414
      5 C                     0.215726
      6 O                    -0.179483
      7 C                    -0.050200
      8 C                    -0.051235
      9 O                    -0.181554
     10 C                     0.217033
     11 C                    -0.076018
     12 C                    -0.081674
     13 C                     0.213000
     14 O                    -0.215251
     15 O                    -0.168430
     16 O                    -0.170322
     17 O                    -0.197011
     18 C                    -0.127345
     19 C                     0.021702
     20 C                    -0.145722
     21 C                    -0.142017
     22 C                     0.022206
     23 O                    -0.192015
     24 H                     0.086320
     25 H                     0.082429
     26 H                     0.095512
     27 H                     0.078043
     28 H                     0.071693
     29 H                     0.077400
     30 H                     0.071848
     31 H                     0.089756
     32 O                    -0.210146
     33 C                    -0.128606
     34 C                     0.025968
     35 C                    -0.143331
     36 C                    -0.144554
     37 C                     0.026617
     38 O                    -0.186718
     39 H                     0.088180
     40 H                     0.083492
     41 H                     0.090424
     42 H                     0.083000
     43 H                     0.078707
     44 H                     0.074464
     45 H                     0.078514
     46 H                     0.073765
     47 H                     0.090328
     48 H                     0.089490
     49 H                     0.092125
     50 H                     0.087194
     51 H                     0.087529
     52 H                     0.091773
     53 H                     0.090328
     54 H                     0.092022
     55 H                     0.089708
     56 H                     0.100515
  ----------------------------------------
  Sum of atomic charges =    -0.000000

                    Cartesian Multipole Moments
 -----------------------------------------------------------------
    Charge (ESU x 10^10)
                 0.0000
    Dipole Moment (Debye)
         X      -4.0194      Y       2.0673      Z       2.2432
       Tot       5.0459
    Quadrupole Moments (Debye-Ang)
        XX    -156.9045     XY       6.4602     YY    -154.9140
        XZ       8.1378     YZ       4.5310     ZZ    -158.3654

 Total job time:  81.72s(wall), 3893.24s(cpu)
        *  Thank you very much for using Q-Chem.  Have a nice day.  *
