 Q-Chem 5.0, Q-Chem, Inc., Pleasanton, CA (2017)
 Q-Chem 5.0.1 for Intel X86 EM64T Linux

User input:
--------------------------------------------------------------
$molecule
0  1
O 2.8882516851 -1.7668222242 0.4807121729
C 4.0967867214 -1.5411245239 0.7097717682
C 5.097302962 -0.7021289628 -0.1557953693
C 4.409480884 0.1299275809 -1.3162654237
C 2.8674096811 -0.1212933433 -1.4920821475
O 2.1365764838 0.7469618765 -0.6088908289
C 0.8213326479 0.1582057338 -0.2665545005
C -0.336568262 1.1105342668 -0.7535462831
O -1.5906832174 0.337358192 -0.9176823401
C -2.4127552681 0.4499322205 0.2550200151
C -3.577331862 -0.58974301 0.1018265936
C -4.8543364605 -0.4177306467 1.0127183105
C -5.322095533 1.0502010818 1.3576569001
O -6.3897334659 1.334168198 1.9462038174
O 4.8023234895 -2.0598047081 1.8394639869
O -4.4967878904 2.0235734433 0.7201966698
O -2.1138017678 1.1386410105 1.2534682222
C -5.0446984071 3.3801645939 0.9456688452
C -4.2304572606 -0.7734673962 -1.3420307227
C -4.5608664601 -2.3075440008 -1.4872764867
C -5.6988237397 -2.4517804625 -0.4074124862
C -5.9559681108 -0.9406279059 -0.0146974747
O -5.5806871483 -0.1741821786 -1.2301394749
H -3.1061894967 -1.5528005438 0.3800074827
H -4.8000432222 -1.0172825781 1.9387238927
H -3.6572467563 -0.3164125561 -2.1713619282
H -4.9398720002 -2.5227729369 -2.4994343863
H -3.689778552 -2.9517646419 -1.2872551434
H -6.6099513232 -2.9048846075 -0.8285911262
H -5.3789026984 -3.0479512733 0.4624178437
H -6.9936061287 -0.7026865088 0.2907830895
O 2.3368238877 -0.9302580345 -2.2840193858
C 3.8879222879 -2.8660801136 2.6815329236
C 5.7612260514 0.4638429109 0.6965267492
C 6.9949307373 1.036890687 -0.1077735784
C 6.2686794538 1.8931373862 -1.2107763635
C 4.7541815073 1.6145603902 -0.860236579
O 4.7529316978 1.5434219579 0.6189797976
H 5.8637873901 -1.3906296844 -0.5571162646
H 4.8903935806 -0.1084349232 -2.2816248736
H 3.4479291735 -3.7108201181 2.1132130339
H 5.9643212006 0.1866812156 1.7491403986
H 7.6232960846 1.6632757627 0.545207447
H 7.6179128805 0.2343562951 -0.5340719255
H 6.4976336626 2.9655309265 -1.1044123137
H 6.5234153224 1.576022692 -2.2346499782
H 4.0360583233 2.3802355076 -1.2109978498
H 3.0624642939 -2.2484513031 3.0905949451
H 4.5042613432 -3.2574295401 3.511570223
H -4.3699229347 4.071015808 0.4077133508
H -5.0599187167 3.6406929551 2.0235473038
H -6.0744726679 3.4748277004 0.5443195415
H -0.4895601079 1.9422311159 -0.0348201389
H -0.0807164191 1.5157851168 -1.7540776378
H 0.7794361545 0.0277634538 0.834964394
H 0.7075105597 -0.8275486017 -0.7660255614
$end

$rem
JOBTYPE                   OPT
METHOD                    B3LYP
DFT_D                     d3_op
BASIS                     STO-3G
GEOM_OPT_MAX_CYCLES       100
GEOM_OPT_TOL_GRADIENT     300
GEOM_OPT_TOL_DISPLACEMENT 1200
GEOM_OPT_TOL_ENERGY       100
SYMMETRY                  False
THRESH                    12
SCF_CONVERGENCE           8
MAX_SUB_FILE_NUM          128
MEM_STATIC                400
MEM_TOTAL                 4000
$end
--------------------------------------------------------------

   16   -1510.2683441101      7.41E-09 Convergence criterion met
 Total energy in the final basis set = -1510.26834411
   14   -1510.2721652225      2.54E-09 Convergence criterion met
 Total energy in the final basis set = -1510.27216522
   13   -1510.2746292372      7.91E-09 Convergence criterion met
 Total energy in the final basis set = -1510.27462924
   13   -1510.2766245202      5.29E-09 Convergence criterion met
 Total energy in the final basis set = -1510.27662452
   13   -1510.2784677253      7.85E-09 Convergence criterion met
 Total energy in the final basis set = -1510.27846773
   13   -1510.2801219993      4.46E-09 Convergence criterion met
 Total energy in the final basis set = -1510.28012200
   13   -1510.2814361888      5.11E-09 Convergence criterion met
 Total energy in the final basis set = -1510.28143619
   13   -1510.2825210134      5.61E-09 Convergence criterion met
   13   -1510.2853708032      3.33E-09 Convergence criterion met
 Total energy in the final basis set = -1510.28537080
   12   -1510.2854516660      6.18E-09 Convergence criterion met
 Total energy in the final basis set = -1510.28545167
   13   -1510.2853001769      9.08E-09 Convergence criterion met
 Total energy in the final basis set = -1510.28530018
   13   -1510.2855627210      3.20E-09 Convergence criterion met
 Total energy in the final basis set = -1510.28556272
   12   -1510.2855680769      2.76E-09 Convergence criterion met
 Total energy in the final basis set = -1510.28556808
   12   -1510.2855971983      2.93E-09 Convergence criterion met
 Total energy in the final basis set = -1510.28559720

             Standard Nuclear Orientation (Angstroms)
    I     Atom           X                Y                Z
 ----------------------------------------------------------------
    1      O       3.4529615483    -2.0431703461     0.8169029682
    2      C       4.4950800340    -1.3863278974     1.0389172931
    3      C       5.1484629432    -0.3058626625     0.1122954843
    4      C       4.2311365799     0.1028752703    -1.1118899737
    5      C       2.8416599586    -0.6305189629    -1.1621215598
    6      O       1.9478465749    -0.0000962180    -0.2309399524
    7      C       0.6263716562    -0.6679696226    -0.2631763798
    8      C      -0.4693699307     0.3927100442    -0.6478011346
    9      O      -1.7712252467    -0.2450394814    -0.9632760580
   10      C      -2.4367118720    -0.6476065802     0.2372295253
   11      C      -3.8360058738    -1.2801711672    -0.1148707485
   12      C      -5.0477991867    -0.4708810147     0.5214822870
   13      C      -4.6010087947     0.8063959152     1.3072817675
   14      O      -4.9415393513     1.1518925933     2.4587090509
   15      O       5.2999504781    -1.5352564182     2.2092002700
   16      O      -3.7195243533     1.5622033276     0.4653091466
   17      O      -1.9475957233    -0.5368595975     1.3835594714
   18      C      -3.1843106656     2.7287978004     1.2017309816
   19      C      -4.2079140735    -1.2185493123    -1.6544658954
   20      C      -5.4094702522    -2.2124795978    -1.9121814197
   21      C      -6.6101814862    -1.4073905250    -1.2901497431
   22      C      -5.8735999248    -0.1028231731    -0.7898746652
   23      O      -4.8252007760     0.1198032154    -1.8084574089
   24      H      -3.8340517836    -2.3213603085     0.2574336906
   25      H      -5.6405239585    -1.0994267194     1.2089882683
   26      H      -3.3425099287    -1.3258382840    -2.3352258088
   27      H      -5.5497165165    -2.3759806709    -2.9925546699
   28      H      -5.2531752064    -3.1877030652    -1.4239883111
   29      H      -7.3645341738    -1.1539258692    -2.0520266490
   30      H      -7.1064228302    -1.9458689606    -0.4667967413
   31      H      -6.5169110087     0.7929243452    -0.6903421869
   32      O       2.5109290682    -1.5395302198    -1.9557511605
   33      C       4.7064007629    -2.5556596628     3.1052481546
   34      C       5.3280775821     1.0946885732     0.8430309424
   35      C       6.3412275374     1.9628327579    -0.0013233125
   36      C       5.4406538080     2.3727290814    -1.2250635777
   37      C       4.0781773998     1.6637588513    -0.8534076918
   38      O       4.0273353010     1.7647425487     0.6238013761
   39      H       6.1243727072    -0.6965882663    -0.2305816140
   40      H       4.7411154179    -0.1065016215    -2.0687086868
   41      H       4.6168467908    -3.5387942495     2.5997971909
   42      H       5.5534653888     1.0123757153     1.9239164045
   43      H       6.6643638575     2.8439012128     0.5754476421
   44      H       7.2324449793     1.3885823026    -0.3002426350
   45      H       5.3026126323     3.4644463072    -1.2768521812
   46      H       5.8444121273     2.0222661951    -2.1885657018
   47      H       3.1731263445     2.1158633781    -1.3025505249
   48      H       3.7012453333    -2.2489146429     3.4602501584
   49      H       5.3937142350    -2.6413374572     3.9667488468
   50      H      -2.6305260882     3.3322372639     0.4593238441
   51      H      -2.4934213506     2.4076506752     2.0087195883
   52      H      -3.9948882481     3.3372049886     1.6509923974
   53      H      -0.5837530397     1.1314502293     0.1733612407
   54      H      -0.1690866305     0.9196553724    -1.5759216083
   55      H       0.4122155895    -1.0829581494     0.7431874118
   56      H       0.6575536020    -1.4863675331    -1.0156723592
 ----------------------------------------------------------------

   10   -1510.2855968040      7.02E-09 Convergence criterion met
 Total energy in the final basis set = -1510.28559680
 Final energy is   -1510.28559680403
 **  OPTIMIZATION CONVERGED  **

                    Orbital Energies (a.u.)
 --------------------------------------------------------------

 Alpha MOs
 -- Occupied --
-18.942 -18.932 -18.930 -18.920 -18.889 -18.885 -18.885 -18.873
-18.864 -18.863 -10.106 -10.096 -10.096 -10.092 -10.069 -10.065
-10.061 -10.060 -10.060 -10.058 -10.054 -10.054 -10.041 -10.035
-10.035 -10.034 -10.021 -10.020 -10.018 -10.017  -1.019  -1.012
 -1.003  -0.999  -0.971  -0.967  -0.943  -0.934  -0.931  -0.925
 -0.764  -0.760  -0.725  -0.721  -0.712  -0.705  -0.687  -0.666
 -0.657  -0.611  -0.595  -0.577  -0.546  -0.543  -0.538  -0.534
 -0.513  -0.510  -0.485  -0.475  -0.468  -0.461  -0.444  -0.437
 -0.434  -0.430  -0.423  -0.415  -0.411  -0.409  -0.406  -0.396
 -0.387  -0.379  -0.376  -0.365  -0.360  -0.354  -0.353  -0.344
 -0.341  -0.337  -0.332  -0.331  -0.327  -0.326  -0.317  -0.315
 -0.306  -0.305  -0.301  -0.299  -0.292  -0.287  -0.283  -0.277
 -0.272  -0.260  -0.251  -0.246  -0.236  -0.234  -0.230  -0.185
 -0.179  -0.173  -0.160  -0.156  -0.152  -0.147  -0.145  -0.144
 -0.139

          Ground-State Mulliken Net Atomic Charges

     Atom                 Charge (a.u.)
  ----------------------------------------
      1 O                    -0.206260
      2 C                     0.214648
      3 C                    -0.078104
      4 C                    -0.080931
      5 C                     0.215376
      6 O                    -0.173248
      7 C                    -0.058472
      8 C                    -0.047658
      9 O                    -0.167766
     10 C                     0.213799
     11 C                    -0.077880
     12 C                    -0.079475
     13 C                     0.210485
     14 O                    -0.210129
     15 O                    -0.169295
     16 O                    -0.167359
     17 O                    -0.224547
     18 C                    -0.129207
     19 C                     0.024533
     20 C                    -0.144413
     21 C                    -0.143784
     22 C                     0.026002
     23 O                    -0.185953
     24 H                     0.083509
     25 H                     0.084988
     26 H                     0.092470
     27 H                     0.077537
     28 H                     0.072854
     29 H                     0.077535
     30 H                     0.073631
     31 H                     0.082151
     32 O                    -0.219490
     33 C                    -0.128051
     34 C                     0.025022
     35 C                    -0.143752
     36 C                    -0.144430
     37 C                     0.027030
     38 O                    -0.186610
     39 H                     0.086382
     40 H                     0.083873
     41 H                     0.091173
     42 H                     0.088177
     43 H                     0.078205
     44 H                     0.073585
     45 H                     0.077877
     46 H                     0.073720
     47 H                     0.084382
     48 H                     0.092190
     49 H                     0.092065
     50 H                     0.090540
     51 H                     0.090448
     52 H                     0.091184
     53 H                     0.090878
     54 H                     0.087662
     55 H                     0.092495
     56 H                     0.100405
  ----------------------------------------
  Sum of atomic charges =     0.000000

                    Cartesian Multipole Moments
 -----------------------------------------------------------------
    Charge (ESU x 10^10)
                 0.0000
    Dipole Moment (Debye)
         X       1.9511      Y      -0.2342      Z      -0.3418
       Tot       1.9946
    Quadrupole Moments (Debye-Ang)
        XX    -136.3100     XY       7.0090     YY    -153.3592
        XZ       6.3439     YZ      -6.1229     ZZ    -164.8546

 Total job time:  57.65s(wall), 2741.65s(cpu)
        *  Thank you very much for using Q-Chem.  Have a nice day.  *
