 Q-Chem 5.0, Q-Chem, Inc., Pleasanton, CA (2017)
 Q-Chem 5.0.1 for Intel X86 EM64T Linux

User input:
--------------------------------------------------------------
$molecule
0  1
O -3.94934 -3.66094 2.70899
C -3.26408 -4.56952 2.26188
C -3.36658 -6.02376 2.66595
C -4.5725 -6.42992 3.52889
C -5.63467 -5.37442 3.74293
O -6.53271 -5.40459 2.71433
C -7.18015 -4.14682 2.49498
C -8.68614 -4.28995 2.68901
O -9.26473 -3.01012 2.98923
C -9.79177 -2.34575 1.93094
C -10.16597 -0.9198 2.2585
C -11.12805 -0.25766 1.26139
C -11.84307 -1.19625 0.31033
O -12.74115 -0.87969 -0.45635
O -2.27082 -4.26576 1.38544
O -11.73856 -2.54845 0.4304
O -9.34884 -2.58337 0.80891
C -12.41204 -3.49236 -0.32216
C -10.98883 -0.76447 3.56018
C -10.8206 0.65386 4.10321
C -11.60212 1.44548 3.07453
C -12.17963 0.30254 2.23171
O -12.33181 -0.75806 3.14287
H -9.21252 -0.35501 2.37089
H -10.62352 0.51289 0.63861
H -10.72993 -1.50128 4.35063
H -11.36948 0.69324 5.07173
H -9.77374 0.98934 4.26542
H -12.4086 2.00361 3.59983
H -10.99876 2.13998 2.45044
H -13.10533 0.63267 1.7105
O -5.84871 -4.83164 4.8195
C -2.00823 -2.99503 0.91823
C -3.57531 -6.96785 1.45906
C -3.06505 -8.36599 1.80507
C -4.12298 -8.81682 2.79132
C -5.0941 -7.63283 2.7142
O -4.96499 -7.17306 1.39099
H -2.39479 -6.27518 3.14782
H -4.23878 -6.7395 4.54465
H -1.74972 -2.32179 1.76336
H -3.09066 -6.60843 0.52524
H -3.15755 -8.98188 0.8816
H -2.01804 -8.41806 2.17367
H -4.59752 -9.74329 2.39829
H -3.76398 -8.9837 3.82995
H -6.11355 -7.94398 3.03228
H -2.893 -2.59645 0.3771
H -1.14913 -3.03536 0.21767
H -12.10632 -4.50555 0.00997
H -12.15662 -3.37611 -1.39704
H -13.50872 -3.38634 -0.1803
H -9.18185 -4.84698 1.86132
H -8.84023 -4.89746 3.60636
H -6.96209 -3.76977 1.4739
H -6.82283 -3.358 3.19975
$end

$opt
CONSTRAINT
tors           1           2           3           4     +10.625
tors           3           4           5           6     +86.418
tors           4           5           6           7    -153.723
tors           5           6           7           8    -119.116
tors           6           7           8           9    +157.547
tors           7           8           9          10     +96.221
tors           8           9          10          11    -170.058
tors           9          10          11          12    -162.652
tors          11          12          13          14    +172.098
ENDCONSTRAINT
$end

$rem
JOBTYPE                   OPT
METHOD                    B3LYP
DFT_D                     d3_op
BASIS                     STO-3G
GEOM_OPT_MAX_CYCLES       100
GEOM_OPT_TOL_GRADIENT     300
GEOM_OPT_TOL_DISPLACEMENT 1200
GEOM_OPT_TOL_ENERGY       100
SYMMETRY                  False
THRESH                    12
SCF_CONVERGENCE           8
MAX_SUB_FILE_NUM          128
MEM_STATIC                400
MEM_TOTAL                 4000
$end
--------------------------------------------------------------

   15   -1510.1141455933      6.41E-09 Convergence criterion met
 Total energy in the final basis set = -1510.11414559
   13   -1510.1888150441      9.79E-09 Convergence criterion met
 Total energy in the final basis set = -1510.18881504
   14   -1510.2306503366      3.34E-09 Convergence criterion met
 Total energy in the final basis set = -1510.23065034
   14   -1510.2505457591      2.37E-09 Convergence criterion met
 Total energy in the final basis set = -1510.25054576
   13   -1510.2594212114      8.17E-09 Convergence criterion met
 Total energy in the final basis set = -1510.25942121
   13   -1510.2638403937      5.64E-09 Convergence criterion met
 Total energy in the final basis set = -1510.26384039
   13   -1510.2660846553      2.20E-09 Convergence criterion met
 Total energy in the final basis set = -1510.26608466
   13   -1510.2671046467      1.59E-09 Convergence criterion met
   10   -1510.2683952172      4.52E-09 Convergence criterion met
 Total energy in the final basis set = -1510.26839522
    9   -1510.2684042797      8.99E-09 Convergence criterion met
 Total energy in the final basis set = -1510.26840428
    9   -1510.2684092716      9.25E-09 Convergence criterion met
 Total energy in the final basis set = -1510.26840927
    9   -1510.2684117669      8.03E-09 Convergence criterion met
 Total energy in the final basis set = -1510.26841177
    9   -1510.2684135730      4.57E-09 Convergence criterion met
 Total energy in the final basis set = -1510.26841357
    9   -1510.2684146697      2.35E-09 Convergence criterion met
 Total energy in the final basis set = -1510.26841467

             Standard Nuclear Orientation (Angstroms)
    I     Atom           X                Y                Z
 ----------------------------------------------------------------
    1      O       2.8882516851    -1.7668222242     0.4807121729
    2      C       4.0967867214    -1.5411245239     0.7097717682
    3      C       5.0973029620    -0.7021289628    -0.1557953693
    4      C       4.4094808840     0.1299275809    -1.3162654237
    5      C       2.8674096811    -0.1212933433    -1.4920821475
    6      O       2.1365764838     0.7469618765    -0.6088908289
    7      C       0.8213326479     0.1582057338    -0.2665545005
    8      C      -0.3365682620     1.1105342668    -0.7535462831
    9      O      -1.5906832174     0.3373581920    -0.9176823401
   10      C      -2.4127552681     0.4499322205     0.2550200151
   11      C      -3.5773318620    -0.5897430100     0.1018265936
   12      C      -4.8543364605    -0.4177306467     1.0127183105
   13      C      -5.3220955330     1.0502010818     1.3576569001
   14      O      -6.3897334659     1.3341681980     1.9462038174
   15      O       4.8023234895    -2.0598047081     1.8394639869
   16      O      -4.4967878904     2.0235734433     0.7201966698
   17      O      -2.1138017678     1.1386410105     1.2534682222
   18      C      -5.0446984071     3.3801645939     0.9456688452
   19      C      -4.2304572606    -0.7734673962    -1.3420307227
   20      C      -4.5608664601    -2.3075440008    -1.4872764867
   21      C      -5.6988237397    -2.4517804625    -0.4074124862
   22      C      -5.9559681108    -0.9406279059    -0.0146974747
   23      O      -5.5806871483    -0.1741821786    -1.2301394749
   24      H      -3.1061894967    -1.5528005438     0.3800074827
   25      H      -4.8000432222    -1.0172825781     1.9387238927
   26      H      -3.6572467563    -0.3164125561    -2.1713619282
   27      H      -4.9398720002    -2.5227729369    -2.4994343863
   28      H      -3.6897785520    -2.9517646419    -1.2872551434
   29      H      -6.6099513232    -2.9048846075    -0.8285911262
   30      H      -5.3789026984    -3.0479512733     0.4624178437
   31      H      -6.9936061287    -0.7026865088     0.2907830895
   32      O       2.3368238877    -0.9302580345    -2.2840193858
   33      C       3.8879222879    -2.8660801136     2.6815329236
   34      C       5.7612260514     0.4638429109     0.6965267492
   35      C       6.9949307373     1.0368906870    -0.1077735784
   36      C       6.2686794538     1.8931373862    -1.2107763635
   37      C       4.7541815073     1.6145603902    -0.8602365790
   38      O       4.7529316978     1.5434219579     0.6189797976
   39      H       5.8637873901    -1.3906296844    -0.5571162646
   40      H       4.8903935806    -0.1084349232    -2.2816248736
   41      H       3.4479291735    -3.7108201181     2.1132130339
   42      H       5.9643212006     0.1866812156     1.7491403986
   43      H       7.6232960846     1.6632757627     0.5452074470
   44      H       7.6179128805     0.2343562951    -0.5340719255
   45      H       6.4976336626     2.9655309265    -1.1044123137
   46      H       6.5234153224     1.5760226920    -2.2346499782
   47      H       4.0360583233     2.3802355076    -1.2109978498
   48      H       3.0624642939    -2.2484513031     3.0905949451
   49      H       4.5042613432    -3.2574295401     3.5115702230
   50      H      -4.3699229347     4.0710158080     0.4077133508
   51      H      -5.0599187167     3.6406929551     2.0235473038
   52      H      -6.0744726679     3.4748277004     0.5443195415
   53      H      -0.4895601079     1.9422311159    -0.0348201389
   54      H      -0.0807164191     1.5157851168    -1.7540776378
   55      H       0.7794361545     0.0277634538     0.8349643940
   56      H       0.7075105597    -0.8275486017    -0.7660255614
 ----------------------------------------------------------------

    9   -1510.2684154517      1.97E-09 Convergence criterion met
 Total energy in the final basis set = -1510.26841545
 Final energy is   -1510.26841545173
 **  OPTIMIZATION CONVERGED  **

                    Orbital Energies (a.u.)
 --------------------------------------------------------------

 Alpha MOs
 -- Occupied --
-18.944 -18.931 -18.926 -18.917 -18.889 -18.886 -18.883 -18.871
-18.869 -18.862 -10.108 -10.097 -10.095 -10.092 -10.071 -10.062
-10.062 -10.059 -10.059 -10.058 -10.056 -10.055 -10.043 -10.036
-10.035 -10.034 -10.022 -10.020 -10.018 -10.016  -1.021  -1.009
 -1.003  -0.999  -0.971  -0.967  -0.945  -0.933  -0.928  -0.925
 -0.765  -0.760  -0.725  -0.720  -0.713  -0.704  -0.686  -0.668
 -0.656  -0.612  -0.597  -0.577  -0.546  -0.540  -0.538  -0.534
 -0.514  -0.508  -0.484  -0.476  -0.468  -0.460  -0.443  -0.438
 -0.435  -0.434  -0.421  -0.417  -0.410  -0.409  -0.404  -0.396
 -0.388  -0.382  -0.380  -0.366  -0.360  -0.356  -0.352  -0.344
 -0.339  -0.335  -0.334  -0.329  -0.327  -0.323  -0.315  -0.311
 -0.308  -0.307  -0.301  -0.300  -0.294  -0.293  -0.281  -0.276
 -0.269  -0.261  -0.247  -0.242  -0.238  -0.234  -0.231  -0.186
 -0.180  -0.170  -0.162  -0.156  -0.150  -0.149  -0.145  -0.144
 -0.139

          Ground-State Mulliken Net Atomic Charges

     Atom                 Charge (a.u.)
  ----------------------------------------
      1 O                    -0.211859
      2 C                     0.214158
      3 C                    -0.077672
      4 C                    -0.081139
      5 C                     0.216209
      6 O                    -0.179254
      7 C                    -0.050095
      8 C                    -0.053572
      9 O                    -0.176000
     10 C                     0.215734
     11 C                    -0.079363
     12 C                    -0.076040
     13 C                     0.212457
     14 O                    -0.220381
     15 O                    -0.169572
     16 O                    -0.163484
     17 O                    -0.211970
     18 C                    -0.125637
     19 C                     0.024856
     20 C                    -0.141170
     21 C                    -0.146126
     22 C                     0.023452
     23 O                    -0.192738
     24 H                     0.082896
     25 H                     0.085043
     26 H                     0.091290
     27 H                     0.077701
     28 H                     0.073967
     29 H                     0.078250
     30 H                     0.073127
     31 H                     0.086328
     32 O                    -0.212980
     33 C                    -0.128014
     34 C                     0.024760
     35 C                    -0.144144
     36 C                    -0.143938
     37 C                     0.026582
     38 O                    -0.188011
     39 H                     0.087225
     40 H                     0.082646
     41 H                     0.090891
     42 H                     0.088209
     43 H                     0.078359
     44 H                     0.073432
     45 H                     0.078022
     46 H                     0.073532
     47 H                     0.087473
     48 H                     0.090820
     49 H                     0.092403
     50 H                     0.090561
     51 H                     0.089473
     52 H                     0.090177
     53 H                     0.097137
     54 H                     0.087619
     55 H                     0.087084
     56 H                     0.101287
  ----------------------------------------
  Sum of atomic charges =     0.000000

                    Cartesian Multipole Moments
 -----------------------------------------------------------------
    Charge (ESU x 10^10)
                 0.0000
    Dipole Moment (Debye)
         X       3.1897      Y      -1.5674      Z       0.2380
       Tot       3.5619
    Quadrupole Moments (Debye-Ang)
        XX    -152.5653     XY       3.4173     YY    -150.8093
        XZ       1.6765     YZ      -9.2314     ZZ    -162.1388

 Total job time:  62.94s(wall), 2988.34s(cpu)
        *  Thank you very much for using Q-Chem.  Have a nice day.  *
