 Q-Chem 5.0, Q-Chem, Inc., Pleasanton, CA (2017)
 Q-Chem 5.0.1 for Intel X86 EM64T Linux

User input:
--------------------------------------------------------------
$molecule
0  1
O 2.9358939033 -0.5845672385 1.7213841576
C 4.0749171369 -0.9525393534 1.3572028587
C 4.7583843344 -0.6892212797 -0.0318029235
C 3.8256140671 0.1511653049 -0.9914496145
C 2.2929192072 0.0465268947 -0.6502744702
O 1.746014594 1.3661919616 -0.5070063289
C 0.3032108404 1.2880677183 -0.1822350761
C -0.5702906248 1.4607587814 -1.4930691603
O -1.6304897868 0.4344105469 -1.6623412164
C -2.4546350886 0.3554616691 -0.4981063949
C -3.384840446 -0.9108123561 -0.6024246705
C -4.659892078 -0.7408773209 0.3110819672
C -4.4800663442 0.2505498779 1.5181291494
O -5.2322704078 1.1942909461 1.8412089005
O 4.9790390046 -1.6947330247 2.177203385
O -3.4535011164 -0.2934172016 2.3664836604
O -2.4673979464 1.2241817091 0.4041725733
C -3.2296939871 0.6066424855 3.5173323375
C -4.071900747 -0.879054516 -2.0334985251
C -5.0290749968 -2.1243244104 -2.2135907455
C -6.2958100517 -1.6697245499 -1.395132604
C -5.7598286654 -0.3317392721 -0.7551075698
O -4.9956510951 0.2729757865 -1.8734435999
H -2.8091358816 -1.83090438 -0.3949343789
H -4.9181822279 -1.7182762255 0.759020211
H -3.3633548332 -0.6981510768 -2.864306773
H -5.2654805729 -2.2801683934 -3.2779806932
H -4.5768396317 -3.0468782651 -1.8149422084
H -7.1490619645 -1.4621049701 -2.0607674895
H -6.6062800801 -2.4073268019 -0.6378117291
H -6.5252180737 0.3735168821 -0.3761890503
O 1.601221202 -0.995582606 -0.6583084838
C 4.3687010256 -1.9476125775 3.5037166656
C 5.9230217385 0.3648834759 0.2102133437
C 6.7062542046 0.6242043025 -1.1382231103
C 5.7215755461 1.5979478054 -1.8870453585
C 4.4927728599 1.5901195857 -0.8970023731
O 5.1496196533 1.6107461467 0.4315521909
H 5.1083663084 -1.6378300981 -0.4760272984
H 3.9286988977 -0.237733464 -2.0221953352
H 3.4323941579 -2.5356299973 3.4147501922
H 6.5566128281 0.1368014692 1.089542755
H 7.6785763706 1.1011595207 -0.9375993235
H 6.8816535991 -0.3111325285 -1.6940800869
H 6.1431977333 2.6131948672 -1.9622236218
H 5.4550225869 1.2483016631 -2.8972303547
H 3.7808758711 2.4312336368 -0.9963798444
H 4.1414482884 -1.0007263175 4.0346793411
H 5.1164186392 -2.5249912687 4.077826789
H -2.4948267433 0.0983558331 4.1684731908
H -4.1656663425 0.7914472244 4.083589481
H -2.8178669544 1.5824865161 3.1870221747
H -1.0179091375 2.4782115224 -1.516759482
H 0.0794901426 1.3408748334 -2.3839802897
H 0.0875637274 2.0976546093 0.5417147549
H 0.0873794424 0.2984497957 0.2744366356
$end

$rem
JOBTYPE                   OPT
METHOD                    B3LYP
DFT_D                     d3_op
BASIS                     STO-3G
GEOM_OPT_MAX_CYCLES       100
GEOM_OPT_TOL_GRADIENT     300
GEOM_OPT_TOL_DISPLACEMENT 1200
GEOM_OPT_TOL_ENERGY       100
SYMMETRY                  False
THRESH                    12
SCF_CONVERGENCE           8
MAX_SUB_FILE_NUM          128
MEM_STATIC                400
MEM_TOTAL                 4000
$end
--------------------------------------------------------------

   15   -1510.2754017570      9.34E-09 Convergence criterion met
 Total energy in the final basis set = -1510.27540176
   13   -1510.2782607720      4.80E-09 Convergence criterion met
 Total energy in the final basis set = -1510.27826077
   13   -1510.2802934312      3.80E-09 Convergence criterion met
 Total energy in the final basis set = -1510.28029343
   13   -1510.2817610048      3.97E-09 Convergence criterion met
 Total energy in the final basis set = -1510.28176100
   13   -1510.2829319945      4.19E-09 Convergence criterion met
 Total energy in the final basis set = -1510.28293199
   13   -1510.2837262815      2.43E-09 Convergence criterion met
 Total energy in the final basis set = -1510.28372628
   13   -1510.2845490255      3.16E-09 Convergence criterion met
 Total energy in the final basis set = -1510.28454903
   13   -1510.2852219889      4.98E-09 Convergence criterion met
   13   -1510.2880044080      3.63E-09 Convergence criterion met
 Total energy in the final basis set = -1510.28800441
   12   -1510.2880372400      2.89E-09 Convergence criterion met
 Total energy in the final basis set = -1510.28803724
   12   -1510.2880326189      3.72E-09 Convergence criterion met
 Total energy in the final basis set = -1510.28803262
   10   -1510.2880306021      6.30E-09 Convergence criterion met
 Total energy in the final basis set = -1510.28803060
   10   -1510.2880285164      6.79E-09 Convergence criterion met
 Total energy in the final basis set = -1510.28802852
   10   -1510.2880221686      3.89E-09 Convergence criterion met
 Total energy in the final basis set = -1510.28802217

             Standard Nuclear Orientation (Angstroms)
    I     Atom           X                Y                Z
 ----------------------------------------------------------------
    1      O       3.4210701751    -0.9422210820    -2.0707115339
    2      C       4.5426627134    -0.9394473112    -1.5145849488
    3      C       5.1071971790     0.1303037992    -0.5217355002
    4      C       4.0640848266     1.2742186867    -0.1852193868
    5      C       2.7014157534     1.1578966242    -0.9664463504
    6      O       1.8045961932     0.3258345338    -0.2159118331
    7      C       0.5488091116     0.1069076027    -0.9684160427
    8      C      -0.3813585091     1.3811163776    -0.9735808173
    9      O      -1.7413555886     1.0249072370    -1.4493630404
   10      C      -2.5492877614     0.5863997246    -0.3544710932
   11      C      -3.9631318410     0.1941875693    -0.8962472452
   12      C      -4.8524532637    -0.5352823776     0.1913024924
   13      C      -4.1226091123    -0.8043456702     1.5609596912
   14      O      -4.3462579419    -0.2514551662     2.6581146587
   15      O       5.5250639527    -1.9602026273    -1.6962487841
   16      O      -3.2344228004    -1.9179580666     1.3745786541
   17      O      -2.1667982268     0.5642840902     0.8378089534
   18      C      -2.4747066907    -2.1615157751     2.6200967438
   19      C      -4.8424600776     1.4925208107    -1.1746264162
   20      C      -6.1223464337     1.0651091080    -1.9983385233
   21      C      -6.9944556080     0.3844639080    -0.8783073122
   22      C      -6.0331707489     0.5067073431     0.3674795964
   23      O      -5.3765063563     1.8204948195     0.1648390592
   24      H      -3.8386077560    -0.4118092017    -1.8113203819
   25      H      -5.2170762894    -1.5031826832    -0.1972074284
   26      H      -4.2744390700     2.3458829385    -1.5936177803
   27      H      -6.6215610603     1.9524182771    -2.4191690974
   28      H      -5.8730588624     0.3767894399    -2.8218220062
   29      H      -7.9286247940     0.9412273330    -0.7012538546
   30      H      -7.2449227793    -0.6627483310    -1.1114842219
   31      H      -6.5204080323     0.4719479068     1.3610778636
   32      O       2.3927576326     1.7739385328    -2.0101365749
   33      C       5.0084101554    -3.0048552237    -2.6117810362
   34      C       5.3568361758    -0.4900804238     0.9216357413
   35      C       6.2471925960     0.5180400724     1.7501950880
   36      C       5.1970474006     1.6393344129     2.0904110246
   37      C       3.9032564431     1.0723239453     1.3825663458
   38      O       4.0271739339    -0.3934455003     1.5622131957
   39      H       6.0416489398     0.5404154352    -0.9462112989
   40      H       4.4906941171     2.2640553542    -0.4246730185
   41      H       4.7871994790    -2.5923341401    -3.6173187682
   42      H       5.7130284835    -1.5385591765     0.9051033383
   43      H       6.6304001854     0.0320466805     2.6614564490
   44      H       7.1007143361     0.8947367012     1.1643511509
   45      H       5.0345028051     1.7229055018     3.1768081736
   46      H       5.4858409239     2.6280648018     1.6994478280
   47      H       2.9406684169     1.4306190873     1.7947820268
   48      H       4.0867004272    -3.4752799731    -2.2127288469
   49      H       5.8087172241    -3.7635488644    -2.6898084868
   50      H      -1.8408374712    -3.0465662203     2.4266649117
   51      H      -3.1466825515    -2.3657720678     3.4787994691
   52      H      -1.8326974174    -1.2927910668     2.8727418345
   53      H      -0.4302851386     1.8040068827     0.0522992792
   54      H       0.0167232844     2.1343758917    -1.6817383893
   55      H       0.0331368324    -0.7198210854    -0.4384792255
   56      H       0.7660690077    -0.2047343724    -2.0122321703
 ----------------------------------------------------------------

    9   -1510.2880222879      5.86E-09 Convergence criterion met
 Total energy in the final basis set = -1510.28802229
 Final energy is   -1510.28802228788
 **  OPTIMIZATION CONVERGED  **

                    Orbital Energies (a.u.)
 --------------------------------------------------------------

 Alpha MOs
 -- Occupied --
-18.945 -18.937 -18.924 -18.915 -18.889 -18.888 -18.884 -18.882
-18.862 -18.857 -10.108 -10.102 -10.094 -10.086 -10.071 -10.065
-10.064 -10.062 -10.059 -10.059 -10.053 -10.050 -10.042 -10.037
-10.035 -10.030 -10.022 -10.020 -10.018 -10.017  -1.022  -1.016
 -1.001  -0.994  -0.971  -0.967  -0.945  -0.940  -0.927  -0.921
 -0.764  -0.760  -0.725  -0.721  -0.713  -0.704  -0.690  -0.668
 -0.651  -0.615  -0.596  -0.579  -0.546  -0.542  -0.538  -0.534
 -0.513  -0.507  -0.485  -0.473  -0.463  -0.454  -0.450  -0.445
 -0.435  -0.432  -0.428  -0.417  -0.410  -0.404  -0.400  -0.394
 -0.390  -0.381  -0.376  -0.362  -0.361  -0.354  -0.349  -0.344
 -0.338  -0.337  -0.335  -0.329  -0.329  -0.326  -0.321  -0.315
 -0.309  -0.306  -0.301  -0.300  -0.297  -0.283  -0.277  -0.273
 -0.270  -0.262  -0.255  -0.242  -0.240  -0.235  -0.231  -0.189
 -0.185  -0.163  -0.162  -0.160  -0.157  -0.146  -0.142  -0.142
 -0.138

          Ground-State Mulliken Net Atomic Charges

     Atom                 Charge (a.u.)
  ----------------------------------------
      1 O                    -0.207420
      2 C                     0.215037
      3 C                    -0.078313
      4 C                    -0.081768
      5 C                     0.214499
      6 O                    -0.169801
      7 C                    -0.048557
      8 C                    -0.056402
      9 O                    -0.171018
     10 C                     0.213599
     11 C                    -0.077947
     12 C                    -0.081347
     13 C                     0.216007
     14 O                    -0.216097
     15 O                    -0.168747
     16 O                    -0.178171
     17 O                    -0.207442
     18 C                    -0.128832
     19 C                     0.025322
     20 C                    -0.143734
     21 C                    -0.143961
     22 C                     0.024753
     23 O                    -0.189008
     24 H                     0.086840
     25 H                     0.083036
     26 H                     0.084710
     27 H                     0.077938
     28 H                     0.073432
     29 H                     0.077705
     30 H                     0.072920
     31 H                     0.089622
     32 O                    -0.222812
     33 C                    -0.128043
     34 C                     0.025114
     35 C                    -0.143813
     36 C                    -0.144225
     37 C                     0.026442
     38 O                    -0.187445
     39 H                     0.087074
     40 H                     0.083293
     41 H                     0.090987
     42 H                     0.086522
     43 H                     0.078450
     44 H                     0.073652
     45 H                     0.078389
     46 H                     0.073606
     47 H                     0.088101
     48 H                     0.091767
     49 H                     0.092470
     50 H                     0.085601
     51 H                     0.086168
     52 H                     0.092625
     53 H                     0.095209
     54 H                     0.099473
     55 H                     0.089793
     56 H                     0.094754
  ----------------------------------------
  Sum of atomic charges =     0.000000

                    Cartesian Multipole Moments
 -----------------------------------------------------------------
    Charge (ESU x 10^10)
                -0.0000
    Dipole Moment (Debye)
         X       2.4618      Y      -1.6833      Z      -1.8513
       Tot       3.5102
    Quadrupole Moments (Debye-Ang)
        XX    -137.5673     XY       5.1749     YY    -154.8950
        XZ      10.6624     YZ       3.3228     ZZ    -163.5367

 Total job time:  77.60s(wall), 3693.06s(cpu)
        *  Thank you very much for using Q-Chem.  Have a nice day.  *
