 Q-Chem 5.0, Q-Chem, Inc., Pleasanton, CA (2017)
 Q-Chem 5.0.1 for Intel X86 EM64T Linux

User input:
--------------------------------------------------------------
$molecule
0  1
O -3.94934 -3.66094 2.70899
C -3.26408 -4.56952 2.26188
C -3.36658 -6.02376 2.66595
C -4.42968 -6.38823 3.71515
C -5.39011 -5.28909 4.11209
O -6.67705 -5.72478 3.97287
C -7.64823 -4.73495 4.32826
C -8.11941 -4.95202 5.76248
O -8.07141 -3.7124 6.48631
C -8.72362 -2.67367 5.90769
C -8.43115 -1.35053 6.57433
C -9.49574 -0.26576 6.35475
C -10.83082 -0.74799 5.82398
O -11.92342 -0.47257 6.29824
O -2.33003 -4.28021 1.31807
O -10.8438 -1.02245 4.4889
O -9.48063 -2.85698 4.97192
C -11.97503 -1.29771 3.74593
C -8.45085 -1.4126 8.12651
C -7.59098 -0.28248 8.68951
C -8.44519 0.91771 8.34315
C -9.69626 0.21192 7.80538
O -9.74168 -1.00566 8.50305
H -7.40149 -1.05749 6.26936
H -9.14306 0.54311 5.67758
H -8.10799 -2.37991 8.55203
H -7.58772 -0.40815 9.79652
H -6.54113 -0.23782 8.32809
H -8.66213 1.4761 9.28065
H -8.01614 1.60157 7.57886
H -10.58334 0.87294 7.91973
O -5.05968 -4.33911 4.81563
C -2.09706 -3.01667 0.81697
C -3.78474 -6.93016 1.49179
C -3.26755 -8.34528 1.72849
C -4.16162 -8.78029 2.86802
C -5.10194 -7.57017 2.96301
O -5.17374 -7.0881 1.64489
H -2.3475 -6.30757 3.01423
H -3.96614 -6.74049 4.66336
H -1.7844 -2.3322 1.63434
H -3.4429 -6.56085 0.50014
H -3.52893 -8.94007 0.82371
H -2.17652 -8.43254 1.92072
H -4.71538 -9.69099 2.54798
H -3.64381 -8.97013 3.83306
H -6.05801 -7.90733 3.41783
H -3.01422 -2.62406 0.32797
H -1.28468 -3.06828 0.06341
H -11.6805 -1.49215 2.6944
H -12.67089 -0.43205 3.76725
H -12.48363 -2.20013 4.14774
H -9.13389 -5.40796 5.78143
H -7.43241 -5.64725 6.29085
H -8.50751 -4.79506 3.62661
H -7.23763 -3.7111 4.15898
$end

$opt
CONSTRAINT
tors           1           2           3           4      +0.624
tors           3           4           5           6    +126.955
tors           4           5           6           7    -179.868
tors           5           6           7           8     -96.993
tors           6           7           8           9    +131.239
tors           7           8           9          10     +53.224
tors           8           9          10          11    -169.509
tors           9          10          11          12    -157.434
tors          11          12          13          14    +129.911
ENDCONSTRAINT
$end

$rem
JOBTYPE                   OPT
METHOD                    B3LYP
DFT_D                     d3_op
BASIS                     STO-3G
GEOM_OPT_MAX_CYCLES       100
GEOM_OPT_TOL_GRADIENT     300
GEOM_OPT_TOL_DISPLACEMENT 1200
GEOM_OPT_TOL_ENERGY       100
SYMMETRY                  False
THRESH                    12
SCF_CONVERGENCE           8
MAX_SUB_FILE_NUM          128
MEM_STATIC                400
MEM_TOTAL                 4000
$end
--------------------------------------------------------------

   15   -1510.1216778485      6.89E-09 Convergence criterion met
 Total energy in the final basis set = -1510.12167785
   14   -1510.1948066950      7.85E-09 Convergence criterion met
 Total energy in the final basis set = -1510.19480669
   14   -1510.2324733258      7.41E-09 Convergence criterion met
 Total energy in the final basis set = -1510.23247333
   14   -1510.2517814291      6.09E-09 Convergence criterion met
 Total energy in the final basis set = -1510.25178143
   14   -1510.2596515783      2.82E-09 Convergence criterion met
 Total energy in the final basis set = -1510.25965158
   13   -1510.2630563853      9.34E-09 Convergence criterion met
 Total energy in the final basis set = -1510.26305639
   13   -1510.2648863218      2.38E-09 Convergence criterion met
 Total energy in the final basis set = -1510.26488632
   12   -1510.2660943111      9.97E-09 Convergence criterion met
   12   -1510.2754586991      4.23E-09 Convergence criterion met
 Total energy in the final basis set = -1510.27545870
   10   -1510.2755069164      8.57E-09 Convergence criterion met
 Total energy in the final basis set = -1510.27550692
   11   -1510.2755413063      6.53E-09 Convergence criterion met
 Total energy in the final basis set = -1510.27554131
   10   -1510.2755557878      8.24E-09 Convergence criterion met
 Total energy in the final basis set = -1510.27555579
   10   -1510.2755617948      3.80E-09 Convergence criterion met
 Total energy in the final basis set = -1510.27556179
    9   -1510.2755633972      7.47E-09 Convergence criterion met
 Total energy in the final basis set = -1510.27556340

             Standard Nuclear Orientation (Angstroms)
    I     Atom           X                Y                Z
 ----------------------------------------------------------------
    1      O       2.9358939033    -0.5845672385     1.7213841576
    2      C       4.0749171369    -0.9525393534     1.3572028587
    3      C       4.7583843344    -0.6892212797    -0.0318029235
    4      C       3.8256140671     0.1511653049    -0.9914496145
    5      C       2.2929192072     0.0465268947    -0.6502744702
    6      O       1.7460145940     1.3661919616    -0.5070063289
    7      C       0.3032108404     1.2880677183    -0.1822350761
    8      C      -0.5702906248     1.4607587814    -1.4930691603
    9      O      -1.6304897868     0.4344105469    -1.6623412164
   10      C      -2.4546350886     0.3554616691    -0.4981063949
   11      C      -3.3848404460    -0.9108123561    -0.6024246705
   12      C      -4.6598920780    -0.7408773209     0.3110819672
   13      C      -4.4800663442     0.2505498779     1.5181291494
   14      O      -5.2322704078     1.1942909461     1.8412089005
   15      O       4.9790390046    -1.6947330247     2.1772033850
   16      O      -3.4535011164    -0.2934172016     2.3664836604
   17      O      -2.4673979464     1.2241817091     0.4041725733
   18      C      -3.2296939871     0.6066424855     3.5173323375
   19      C      -4.0719007470    -0.8790545160    -2.0334985251
   20      C      -5.0290749968    -2.1243244104    -2.2135907455
   21      C      -6.2958100517    -1.6697245499    -1.3951326040
   22      C      -5.7598286654    -0.3317392721    -0.7551075698
   23      O      -4.9956510951     0.2729757865    -1.8734435999
   24      H      -2.8091358816    -1.8309043800    -0.3949343789
   25      H      -4.9181822279    -1.7182762255     0.7590202110
   26      H      -3.3633548332    -0.6981510768    -2.8643067730
   27      H      -5.2654805729    -2.2801683934    -3.2779806932
   28      H      -4.5768396317    -3.0468782651    -1.8149422084
   29      H      -7.1490619645    -1.4621049701    -2.0607674895
   30      H      -6.6062800801    -2.4073268019    -0.6378117291
   31      H      -6.5252180737     0.3735168821    -0.3761890503
   32      O       1.6012212020    -0.9955826060    -0.6583084838
   33      C       4.3687010256    -1.9476125775     3.5037166656
   34      C       5.9230217385     0.3648834759     0.2102133437
   35      C       6.7062542046     0.6242043025    -1.1382231103
   36      C       5.7215755461     1.5979478054    -1.8870453585
   37      C       4.4927728599     1.5901195857    -0.8970023731
   38      O       5.1496196533     1.6107461467     0.4315521909
   39      H       5.1083663084    -1.6378300981    -0.4760272984
   40      H       3.9286988977    -0.2377334640    -2.0221953352
   41      H       3.4323941579    -2.5356299973     3.4147501922
   42      H       6.5566128281     0.1368014692     1.0895427550
   43      H       7.6785763706     1.1011595207    -0.9375993235
   44      H       6.8816535991    -0.3111325285    -1.6940800869
   45      H       6.1431977333     2.6131948672    -1.9622236218
   46      H       5.4550225869     1.2483016631    -2.8972303547
   47      H       3.7808758711     2.4312336368    -0.9963798444
   48      H       4.1414482884    -1.0007263175     4.0346793411
   49      H       5.1164186392    -2.5249912687     4.0778267890
   50      H      -2.4948267433     0.0983558331     4.1684731908
   51      H      -4.1656663425     0.7914472244     4.0835894810
   52      H      -2.8178669544     1.5824865161     3.1870221747
   53      H      -1.0179091375     2.4782115224    -1.5167594820
   54      H       0.0794901426     1.3408748334    -2.3839802897
   55      H       0.0875637274     2.0976546093     0.5417147549
   56      H       0.0873794424     0.2984497957     0.2744366356
 ----------------------------------------------------------------

    9   -1510.2755640800      5.62E-09 Convergence criterion met
 Total energy in the final basis set = -1510.27556408
 Final energy is   -1510.27556408002
 **  OPTIMIZATION CONVERGED  **

                    Orbital Energies (a.u.)
 --------------------------------------------------------------

 Alpha MOs
 -- Occupied --
-18.941 -18.938 -18.927 -18.913 -18.887 -18.883 -18.882 -18.880
-18.865 -18.857 -10.104 -10.103 -10.097 -10.087 -10.073 -10.068
-10.066 -10.062 -10.058 -10.055 -10.053 -10.050 -10.041 -10.036
-10.036 -10.028 -10.022 -10.020 -10.017 -10.015  -1.018  -1.016
 -1.005  -0.993  -0.971  -0.965  -0.942  -0.940  -0.930  -0.920
 -0.764  -0.759  -0.726  -0.722  -0.713  -0.702  -0.690  -0.666
 -0.649  -0.618  -0.596  -0.580  -0.546  -0.540  -0.538  -0.533
 -0.514  -0.504  -0.480  -0.476  -0.464  -0.453  -0.451  -0.448
 -0.436  -0.433  -0.426  -0.415  -0.410  -0.401  -0.400  -0.396
 -0.390  -0.377  -0.376  -0.366  -0.361  -0.359  -0.349  -0.344
 -0.339  -0.335  -0.330  -0.330  -0.328  -0.323  -0.319  -0.313
 -0.310  -0.305  -0.304  -0.300  -0.296  -0.284  -0.280  -0.273
 -0.270  -0.259  -0.254  -0.242  -0.239  -0.235  -0.229  -0.188
 -0.182  -0.166  -0.161  -0.158  -0.153  -0.150  -0.143  -0.141
 -0.138

          Ground-State Mulliken Net Atomic Charges

     Atom                 Charge (a.u.)
  ----------------------------------------
      1 O                    -0.206746
      2 C                     0.215835
      3 C                    -0.076594
      4 C                    -0.080998
      5 C                     0.215740
      6 O                    -0.175318
      7 C                    -0.052600
      8 C                    -0.049486
      9 O                    -0.168552
     10 C                     0.217870
     11 C                    -0.075205
     12 C                    -0.081950
     13 C                     0.215875
     14 O                    -0.219787
     15 O                    -0.169833
     16 O                    -0.176575
     17 O                    -0.207909
     18 C                    -0.128074
     19 C                     0.022649
     20 C                    -0.145488
     21 C                    -0.141828
     22 C                     0.022239
     23 O                    -0.193494
     24 H                     0.089790
     25 H                     0.082829
     26 H                     0.089630
     27 H                     0.077531
     28 H                     0.073408
     29 H                     0.077253
     30 H                     0.072847
     31 H                     0.090192
     32 O                    -0.220885
     33 C                    -0.128108
     34 C                     0.023980
     35 C                    -0.145101
     36 C                    -0.142542
     37 C                     0.022827
     38 O                    -0.192056
     39 H                     0.088307
     40 H                     0.082434
     41 H                     0.091231
     42 H                     0.085876
     43 H                     0.078376
     44 H                     0.073708
     45 H                     0.078045
     46 H                     0.072936
     47 H                     0.093529
     48 H                     0.091263
     49 H                     0.091540
     50 H                     0.085612
     51 H                     0.086242
     52 H                     0.089793
     53 H                     0.089021
     54 H                     0.091863
     55 H                     0.096485
     56 H                     0.102372
  ----------------------------------------
  Sum of atomic charges =     0.000000

                    Cartesian Multipole Moments
 -----------------------------------------------------------------
    Charge (ESU x 10^10)
                 0.0000
    Dipole Moment (Debye)
         X       2.9556      Y      -2.3201      Z      -0.7022
       Tot       3.8225
    Quadrupole Moments (Debye-Ang)
        XX    -153.4228     XY       7.9612     YY    -159.8849
        XZ      -1.1293     YZ      -4.3927     ZZ    -150.7149

 Total job time:  68.80s(wall), 3270.24s(cpu)
        *  Thank you very much for using Q-Chem.  Have a nice day.  *
