 Q-Chem 5.0, Q-Chem, Inc., Pleasanton, CA (2017)
 Q-Chem 5.0.1 for Intel X86 EM64T Linux

User input:
--------------------------------------------------------------
$molecule
0  1
O -2.945468485 -1.3180334394 1.1185492462
C -4.1844839083 -1.146552742 1.1005904956
C -4.9876845404 0.0290317889 0.4533128866
C -4.1088794796 1.2973247211 0.0912092561
C -2.5654601064 1.0921005342 0.3170992707
O -2.0119326246 0.4067049324 -0.8154731428
C -0.6195950279 -0.0044276465 -0.5341475873
C 0.4143642855 1.0386565924 -1.1240048961
O 1.5220778079 1.3021075485 -0.1717257882
C 2.4882297329 0.2521981355 -0.2359865343
C 3.5835236921 0.4907895233 0.8628400006
C 4.8890037393 -0.3531804418 0.5748365567
C 4.7092255087 -1.5054123462 -0.4813770836
O 5.2426650069 -1.5912572802 -1.6077009749
O -5.1251655094 -2.0649153446 1.6649030337
O 3.9839622648 -2.5690686897 0.158909735
O 2.4573294346 -0.674747834 -1.0778603213
C 3.7400267562 -3.6579480027 -0.8115008938
C 4.1571980369 1.9632279573 0.7147583334
C 5.1674608428 2.2595310746 1.893677424
C 6.4485399031 1.4821803766 1.4102035486
C 5.8935241715 0.7824559583 0.110034384
O 5.0233963735 1.82724021 -0.4809175685
H 3.1548794409 0.2906456075 1.8616827435
H 5.2405148364 -0.8252807018 1.5099091602
H 3.3772624356 2.7315318507 0.550116347
H 5.3552801177 3.3414948766 1.9790217148
H 4.7870945918 1.8909057118 2.8600478329
H 7.2659134255 2.1755729426 1.1549238788
H 6.8164074781 0.7573004869 2.1540013138
H 6.6500388692 0.44662524 -0.6257712038
O -1.9007269141 1.475906348 1.3040596096
C -4.4136227936 -3.2302431019 2.2406463099
C -5.5977369938 -0.3433577051 -0.9720335302
C -6.7642632406 0.6764145004 -1.2751092729
C -5.9454948852 1.9843978533 -1.5818467899
C -4.4607858726 1.457829671 -1.4499069229
O -4.5404983404 0.0557928527 -1.9248116303
H -5.7995367253 0.2993744937 1.1524302306
H -4.4230951029 2.1736839628 0.684893802
H -3.6925907045 -2.9221980556 3.0250561129
H -5.8571756489 -1.4128250904 -1.0957754391
H -7.3396900661 0.3457030003 -2.1544924532
H -7.4539460695 0.7917181139 -0.4238757059
H -6.1362911149 2.3513030662 -2.6027019411
H -6.1595090852 2.7964041709 -0.8688092497
H -3.708133105 2.0202559564 -2.0348177507
H -3.864810866 -3.7975184918 1.4612174868
H -5.1940119311 -3.8742601598 2.6859868513
H 3.2457763589 -4.4701155811 -0.2470571301
H 4.6848859128 -4.0336852397 -1.2549292221
H 3.0746215796 -3.3189659273 -1.6320987245
H 0.8123136252 0.6882683407 -2.0990017677
H -0.0910991047 2.0162017545 -1.2613268882
H -0.4800339504 -0.9987305679 -1.002840369
H -0.4622890636 -0.0771562808 0.5634772487
$end

$rem
JOBTYPE                   OPT
METHOD                    B3LYP
DFT_D                     d3_op
BASIS                     STO-3G
GEOM_OPT_MAX_CYCLES       100
GEOM_OPT_TOL_GRADIENT     300
GEOM_OPT_TOL_DISPLACEMENT 1200
GEOM_OPT_TOL_ENERGY       100
SYMMETRY                  False
THRESH                    12
SCF_CONVERGENCE           8
MAX_SUB_FILE_NUM          128
MEM_STATIC                400
MEM_TOTAL                 4000
$end
--------------------------------------------------------------

   16   -1510.2826566001      7.07E-09 Convergence criterion met
 Total energy in the final basis set = -1510.28265660
   13   -1510.2839226066      8.13E-09 Convergence criterion met
 Total energy in the final basis set = -1510.28392261
   14   -1510.2846529643      3.85E-09 Convergence criterion met
 Total energy in the final basis set = -1510.28465296
   13   -1510.2852490462      4.68E-09 Convergence criterion met
 Total energy in the final basis set = -1510.28524905
   13   -1510.2857755470      2.51E-09 Convergence criterion met
 Total energy in the final basis set = -1510.28577555
   13   -1510.2861647724      7.38E-09 Convergence criterion met
 Total energy in the final basis set = -1510.28616477
   13   -1510.2865931723      5.93E-09 Convergence criterion met
 Total energy in the final basis set = -1510.28659317
   13   -1510.2869972277      4.00E-09 Convergence criterion met
   13   -1510.2880704888      4.01E-09 Convergence criterion met
 Total energy in the final basis set = -1510.28807049
   12   -1510.2880977213      2.49E-09 Convergence criterion met
 Total energy in the final basis set = -1510.28809772
   11   -1510.2881121503      8.99E-09 Convergence criterion met
 Total energy in the final basis set = -1510.28811215
   11   -1510.2881038121      6.36E-09 Convergence criterion met
 Total energy in the final basis set = -1510.28810381
   11   -1510.2881026871      5.82E-09 Convergence criterion met
 Total energy in the final basis set = -1510.28810269
   11   -1510.2880899033      5.93E-09 Convergence criterion met
 Total energy in the final basis set = -1510.28808990

             Standard Nuclear Orientation (Angstroms)
    I     Atom           X                Y                Z
 ----------------------------------------------------------------
    1      O       3.1978873462    -1.0300173198    -1.9985117830
    2      C       4.2511387818    -1.2255015893    -1.3506021156
    3      C       5.0063816061    -0.2044283877    -0.4346069066
    4      C       4.1924440794     1.1321647388    -0.1889888788
    5      C       2.7905448141     1.1723562714    -0.9031893754
    6      O       1.8503345476     0.4368441281    -0.1053881159
    7      C       0.5525529343     0.3203235638    -0.8064140027
    8      C      -0.2825680808     1.6579524849    -0.7675994577
    9      O      -1.6500891103     1.4240269857    -1.2957551464
   10      C      -2.4855486870     0.8625638047    -0.2802860278
   11      C      -3.8927643685     0.5666688066    -0.8945507978
   12      C      -4.7276000065    -0.4681502647    -0.0345168248
   13      C      -3.9582719960    -1.0399630873     1.2144970619
   14      O      -4.2160417328    -0.8432930178     2.4201915565
   15      O       4.9673234535    -2.4612630909    -1.3480735721
   16      O      -2.9604168126    -1.9541716902     0.7327215334
   17      O      -2.1254816479     0.6695674756     0.9032519108
   18      C      -2.1597635907    -2.4625234254     1.8682629382
   19      C      -4.8376440563     1.8462241447    -0.8099945157
   20      C      -6.1027210408     1.5903799550    -1.7223246311
   21      C      -6.9263074578     0.5898773449    -0.8288926395
   22      C      -5.9605846859     0.4236374839     0.4078135279
   23      O      -5.3716427320     1.7753733564     0.5670585797
   24      H      -3.7592752042     0.2322467312    -1.9384927239
   25      H      -5.0435917679    -1.3220323626    -0.6606659297
   26      H      -4.3192057911     2.8098108379    -0.9815101364
   27      H      -6.6521968235     2.5302021403    -1.8914604331
   28      H      -5.8266383722     1.1619141375    -2.6989585486
   29      H      -7.8854308764     1.0290346998    -0.5115407773
   30      H      -7.1262515575    -0.3684150291    -1.3342231189
   31      H      -6.4344248051     0.0976681823     1.3538894233
   32      O       2.4979340297     1.8175898936    -1.9334544487
   33      C       4.2724911459    -3.4531727104    -2.2023087621
   34      C       5.1733621507    -0.7424201218     1.0523045118
   35      C       6.2676624428     0.1358627683     1.7765766591
   36      C       5.4716182017     1.4715703685     2.0166605059
   37      C       4.0651075870     1.1069145241     1.3951390736
   38      O       3.9108126123    -0.3336357101     1.7056871469
   39      H       5.9918542309     0.0006055785    -0.8919652063
   40      H       4.7651292871     2.0079047915    -0.5414693639
   41      H       4.2518160714    -3.1320714580    -3.2638753653
   42      H       5.3171885116    -1.8382569140     1.1208738979
   43      H       6.5659111636    -0.3332227092     2.7276833476
   44      H       7.1668714125     0.2780631096     1.1558721630
   45      H       5.3703640891     1.6938578535     3.0907888511
   46      H       5.9340562832     2.3387235995     1.5184503324
   47      H       3.2079603566     1.6814335919     1.7955647644
   48      H       3.2297679358    -3.6216611548    -1.8643985758
   49      H       4.8497227856    -4.3915141492    -2.1103724501
   50      H      -1.4333632690    -3.1766014380     1.4383002202
   51      H      -2.7921803363    -2.9814032671     2.6174157217
   52      H      -1.6153405573    -1.6391625009     2.3749800823
   53      H      -0.3232920098     2.0392510182     0.2748414587
   54      H       0.1842227381     2.4111828878    -1.4324617494
   55      H      -0.0036691520    -0.4699125541    -0.2621965756
   56      H       0.7038361739     0.0052460344    -1.8608469988
 ----------------------------------------------------------------

   10   -1510.2880899440      6.82E-09 Convergence criterion met
 Total energy in the final basis set = -1510.28808994
 Final energy is   -1510.28808994398
 **  OPTIMIZATION CONVERGED  **

                    Orbital Energies (a.u.)
 --------------------------------------------------------------

 Alpha MOs
 -- Occupied --
-18.945 -18.936 -18.923 -18.917 -18.889 -18.887 -18.884 -18.879
-18.863 -18.860 -10.108 -10.101 -10.094 -10.088 -10.071 -10.065
-10.063 -10.061 -10.060 -10.059 -10.054 -10.052 -10.042 -10.036
-10.035 -10.030 -10.021 -10.020 -10.018 -10.017  -1.022  -1.015
 -1.001  -0.996  -0.971  -0.967  -0.945  -0.939  -0.928  -0.923
 -0.764  -0.760  -0.726  -0.721  -0.713  -0.704  -0.690  -0.668
 -0.652  -0.615  -0.596  -0.580  -0.546  -0.542  -0.538  -0.534
 -0.514  -0.507  -0.485  -0.473  -0.464  -0.455  -0.450  -0.444
 -0.434  -0.432  -0.428  -0.418  -0.410  -0.405  -0.401  -0.392
 -0.390  -0.381  -0.377  -0.363  -0.361  -0.354  -0.350  -0.345
 -0.340  -0.337  -0.333  -0.330  -0.328  -0.326  -0.322  -0.315
 -0.309  -0.306  -0.301  -0.301  -0.297  -0.283  -0.277  -0.275
 -0.271  -0.262  -0.255  -0.243  -0.240  -0.235  -0.231  -0.189
 -0.184  -0.164  -0.162  -0.160  -0.155  -0.145  -0.143  -0.142
 -0.139

          Ground-State Mulliken Net Atomic Charges

     Atom                 Charge (a.u.)
  ----------------------------------------
      1 O                    -0.208407
      2 C                     0.215118
      3 C                    -0.078315
      4 C                    -0.081610
      5 C                     0.214299
      6 O                    -0.170628
      7 C                    -0.049726
      8 C                    -0.055242
      9 O                    -0.170473
     10 C                     0.212734
     11 C                    -0.078462
     12 C                    -0.080816
     13 C                     0.215863
     14 O                    -0.213809
     15 O                    -0.168778
     16 O                    -0.178816
     17 O                    -0.209034
     18 C                    -0.129378
     19 C                     0.025600
     20 C                    -0.143655
     21 C                    -0.144020
     22 C                     0.024686
     23 O                    -0.188213
     24 H                     0.086885
     25 H                     0.083063
     26 H                     0.083664
     27 H                     0.077945
     28 H                     0.073710
     29 H                     0.077867
     30 H                     0.073019
     31 H                     0.089879
     32 O                    -0.220911
     33 C                    -0.127959
     34 C                     0.024967
     35 C                    -0.143654
     36 C                    -0.144411
     37 C                     0.026832
     38 O                    -0.186562
     39 H                     0.086686
     40 H                     0.083314
     41 H                     0.090378
     42 H                     0.087657
     43 H                     0.078407
     44 H                     0.073452
     45 H                     0.078410
     46 H                     0.073632
     47 H                     0.086396
     48 H                     0.092215
     49 H                     0.092510
     50 H                     0.085569
     51 H                     0.086598
     52 H                     0.093313
     53 H                     0.093296
     54 H                     0.099009
     55 H                     0.091050
     56 H                     0.094860
  ----------------------------------------
  Sum of atomic charges =     0.000000

                    Cartesian Multipole Moments
 -----------------------------------------------------------------
    Charge (ESU x 10^10)
                 0.0000
    Dipole Moment (Debye)
         X       2.4047      Y      -1.5555      Z      -2.0417
       Tot       3.5172
    Quadrupole Moments (Debye-Ang)
        XX    -138.1355     XY       1.4526     YY    -152.1225
        XZ      13.0935     YZ       3.9298     ZZ    -166.7923

 Total job time:  65.25s(wall), 3103.62s(cpu)
        *  Thank you very much for using Q-Chem.  Have a nice day.  *
