 Q-Chem 5.0, Q-Chem, Inc., Pleasanton, CA (2017)
 Q-Chem 5.0.1 for Intel X86 EM64T Linux

User input:
--------------------------------------------------------------
$molecule
0  1
O -3.94934 -3.66094 2.70899
C -3.26408 -4.56952 2.26188
C -3.36658 -6.02376 2.66595
C -4.13329 -6.341 3.96031
C -4.86336 -5.1874 4.61168
O -6.06871 -4.99566 3.99867
C -6.72334 -3.79026 4.40821
C -7.74317 -4.09135 5.50156
O -7.6749 -3.08582 6.52485
C -8.31598 -1.92411 6.2445
C -8.11263 -0.86898 7.30564
C -9.11994 0.28956 7.26794
C -10.3651 0.05575 6.43632
O -11.50489 -0.01858 6.87212
O -2.43989 -4.30823 1.21359
O -10.2203 0.17542 5.08972
O -8.56441 -1.62832 5.08487
C -11.25352 0.08961 4.1792
C -8.32536 -1.37436 8.75234
C -7.54813 -0.48439 9.72016
C -8.35959 0.79151 9.64175
C -9.52135 0.32129 8.75753
O -9.65645 -1.0452 9.05859
H -7.06012 -0.52018 7.20244
H -8.67283 1.25188 6.93465
H -8.04008 -2.43669 8.90978
H -7.67725 -0.92551 10.73489
H -6.46311 -0.37034 9.5091
H -8.71136 1.04639 10.66606
H -7.83598 1.66114 9.18866
H -10.41859 0.95255 8.94169
O -4.55545 -4.72508 5.70407
C -2.26328 -3.05915 0.65621
C -4.13461 -6.89135 1.65394
C -3.6965 -8.34943 1.78622
C -4.33857 -8.72087 3.10873
C -5.09456 -7.42583 3.42678
O -5.4489 -6.92798 2.15674
H -2.31365 -6.3759 2.75675
H -3.44644 -6.74979 4.73559
H -1.86433 -2.35399 1.41645
H -4.01906 -6.54462 0.60379
H -4.20155 -8.92151 0.97519
H -2.5998 -8.51848 1.72608
H -5.05749 -9.55089 2.92852
H -3.63125 -9.00123 3.91894
H -5.93232 -7.62668 4.13034
H -3.228 -2.67725 0.25882
H -1.53725 -3.13291 -0.17921
H -10.84723 0.21957 3.15526
H -12.00149 0.88837 4.37111
H -11.74042 -0.90671 4.2473
H -8.7673 -4.32003 5.13212
H -7.39213 -5.01117 6.01666
H -7.19236 -3.27501 3.54433
H -5.98346 -3.04946 4.79733
$end

$opt
CONSTRAINT
tors           1           2           3           4     -15.667
tors           3           4           5           6     +81.929
tors           4           5           6           7    -170.342
tors           5           6           7           8     -96.993
tors           6           7           8           9    +137.836
tors           7           8           9          10     +79.978
tors           8           9          10          11    -175.243
tors           9          10          11          12    -162.652
tors          11          12          13          14    +114.505
ENDCONSTRAINT
$end

$rem
JOBTYPE                   OPT
METHOD                    B3LYP
DFT_D                     d3_op
BASIS                     STO-3G
GEOM_OPT_MAX_CYCLES       100
GEOM_OPT_TOL_GRADIENT     300
GEOM_OPT_TOL_DISPLACEMENT 1200
GEOM_OPT_TOL_ENERGY       100
SYMMETRY                  False
THRESH                    12
SCF_CONVERGENCE           8
MAX_SUB_FILE_NUM          128
MEM_STATIC                400
MEM_TOTAL                 4000
$end
--------------------------------------------------------------

   15   -1510.1370568720      6.09E-09 Convergence criterion met
 Total energy in the final basis set = -1510.13705687
   13   -1510.2083400313      9.33E-09 Convergence criterion met
 Total energy in the final basis set = -1510.20834003
   13   -1510.2466936438      8.51E-09 Convergence criterion met
 Total energy in the final basis set = -1510.24669364
   14   -1510.2643910069      1.73E-09 Convergence criterion met
 Total energy in the final basis set = -1510.26439101
   13   -1510.2713510683      6.58E-09 Convergence criterion met
 Total energy in the final basis set = -1510.27135107
   13   -1510.2747703345      6.86E-09 Convergence criterion met
 Total energy in the final basis set = -1510.27477033
   13   -1510.2768129519      2.46E-09 Convergence criterion met
 Total energy in the final basis set = -1510.27681295
   13   -1510.2782214901      2.86E-09 Convergence criterion met
   11   -1510.2828297443      8.51E-09 Convergence criterion met
 Total energy in the final basis set = -1510.28282974
   11   -1510.2828688712      5.90E-09 Convergence criterion met
 Total energy in the final basis set = -1510.28286887
   11   -1510.2828940337      2.17E-09 Convergence criterion met
 Total energy in the final basis set = -1510.28289403
   11   -1510.2829139875      4.53E-09 Convergence criterion met
 Total energy in the final basis set = -1510.28291399
    9   -1510.2829195489      7.08E-09 Convergence criterion met
 Total energy in the final basis set = -1510.28291955
    9   -1510.2829211845      7.74E-09 Convergence criterion met
 Total energy in the final basis set = -1510.28292118

             Standard Nuclear Orientation (Angstroms)
    I     Atom           X                Y                Z
 ----------------------------------------------------------------
    1      O      -2.9454684850    -1.3180334394     1.1185492462
    2      C      -4.1844839083    -1.1465527420     1.1005904956
    3      C      -4.9876845404     0.0290317889     0.4533128866
    4      C      -4.1088794796     1.2973247211     0.0912092561
    5      C      -2.5654601064     1.0921005342     0.3170992707
    6      O      -2.0119326246     0.4067049324    -0.8154731428
    7      C      -0.6195950279    -0.0044276465    -0.5341475873
    8      C       0.4143642855     1.0386565924    -1.1240048961
    9      O       1.5220778079     1.3021075485    -0.1717257882
   10      C       2.4882297329     0.2521981355    -0.2359865343
   11      C       3.5835236921     0.4907895233     0.8628400006
   12      C       4.8890037393    -0.3531804418     0.5748365567
   13      C       4.7092255087    -1.5054123462    -0.4813770836
   14      O       5.2426650069    -1.5912572802    -1.6077009749
   15      O      -5.1251655094    -2.0649153446     1.6649030337
   16      O       3.9839622648    -2.5690686897     0.1589097350
   17      O       2.4573294346    -0.6747478340    -1.0778603213
   18      C       3.7400267562    -3.6579480027    -0.8115008938
   19      C       4.1571980369     1.9632279573     0.7147583334
   20      C       5.1674608428     2.2595310746     1.8936774240
   21      C       6.4485399031     1.4821803766     1.4102035486
   22      C       5.8935241715     0.7824559583     0.1100343840
   23      O       5.0233963735     1.8272402100    -0.4809175685
   24      H       3.1548794409     0.2906456075     1.8616827435
   25      H       5.2405148364    -0.8252807018     1.5099091602
   26      H       3.3772624356     2.7315318507     0.5501163470
   27      H       5.3552801177     3.3414948766     1.9790217148
   28      H       4.7870945918     1.8909057118     2.8600478329
   29      H       7.2659134255     2.1755729426     1.1549238788
   30      H       6.8164074781     0.7573004869     2.1540013138
   31      H       6.6500388692     0.4466252400    -0.6257712038
   32      O      -1.9007269141     1.4759063480     1.3040596096
   33      C      -4.4136227936    -3.2302431019     2.2406463099
   34      C      -5.5977369938    -0.3433577051    -0.9720335302
   35      C      -6.7642632406     0.6764145004    -1.2751092729
   36      C      -5.9454948852     1.9843978533    -1.5818467899
   37      C      -4.4607858726     1.4578296710    -1.4499069229
   38      O      -4.5404983404     0.0557928527    -1.9248116303
   39      H      -5.7995367253     0.2993744937     1.1524302306
   40      H      -4.4230951029     2.1736839628     0.6848938020
   41      H      -3.6925907045    -2.9221980556     3.0250561129
   42      H      -5.8571756489    -1.4128250904    -1.0957754391
   43      H      -7.3396900661     0.3457030003    -2.1544924532
   44      H      -7.4539460695     0.7917181139    -0.4238757059
   45      H      -6.1362911149     2.3513030662    -2.6027019411
   46      H      -6.1595090852     2.7964041709    -0.8688092497
   47      H      -3.7081331050     2.0202559564    -2.0348177507
   48      H      -3.8648108660    -3.7975184918     1.4612174868
   49      H      -5.1940119311    -3.8742601598     2.6859868513
   50      H       3.2457763589    -4.4701155811    -0.2470571301
   51      H       4.6848859128    -4.0336852397    -1.2549292221
   52      H       3.0746215796    -3.3189659273    -1.6320987245
   53      H       0.8123136252     0.6882683407    -2.0990017677
   54      H      -0.0910991047     2.0162017545    -1.2613268882
   55      H      -0.4800339504    -0.9987305679    -1.0028403690
   56      H      -0.4622890636    -0.0771562808     0.5634772487
 ----------------------------------------------------------------

    9   -1510.2829223261      3.29E-09 Convergence criterion met
 Total energy in the final basis set = -1510.28292233
 Final energy is   -1510.28292232615
 **  OPTIMIZATION CONVERGED  **

                    Orbital Energies (a.u.)
 --------------------------------------------------------------

 Alpha MOs
 -- Occupied --
-18.941 -18.938 -18.925 -18.913 -18.891 -18.884 -18.882 -18.881
-18.867 -18.855 -10.106 -10.103 -10.095 -10.085 -10.069 -10.069
-10.064 -10.062 -10.061 -10.055 -10.052 -10.049 -10.042 -10.038
-10.037 -10.027 -10.023 -10.022 -10.017 -10.015  -1.019  -1.017
 -1.003  -0.992  -0.972  -0.965  -0.943  -0.940  -0.929  -0.919
 -0.765  -0.758  -0.726  -0.721  -0.713  -0.703  -0.689  -0.667
 -0.649  -0.615  -0.596  -0.578  -0.548  -0.540  -0.539  -0.532
 -0.515  -0.505  -0.484  -0.476  -0.463  -0.452  -0.450  -0.443
 -0.436  -0.429  -0.426  -0.416  -0.411  -0.403  -0.400  -0.397
 -0.387  -0.381  -0.378  -0.364  -0.359  -0.355  -0.347  -0.345
 -0.339  -0.338  -0.332  -0.329  -0.328  -0.326  -0.319  -0.315
 -0.310  -0.306  -0.303  -0.302  -0.296  -0.282  -0.279  -0.271
 -0.270  -0.261  -0.253  -0.241  -0.239  -0.236  -0.229  -0.189
 -0.184  -0.165  -0.160  -0.157  -0.155  -0.148  -0.145  -0.140
 -0.136

          Ground-State Mulliken Net Atomic Charges

     Atom                 Charge (a.u.)
  ----------------------------------------
      1 O                    -0.209855
      2 C                     0.211427
      3 C                    -0.079156
      4 C                    -0.080435
      5 C                     0.213444
      6 O                    -0.169366
      7 C                    -0.051123
      8 C                    -0.050926
      9 O                    -0.167874
     10 C                     0.215928
     11 C                    -0.076286
     12 C                    -0.082324
     13 C                     0.215624
     14 O                    -0.219814
     15 O                    -0.169816
     16 O                    -0.176709
     17 O                    -0.208289
     18 C                    -0.128274
     19 C                     0.023422
     20 C                    -0.144886
     21 C                    -0.142794
     22 C                     0.023333
     23 O                    -0.192221
     24 H                     0.088012
     25 H                     0.082858
     26 H                     0.089394
     27 H                     0.077644
     28 H                     0.073259
     29 H                     0.077251
     30 H                     0.072717
     31 H                     0.089428
     32 O                    -0.217491
     33 C                    -0.128628
     34 C                     0.026183
     35 C                    -0.142907
     36 C                    -0.144916
     37 C                     0.027007
     38 O                    -0.184582
     39 H                     0.086817
     40 H                     0.083940
     41 H                     0.091311
     42 H                     0.084794
     43 H                     0.078582
     44 H                     0.074271
     45 H                     0.078363
     46 H                     0.073750
     47 H                     0.085355
     48 H                     0.089849
     49 H                     0.091727
     50 H                     0.084687
     51 H                     0.086170
     52 H                     0.090658
     53 H                     0.095598
     54 H                     0.091021
     55 H                     0.093555
     56 H                     0.101294
  ----------------------------------------
  Sum of atomic charges =     0.000000

                    Cartesian Multipole Moments
 -----------------------------------------------------------------
    Charge (ESU x 10^10)
                 0.0000
    Dipole Moment (Debye)
         X      -3.2766      Y      -0.2444      Z       2.3331
       Tot       4.0298
    Quadrupole Moments (Debye-Ang)
        XX    -145.5726     XY      -0.1062     YY    -150.8563
        XZ      10.4017     YZ      -4.5576     ZZ    -162.6109

 Total job time:  61.06s(wall), 2900.32s(cpu)
        *  Thank you very much for using Q-Chem.  Have a nice day.  *
