 Q-Chem 5.0, Q-Chem, Inc., Pleasanton, CA (2017)
 Q-Chem 5.0.1 for Intel X86 EM64T Linux

User input:
--------------------------------------------------------------
$molecule
0  1
O 3.0775703685 -1.6943338658 -0.5479160458
C 4.3069800912 -1.5410180185 -0.3728218367
C 5.1108309222 -0.2030527603 -0.2850619722
C 4.3247300773 1.0643955749 -0.8209391064
C 2.829747104 0.7694294415 -1.214891097
O 2.0231910757 0.7889761339 -0.030873692
C 0.6623653618 0.2894750581 -0.3330217282
C -0.2728695057 0.7540124616 0.8437522575
O -1.5437526377 1.3048646105 0.3109429852
C -2.5723366889 0.3108255292 0.34348901
C -3.7708272585 0.7988100631 -0.5399173582
C -4.9697764377 -0.2326901013 -0.55822764
C -4.6486336364 -1.6307861812 0.0877472648
O -5.1544640117 -2.1221117274 1.1186943813
O 5.2231766181 -2.6218480721 -0.1769203464
O -3.7961500704 -2.3470005066 -0.8206518459
O -2.4974342019 -0.7622519312 0.9846592761
C -3.4377127989 -3.657663303 -0.2374659902
C -4.4747732157 2.0464898704 0.1494009683
C -5.5325977148 2.6616225789 -0.8516013104
C -6.7152955942 1.6291098306 -0.7247294129
C -6.0763108925 0.5652801484 0.2494471787
O -5.3006664067 1.4016605462 1.1955359911
H -3.3978329497 1.0356506258 -1.5525249041
H -5.2920647885 -0.4151295457 -1.5993560419
H -3.7685739292 2.7723801393 0.59765581
H -5.8343619101 3.6693577606 -0.5247797888
H -5.1363898826 2.7264122052 -1.8777218124
H -7.6036782331 2.0898350438 -0.263684675
H -7.0050484007 1.191460569 -1.6933146871
H -6.7871052957 -0.0812907545 0.7998405393
O 2.3875794266 0.6000960039 -2.3722808384
C 4.4971892795 -3.9134557633 -0.1979196551
C 5.4223206367 0.237277101 1.2157904702
C 6.6255410051 1.2583027025 1.1686849071
C 5.9111379623 2.5324005178 0.5828034834
C 4.4225575739 2.0177779813 0.4455733896
O 4.2677444511 1.0826816891 1.5845456731
H 6.0563232346 -0.3466705844 -0.8384707907
H 4.8267839726 1.4934335797 -1.7059543703
H 3.9816372628 -4.0764982007 -1.166356171
H 5.5389835714 -0.603322475 1.9272414462
H 7.0135483734 1.4418386435 2.1832897079
H 7.4508310273 0.9012589881 0.5322340742
H 5.9621311966 3.3827830225 1.281047657
H 6.3295966458 2.8458741937 -0.3869416665
H 3.6470258969 2.8066264987 0.4859117358
H 3.7449893953 -3.9715796156 0.6152737838
H 5.2637747432 -4.696094781 -0.0497449343
H -2.8261609658 -4.1770247491 -0.9981751354
H -4.3371367702 -4.2643462426 -0.0054033094
H -2.8461379582 -3.534186245 0.6930139936
H -0.4928033715 -0.0843885997 1.5369117004
H 0.2277572841 1.5757441384 1.3966164056
H 0.6837023611 -0.8181145428 -0.4249774743
H 0.2981367545 0.7105899895 -1.2964632401
$end

$rem
JOBTYPE                   OPT
METHOD                    B3LYP
DFT_D                     d3_op
BASIS                     STO-3G
GEOM_OPT_MAX_CYCLES       100
GEOM_OPT_TOL_GRADIENT     300
GEOM_OPT_TOL_DISPLACEMENT 1200
GEOM_OPT_TOL_ENERGY       100
SYMMETRY                  False
THRESH                    12
SCF_CONVERGENCE           8
MAX_SUB_FILE_NUM          128
MEM_STATIC                400
MEM_TOTAL                 4000
$end
--------------------------------------------------------------

   16   -1510.2822447934      6.81E-09 Convergence criterion met
 Total energy in the final basis set = -1510.28224479
   14   -1510.2836482531      2.29E-09 Convergence criterion met
 Total energy in the final basis set = -1510.28364825
   14   -1510.2842031744      2.03E-09 Convergence criterion met
 Total energy in the final basis set = -1510.28420317
   13   -1510.2842526296      5.15E-09 Convergence criterion met
 Total energy in the final basis set = -1510.28425263
   13   -1510.2850086559      4.58E-09 Convergence criterion met
 Total energy in the final basis set = -1510.28500866
   13   -1510.2851893954      4.20E-09 Convergence criterion met
 Total energy in the final basis set = -1510.28518940
   13   -1510.2857124721      5.23E-09 Convergence criterion met
 Total energy in the final basis set = -1510.28571247
   13   -1510.2861547147      7.74E-09 Convergence criterion met
   12   -1510.3006438115      7.44E-09 Convergence criterion met
 Total energy in the final basis set = -1510.30064381
   11   -1510.3006621336      5.65E-09 Convergence criterion met
 Total energy in the final basis set = -1510.30066213
   11   -1510.3006723290      6.54E-09 Convergence criterion met
 Total energy in the final basis set = -1510.30067233
   11   -1510.3006783216      4.67E-09 Convergence criterion met
 Total energy in the final basis set = -1510.30067832
    9   -1510.3006798199      9.83E-09 Convergence criterion met
 Total energy in the final basis set = -1510.30067982
    9   -1510.3006812117      4.73E-09 Convergence criterion met
 Total energy in the final basis set = -1510.30068121

             Standard Nuclear Orientation (Angstroms)
    I     Atom           X                Y                Z
 ----------------------------------------------------------------
    1      O       0.9301601589    -0.9144236438    -0.4376204068
    2      C       1.7352762585    -1.0305980877     0.5175481085
    3      C       3.2839869269    -0.8032579977     0.4401575821
    4      C       3.7246197564    -0.0874395683    -0.9030062137
    5      C       2.5373123263     0.2443156608    -1.8835678095
    6      O       1.8729672128     1.4304750982    -1.4217269447
    7      C       0.7095479953     1.7372774924    -2.2847818413
    8      C      -0.1968817284     2.7521541972    -1.4906597099
    9      O      -1.5775277285     2.2375778675    -1.3118719925
   10      C      -1.6467912985     1.3512849938    -0.1928672146
   11      C      -3.1258936078     0.8641759917    -0.0381025084
   12      C      -3.3819444780    -0.6530392257    -0.4419876114
   13      C      -2.1453440498    -1.4508251769    -0.9955553435
   14      O      -1.6234927423    -2.4648691341    -0.4793125554
   15      O       1.3661686710    -1.3899905383     1.8356394179
   16      O      -1.7543283936    -0.8942535342    -2.2484769448
   17      O      -0.6756344854     1.0887671877     0.5532176015
   18      C      -0.6509358703    -1.7028600799    -2.8316293824
   19      C      -3.5406015700     0.8276889131     1.4961214775
   20      C      -5.1134387108     0.7214099963     1.5925891808
   21      C      -5.3413932708    -0.7894137317     1.2130056447
   22      C      -3.8598203134    -1.2591551947     0.9419752264
   23      O      -3.0687354211    -0.5019289536     1.9403644383
   24      H      -3.7692640108     1.5389534978    -0.6294198884
   25      H      -4.1798742850    -0.7054523649    -1.2057073460
   26      H      -3.0813694819     1.6256104660     2.1112122427
   27      H      -5.4510586423     0.9358324244     2.6189792528
   28      H      -5.6192105826     1.4151365817     0.9021045716
   29      H      -5.7778536595    -1.3547082085     2.0517798237
   30      H      -5.9864120157    -0.9139143915     0.3286281780
   31      H      -3.6663365353    -2.3448182522     1.0420758493
   32      O       2.2749116985    -0.3377592678    -2.9591499608
   33      C      -0.1173082294    -1.4727723407     1.9374994978
   34      C       3.7898022636     0.2390966234     1.5254690288
   35      C       5.3611098262     0.1218629412     1.6314625643
   36      C       5.8071934055     0.8270298052     0.2970286086
   37      C       4.4081574508     1.2234008024    -0.3222613937
   38      O       3.5831583018     1.5476509712     0.8643758251
   39      H       3.7885725985    -1.7795341278     0.5625160208
   40      H       4.4425965512    -0.7115533370    -1.4636377323
   41      H      -0.5334716750    -2.2366922674     1.2459592204
   42      H       3.2370366577     0.1894683947     2.4836143311
   43      H       5.7282224739     0.6643582465     2.5171106812
   44      H       5.6967428456    -0.9256127765     1.6944604683
   45      H       6.4083562569     1.7281027324     0.4979213738
   46      H       6.3814141777     0.1604496565    -0.3661931974
   47      H       4.4290959333     2.0786736801    -1.0244896644
   48      H      -0.5706518890    -0.4905015631     1.6700557859
   49      H      -0.3346726854    -1.7382593025     2.9869419843
   50      H      -0.4136686485    -1.2385501075    -3.8057178482
   51      H      -0.9634200298    -2.7555145178    -2.9832607379
   52      H       0.2377416309    -1.6664891613    -2.1668957389
   53      H       0.2780857087     2.9441802477    -0.5042283848
   54      H      -0.3101463908     3.7036224030    -2.0465471052
   55      H       0.1251236110     0.8195366631    -2.5092425931
   56      H       1.0439729725     2.1766340199    -3.2500518155
 ----------------------------------------------------------------

    9   -1510.3006810694      3.55E-09 Convergence criterion met
 Total energy in the final basis set = -1510.30068107
 Final energy is   -1510.30068106942
 **  OPTIMIZATION CONVERGED  **

                    Orbital Energies (a.u.)
 --------------------------------------------------------------

 Alpha MOs
 -- Occupied --
-18.937 -18.930 -18.926 -18.916 -18.889 -18.882 -18.881 -18.872
-18.869 -18.853 -10.103 -10.097 -10.095 -10.087 -10.069 -10.062
-10.061 -10.058 -10.054 -10.053 -10.044 -10.040 -10.038 -10.031
-10.027 -10.025 -10.022 -10.021 -10.015 -10.014  -1.015  -1.006
 -1.004  -0.993  -0.972  -0.963  -0.939  -0.931  -0.926  -0.921
 -0.764  -0.756  -0.726  -0.718  -0.710  -0.703  -0.691  -0.652
 -0.640  -0.611  -0.591  -0.577  -0.544  -0.539  -0.537  -0.531
 -0.512  -0.506  -0.481  -0.464  -0.462  -0.452  -0.449  -0.439
 -0.431  -0.428  -0.427  -0.411  -0.405  -0.401  -0.396  -0.392
 -0.390  -0.369  -0.366  -0.362  -0.357  -0.351  -0.350  -0.346
 -0.334  -0.333  -0.330  -0.328  -0.323  -0.321  -0.317  -0.311
 -0.306  -0.305  -0.298  -0.296  -0.289  -0.281  -0.275  -0.269
 -0.269  -0.254  -0.247  -0.242  -0.238  -0.234  -0.228  -0.183
 -0.175  -0.163  -0.160  -0.155  -0.148  -0.147  -0.145  -0.137
 -0.136

          Ground-State Mulliken Net Atomic Charges

     Atom                 Charge (a.u.)
  ----------------------------------------
      1 O                    -0.218186
      2 C                     0.222286
      3 C                    -0.078554
      4 C                    -0.081530
      5 C                     0.213904
      6 O                    -0.172385
      7 C                    -0.049987
      8 C                    -0.050829
      9 O                    -0.168129
     10 C                     0.213525
     11 C                    -0.078911
     12 C                    -0.078986
     13 C                     0.214225
     14 O                    -0.213487
     15 O                    -0.169942
     16 O                    -0.171849
     17 O                    -0.206225
     18 C                    -0.138266
     19 C                     0.025305
     20 C                    -0.144059
     21 C                    -0.143902
     22 C                     0.023688
     23 O                    -0.188796
     24 H                     0.087601
     25 H                     0.085176
     26 H                     0.084088
     27 H                     0.078447
     28 H                     0.073964
     29 H                     0.078432
     30 H                     0.073645
     31 H                     0.089991
     32 O                    -0.227329
     33 C                    -0.147702
     34 C                     0.024889
     35 C                    -0.143980
     36 C                    -0.144483
     37 C                     0.026262
     38 O                    -0.187494
     39 H                     0.084550
     40 H                     0.081554
     41 H                     0.096961
     42 H                     0.090143
     43 H                     0.076999
     44 H                     0.072880
     45 H                     0.076379
     46 H                     0.072564
     47 H                     0.082969
     48 H                     0.112026
     49 H                     0.081643
     50 H                     0.089836
     51 H                     0.083014
     52 H                     0.114102
     53 H                     0.104568
     54 H                     0.088237
     55 H                     0.100603
     56 H                     0.080557
  ----------------------------------------
  Sum of atomic charges =     0.000000

                    Cartesian Multipole Moments
 -----------------------------------------------------------------
    Charge (ESU x 10^10)
                 0.0000
    Dipole Moment (Debye)
         X      -1.1086      Y       0.9163      Z      -0.3223
       Tot       1.4739
    Quadrupole Moments (Debye-Ang)
        XX    -136.6089     XY      -2.4246     YY    -157.8114
        XZ       0.6647     YZ      -2.1279     ZZ    -162.7343

 Total job time:  193.83s(wall), 9237.52s(cpu)
        *  Thank you very much for using Q-Chem.  Have a nice day.  *
