 Q-Chem 5.0, Q-Chem, Inc., Pleasanton, CA (2017)
 Q-Chem 5.0.1 for Intel X86 EM64T Linux

User input:
--------------------------------------------------------------
$molecule
0  1
O -3.94934 -3.66094 2.70899
C -3.26408 -4.56952 2.26188
C -3.36658 -6.02376 2.66595
C -4.13329 -6.341 3.96031
C -4.86336 -5.1874 4.61168
O -6.06871 -4.99566 3.99867
C -6.72334 -3.79026 4.40821
C -8.20337 -3.84612 4.04416
O -8.99714 -3.3901 5.1509
C -9.3936 -2.09465 5.08951
C -9.9235 -1.5785 6.40612
C -10.39641 -0.11761 6.38556
C -10.60627 0.48974 5.01305
O -11.68038 0.8513 4.55464
O -2.43795 -4.30768 1.21527
O -9.47763 0.94168 4.39715
O -9.25799 -1.45711 4.05818
C -9.46207 1.6399 3.20701
C -11.20174 -2.29491 6.88301
C -11.31782 -2.16735 8.40022
C -11.63424 -0.69185 8.53444
C -11.77544 -0.30632 7.056
O -12.25402 -1.47641 6.43868
H -9.11248 -1.73486 7.15339
H -9.74306 0.57113 6.96537
H -11.25245 -3.3637 6.58106
H -12.21517 -2.75312 8.70405
H -10.43908 -2.51839 8.98287
H -12.6045 -0.58958 9.06928
H -10.85315 -0.08152 9.03745
H -12.42058 0.59473 6.9595
O -4.52235 -4.67672 5.67183
C -2.25677 -3.05743 0.66199
C -4.13504 -6.89144 1.65425
C -3.69642 -8.34938 1.78614
C -4.33709 -8.72102 3.10932
C -5.09397 -7.42657 3.42762
O -5.44912 -6.92881 2.15775
H -2.31371 -6.37621 2.75648
H -3.44461 -6.74634 4.73568
H -1.85625 -2.35609 1.42497
H -4.02023 -6.54456 0.60407
H -4.20231 -8.9214 0.97558
H -2.59981 -8.51847 1.72481
H -5.05516 -9.55196 2.93
H -3.62881 -9.00005 3.91914
H -5.93131 -7.62783 4.13151
H -3.21977 -2.671 0.26488
H -1.52995 -3.13085 -0.17276
H -8.41219 1.87563 2.93757
H -10.02653 2.5909 3.31238
H -9.90978 1.02445 2.39757
H -8.44395 -3.43784 3.03755
H -8.47223 -4.92186 3.96616
H -6.22284 -2.86082 4.06091
H -6.7177 -3.77523 5.52374
$end

$opt
CONSTRAINT
tors           1           2           3           4     -15.667
tors           3           4           5           6     +81.929
tors           4           5           6           7    -170.342
tors           5           6           7           8    -162.437
tors           6           7           8           9    +134.911
tors           7           8           9          10     +97.650
tors           8           9          10          11    -165.972
tors           9          10          11          12    -179.533
tors          11          12          13          14    +114.505
ENDCONSTRAINT
$end

$rem
JOBTYPE                   OPT
METHOD                    B3LYP
DFT_D                     d3_op
BASIS                     STO-3G
GEOM_OPT_MAX_CYCLES       100
GEOM_OPT_TOL_GRADIENT     300
GEOM_OPT_TOL_DISPLACEMENT 1200
GEOM_OPT_TOL_ENERGY       100
SYMMETRY                  False
THRESH                    12
SCF_CONVERGENCE           8
MAX_SUB_FILE_NUM          128
MEM_STATIC                400
MEM_TOTAL                 4000
$end
--------------------------------------------------------------

   15   -1510.1465932860      7.24E-09 Convergence criterion met
 Total energy in the final basis set = -1510.14659329
   14   -1510.2163379084      4.85E-09 Convergence criterion met
 Total energy in the final basis set = -1510.21633791
   14   -1510.2526978527      4.47E-09 Convergence criterion met
 Total energy in the final basis set = -1510.25269785
   14   -1510.2680190352      3.69E-09 Convergence criterion met
 Total energy in the final basis set = -1510.26801904
   13   -1510.2746816906      7.01E-09 Convergence criterion met
 Total energy in the final basis set = -1510.27468169
   13   -1510.2775789259      2.61E-09 Convergence criterion met
 Total energy in the final basis set = -1510.27757893
   13   -1510.2793236813      1.99E-09 Convergence criterion met
 Total energy in the final basis set = -1510.27932368
   13   -1510.2802770805      3.65E-09 Convergence criterion met
   12   -1510.2820066337      3.73E-09 Convergence criterion met
 Total energy in the final basis set = -1510.28200663
   12   -1510.2821273295      2.64E-09 Convergence criterion met
 Total energy in the final basis set = -1510.28212733
   11   -1510.2822088804      8.38E-09 Convergence criterion met
 Total energy in the final basis set = -1510.28220888
   10   -1510.2822584521      9.69E-09 Convergence criterion met
 Total energy in the final basis set = -1510.28225845
   10   -1510.2822901330      5.91E-09 Convergence criterion met
 Total energy in the final basis set = -1510.28229013
   10   -1510.2823005123      5.79E-09 Convergence criterion met
 Total energy in the final basis set = -1510.28230051

             Standard Nuclear Orientation (Angstroms)
    I     Atom           X                Y                Z
 ----------------------------------------------------------------
    1      O       3.0775703685    -1.6943338658    -0.5479160458
    2      C       4.3069800912    -1.5410180185    -0.3728218367
    3      C       5.1108309222    -0.2030527603    -0.2850619722
    4      C       4.3247300773     1.0643955749    -0.8209391064
    5      C       2.8297471040     0.7694294415    -1.2148910970
    6      O       2.0231910757     0.7889761339    -0.0308736920
    7      C       0.6623653618     0.2894750581    -0.3330217282
    8      C      -0.2728695057     0.7540124616     0.8437522575
    9      O      -1.5437526377     1.3048646105     0.3109429852
   10      C      -2.5723366889     0.3108255292     0.3434890100
   11      C      -3.7708272585     0.7988100631    -0.5399173582
   12      C      -4.9697764377    -0.2326901013    -0.5582276400
   13      C      -4.6486336364    -1.6307861812     0.0877472648
   14      O      -5.1544640117    -2.1221117274     1.1186943813
   15      O       5.2231766181    -2.6218480721    -0.1769203464
   16      O      -3.7961500704    -2.3470005066    -0.8206518459
   17      O      -2.4974342019    -0.7622519312     0.9846592761
   18      C      -3.4377127989    -3.6576633030    -0.2374659902
   19      C      -4.4747732157     2.0464898704     0.1494009683
   20      C      -5.5325977148     2.6616225789    -0.8516013104
   21      C      -6.7152955942     1.6291098306    -0.7247294129
   22      C      -6.0763108925     0.5652801484     0.2494471787
   23      O      -5.3006664067     1.4016605462     1.1955359911
   24      H      -3.3978329497     1.0356506258    -1.5525249041
   25      H      -5.2920647885    -0.4151295457    -1.5993560419
   26      H      -3.7685739292     2.7723801393     0.5976558100
   27      H      -5.8343619101     3.6693577606    -0.5247797888
   28      H      -5.1363898826     2.7264122052    -1.8777218124
   29      H      -7.6036782331     2.0898350438    -0.2636846750
   30      H      -7.0050484007     1.1914605690    -1.6933146871
   31      H      -6.7871052957    -0.0812907545     0.7998405393
   32      O       2.3875794266     0.6000960039    -2.3722808384
   33      C       4.4971892795    -3.9134557633    -0.1979196551
   34      C       5.4223206367     0.2372771010     1.2157904702
   35      C       6.6255410051     1.2583027025     1.1686849071
   36      C       5.9111379623     2.5324005178     0.5828034834
   37      C       4.4225575739     2.0177779813     0.4455733896
   38      O       4.2677444511     1.0826816891     1.5845456731
   39      H       6.0563232346    -0.3466705844    -0.8384707907
   40      H       4.8267839726     1.4934335797    -1.7059543703
   41      H       3.9816372628    -4.0764982007    -1.1663561710
   42      H       5.5389835714    -0.6033224750     1.9272414462
   43      H       7.0135483734     1.4418386435     2.1832897079
   44      H       7.4508310273     0.9012589881     0.5322340742
   45      H       5.9621311966     3.3827830225     1.2810476570
   46      H       6.3295966458     2.8458741937    -0.3869416665
   47      H       3.6470258969     2.8066264987     0.4859117358
   48      H       3.7449893953    -3.9715796156     0.6152737838
   49      H       5.2637747432    -4.6960947810    -0.0497449343
   50      H      -2.8261609658    -4.1770247491    -0.9981751354
   51      H      -4.3371367702    -4.2643462426    -0.0054033094
   52      H      -2.8461379582    -3.5341862450     0.6930139936
   53      H      -0.4928033715    -0.0843885997     1.5369117004
   54      H       0.2277572841     1.5757441384     1.3966164056
   55      H       0.6837023611    -0.8181145428    -0.4249774743
   56      H       0.2981367545     0.7105899895    -1.2964632401
 ----------------------------------------------------------------

   10   -1510.2823010655      5.43E-09 Convergence criterion met
 Total energy in the final basis set = -1510.28230107
 Final energy is   -1510.28230106551
 **  OPTIMIZATION CONVERGED  **

                    Orbital Energies (a.u.)
 --------------------------------------------------------------

 Alpha MOs
 -- Occupied --
-18.942 -18.936 -18.923 -18.915 -18.891 -18.886 -18.885 -18.883
-18.864 -18.857 -10.106 -10.104 -10.094 -10.087 -10.070 -10.068
-10.064 -10.063 -10.061 -10.058 -10.053 -10.051 -10.042 -10.038
-10.036 -10.029 -10.023 -10.021 -10.018 -10.016  -1.019  -1.017
 -1.002  -0.994  -0.972  -0.967  -0.943  -0.942  -0.928  -0.920
 -0.765  -0.760  -0.726  -0.721  -0.713  -0.705  -0.691  -0.667
 -0.651  -0.613  -0.596  -0.575  -0.548  -0.541  -0.539  -0.534
 -0.515  -0.507  -0.484  -0.478  -0.463  -0.454  -0.451  -0.443
 -0.435  -0.429  -0.422  -0.416  -0.411  -0.403  -0.403  -0.398
 -0.391  -0.384  -0.379  -0.366  -0.359  -0.355  -0.348  -0.342
 -0.339  -0.337  -0.335  -0.330  -0.329  -0.328  -0.320  -0.314
 -0.310  -0.307  -0.304  -0.300  -0.296  -0.281  -0.280  -0.273
 -0.269  -0.261  -0.250  -0.243  -0.241  -0.236  -0.231  -0.185
 -0.181  -0.166  -0.161  -0.160  -0.159  -0.147  -0.143  -0.142
 -0.138

          Ground-State Mulliken Net Atomic Charges

     Atom                 Charge (a.u.)
  ----------------------------------------
      1 O                    -0.210332
      2 C                     0.211992
      3 C                    -0.079304
      4 C                    -0.080713
      5 C                     0.213455
      6 O                    -0.171031
      7 C                    -0.050623
      8 C                    -0.053523
      9 O                    -0.173300
     10 C                     0.216777
     11 C                    -0.076857
     12 C                    -0.081844
     13 C                     0.216282
     14 O                    -0.217884
     15 O                    -0.169587
     16 O                    -0.177354
     17 O                    -0.205213
     18 C                    -0.128269
     19 C                     0.024644
     20 C                    -0.144341
     21 C                    -0.143319
     22 C                     0.024195
     23 O                    -0.190477
     24 H                     0.087537
     25 H                     0.083212
     26 H                     0.086115
     27 H                     0.077856
     28 H                     0.073303
     29 H                     0.077647
     30 H                     0.072954
     31 H                     0.090100
     32 O                    -0.218553
     33 C                    -0.128551
     34 C                     0.026193
     35 C                    -0.142959
     36 C                    -0.144828
     37 C                     0.026984
     38 O                    -0.185530
     39 H                     0.086871
     40 H                     0.083771
     41 H                     0.091067
     42 H                     0.084651
     43 H                     0.078474
     44 H                     0.074234
     45 H                     0.078147
     46 H                     0.073803
     47 H                     0.085431
     48 H                     0.090179
     49 H                     0.091925
     50 H                     0.085371
     51 H                     0.086073
     52 H                     0.091017
     53 H                     0.101248
     54 H                     0.095633
     55 H                     0.093948
     56 H                     0.093303
  ----------------------------------------
  Sum of atomic charges =    -0.000000

                    Cartesian Multipole Moments
 -----------------------------------------------------------------
    Charge (ESU x 10^10)
                -0.0000
    Dipole Moment (Debye)
         X       3.0514      Y       0.3263      Z      -1.7231
       Tot       3.5194
    Quadrupole Moments (Debye-Ang)
        XX    -143.4365     XY      -6.2419     YY    -147.6351
        XZ      13.5334     YZ       0.0161     ZZ    -168.3595

 Total job time:  49.22s(wall), 2335.95s(cpu)
        *  Thank you very much for using Q-Chem.  Have a nice day.  *
