 Q-Chem 5.0, Q-Chem, Inc., Pleasanton, CA (2017)
 Q-Chem 5.0.1 for Intel X86 EM64T Linux

User input:
--------------------------------------------------------------
$molecule
0  1
O -3.94934 -3.66094 2.70899
C -3.26408 -4.56952 2.26188
C -3.36658 -6.02376 2.66595
C -4.13329 -6.341 3.96031
C -4.86336 -5.1874 4.61168
O -6.20948 -5.41722 4.58749
C -6.97243 -4.3566 5.1725
C -7.31369 -4.69148 6.62078
O -7.14326 -3.52791 7.44537
C -8.16243 -2.63394 7.41021
C -7.72711 -1.23128 7.76192
C -7.97155 -0.8247 9.22247
C -8.2701 -1.95839 10.18285
O -8.30492 -1.86456 11.40127
O -2.43503 -4.30667 1.21768
O -8.5365 -3.21867 9.74781
O -9.31449 -2.91991 7.10815
C -8.81343 -4.31467 10.54228
C -6.19769 -0.98743 7.67449
C -5.9188 0.50348 7.487
C -6.28737 1.03221 8.85585
C -6.57681 -0.28341 9.58622
O -5.72093 -1.21604 8.97556
H -8.19804 -0.55397 7.01448
H -8.7758 -0.06686 9.34358
H -5.70052 -1.56033 6.8615
H -4.81858 0.61123 7.35008
H -6.44028 0.98853 6.63404
H -5.39611 1.53922 9.28792
H -7.1657 1.71308 8.88258
H -6.44414 -0.14968 10.68272
O -4.29904 -4.27959 5.21378
C -2.25386 -3.05636 0.66455
C -4.12163 -6.87812 1.63597
C -3.66459 -8.33001 1.73971
C -4.28673 -8.72443 3.06151
C -5.06942 -7.44703 3.39588
O -5.43448 -6.93572 2.13694
H -2.31268 -6.37081 2.7645
H -3.47814 -6.77063 4.75041
H -1.85674 -2.35414 1.42848
H -4.01048 -6.51144 0.59196
H -4.1736 -8.89288 0.92457
H -2.5671 -8.48807 1.66539
H -4.98349 -9.57283 2.87904
H -3.5674 -8.99128 3.86565
H -5.90228 -7.71144 4.08318
H -3.21617 -2.67152 0.26423
H -1.52441 -3.1291 -0.16797
H -8.98559 -5.19778 9.89334
H -9.72822 -4.12973 11.14476
H -7.95453 -4.52709 11.21396
H -8.26937 -5.24281 6.76182
H -6.51677 -5.37841 6.97815
H -7.89473 -4.15545 4.58865
H -6.4258 -3.3854 5.13511
$end

$opt
CONSTRAINT
tors           1           2           3           4     -15.667
tors           3           4           5           6    +115.303
tors           4           5           6           7    -179.215
tors           5           6           7           8     -96.993
tors           6           7           8           9    +137.836
tors           7           8           9          10     +79.978
tors           8           9          10          11    -154.877
tors           9          10          11          12     -97.241
tors          11          12          13          14    +169.075
ENDCONSTRAINT
$end

$rem
JOBTYPE                   OPT
METHOD                    B3LYP
DFT_D                     d3_op
BASIS                     STO-3G
GEOM_OPT_MAX_CYCLES       100
GEOM_OPT_TOL_GRADIENT     300
GEOM_OPT_TOL_DISPLACEMENT 1200
GEOM_OPT_TOL_ENERGY       100
SYMMETRY                  False
THRESH                    12
SCF_CONVERGENCE           8
MAX_SUB_FILE_NUM          128
MEM_STATIC                400
MEM_TOTAL                 4000
$end
--------------------------------------------------------------

   15   -1510.1353214928      9.60E-09 Convergence criterion met
 Total energy in the final basis set = -1510.13532149
   13   -1510.2078029117      6.75E-09 Convergence criterion met
 Total energy in the final basis set = -1510.20780291
   13   -1510.2470312112      9.91E-09 Convergence criterion met
 Total energy in the final basis set = -1510.24703121
   13   -1510.2644897993      7.78E-09 Convergence criterion met
 Total energy in the final basis set = -1510.26448980
   14   -1510.2697097801      3.96E-09 Convergence criterion met
 Total energy in the final basis set = -1510.26970978
   13   -1510.2727308069      3.96E-09 Convergence criterion met
 Total energy in the final basis set = -1510.27273081
   12   -1510.2738553560      8.46E-09 Convergence criterion met
 Total energy in the final basis set = -1510.27385536
   13   -1510.2747190461      3.40E-09 Convergence criterion met
   11   -1510.2759014067      9.35E-09 Convergence criterion met
 Total energy in the final basis set = -1510.27590141
   11   -1510.2759454211      6.47E-09 Convergence criterion met
 Total energy in the final basis set = -1510.27594542
   11   -1510.2759707954      4.09E-09 Convergence criterion met
 Total energy in the final basis set = -1510.27597080
    9   -1510.2759827389      9.81E-09 Convergence criterion met
 Total energy in the final basis set = -1510.27598274
    9   -1510.2759933220      9.52E-09 Convergence criterion met
 Total energy in the final basis set = -1510.27599332
    9   -1510.2759960851      7.98E-09 Convergence criterion met
 Total energy in the final basis set = -1510.27599609

             Standard Nuclear Orientation (Angstroms)
    I     Atom           X                Y                Z
 ----------------------------------------------------------------
    1      O       3.1980732409    -1.4608050157     0.9491300174
    2      C       4.2029819811    -1.4769566418     0.2031699261
    3      C       4.7161897594    -0.3124191480    -0.7077342851
    4      C       3.6197167030     0.8102977577    -0.9192120154
    5      C       2.1764595076     0.3722428539    -0.4676012321
    6      O       1.7486567660     1.1814842589     0.6371644388
    7      C       0.4003031993     0.7622218851     1.0786139533
    8      C      -0.7207079918     1.6826940473     0.4432112714
    9      O      -1.8747655804     0.8746765182    -0.0086237301
   10      C      -2.7167063065     0.5482207312     1.1143314821
   11      C      -3.5258859532    -0.7688332638     0.8086429090
   12      C      -5.0114883395    -0.6045661077     0.2737375229
   13      C      -5.4728252492     0.8305050248    -0.1741693344
   14      O      -6.5281084320     1.0936221471    -0.7914498606
   15      O       5.1002042465    -2.5828973088     0.0866477739
   16      O      -4.5167768975     1.8169719239     0.2094103799
   17      O      -2.6471665832     1.1152758129     2.2267375359
   18      C      -4.9265438236     3.1590075540    -0.2588374037
   19      C      -2.8930225517    -1.6721109830    -0.3383196550
   20      C      -3.3775304009    -3.1569374253    -0.1054427778
   21      C      -4.8852193631    -3.0528656233    -0.5420568281
   22      C      -4.9672126513    -1.5457567820    -1.0073804521
   23      O      -3.6228266200    -1.2676899207    -1.5622305875
   24      H      -3.5524645347    -1.3222196186     1.7647084468
   25      H      -5.7429232576    -0.9726612155     1.0171160809
   26      H      -1.8030135764    -1.5384618493    -0.4776727218
   27      H      -2.8170289335    -3.8479800784    -0.7551577935
   28      H      -3.2553680452    -3.4787234385     0.9410885476
   29      H      -5.1127822954    -3.7282892601    -1.3819479607
   30      H      -5.5836264686    -3.2683452537     0.2824640032
   31      H      -5.7558094994    -1.3198076377    -1.7515603917
   32      O       1.4536437492    -0.4763197300    -1.0356169785
   33      C       4.6607502686    -3.6868738310     0.9726931512
   34      C       5.8254710485     0.5127401572     0.0793538677
   35      C       6.4962687918     1.5479305389    -0.9085567561
   36      C       5.3838755836     2.6587891892    -0.9906374577
   37      C       4.2507523608     2.0145727213    -0.0996430215
   38      O       5.0128769524     1.3531244383     0.9862845226
   39      H       5.0974065987    -0.7253928309    -1.6582205674
   40      H       3.5516990507     1.0638739208    -1.9930779011
   41      H       3.6410580698    -4.0365276917     0.7116150270
   42      H       6.5333287463    -0.1157081388     0.6542063593
   43      H       7.4323798115     1.9398261695    -0.4802242816
   44      H       6.7188483459     1.0960681331    -1.8885758358
   45      H       5.7288794503     3.6065940417    -0.5473914041
   46      H       5.0476319939     2.8524208288    -2.0217139364
   47      H       3.5078310425     2.7179899590     0.3214936931
   48      H       4.6661771885    -3.3807577032     2.0388509681
   49      H       5.3851326302    -4.5076913150     0.8191706519
   50      H      -4.1431655219     3.8546224049     0.0941432774
   51      H      -5.9080296870     3.4546079352     0.1648117368
   52      H      -4.9904906812     3.1988387695    -1.3654785661
   53      H      -1.0401012976     2.4630285518     1.1655376858
   54      H      -0.3178126422     2.1684605255    -0.4689439776
   55      H       0.3853164811     0.8296812655     2.1844300549
   56      H       0.2178530116    -0.2859253061     0.7568595302
 ----------------------------------------------------------------

    9   -1510.2759967628      2.83E-09 Convergence criterion met
 Total energy in the final basis set = -1510.27599676
 Final energy is   -1510.27599676277
 **  OPTIMIZATION CONVERGED  **

                    Orbital Energies (a.u.)
 --------------------------------------------------------------

 Alpha MOs
 -- Occupied --
-18.943 -18.940 -18.925 -18.917 -18.887 -18.882 -18.881 -18.873
-18.862 -18.860 -10.103 -10.101 -10.094 -10.093 -10.068 -10.067
-10.062 -10.062 -10.059 -10.057 -10.056 -10.053 -10.040 -10.037
-10.035 -10.031 -10.021 -10.019 -10.017 -10.015  -1.017  -1.015
 -1.004  -0.997  -0.970  -0.965  -0.941  -0.937  -0.929  -0.924
 -0.763  -0.758  -0.724  -0.720  -0.712  -0.702  -0.686  -0.666
 -0.663  -0.612  -0.596  -0.578  -0.546  -0.540  -0.537  -0.533
 -0.512  -0.507  -0.483  -0.477  -0.468  -0.460  -0.447  -0.439
 -0.434  -0.430  -0.422  -0.415  -0.413  -0.409  -0.405  -0.398
 -0.388  -0.377  -0.375  -0.371  -0.359  -0.356  -0.350  -0.346
 -0.338  -0.336  -0.331  -0.329  -0.327  -0.322  -0.318  -0.311
 -0.309  -0.303  -0.303  -0.299  -0.296  -0.290  -0.280  -0.278
 -0.273  -0.258  -0.249  -0.239  -0.233  -0.232  -0.228  -0.184
 -0.181  -0.176  -0.158  -0.154  -0.154  -0.148  -0.143  -0.142
 -0.137

          Ground-State Mulliken Net Atomic Charges

     Atom                 Charge (a.u.)
  ----------------------------------------
      1 O                    -0.208035
      2 C                     0.213830
      3 C                    -0.077874
      4 C                    -0.080534
      5 C                     0.214912
      6 O                    -0.172315
      7 C                    -0.054601
      8 C                    -0.051898
      9 O                    -0.173094
     10 C                     0.218576
     11 C                    -0.081601
     12 C                    -0.077682
     13 C                     0.213030
     14 O                    -0.215333
     15 O                    -0.168984
     16 O                    -0.163978
     17 O                    -0.222393
     18 C                    -0.124299
     19 C                     0.025021
     20 C                    -0.143864
     21 C                    -0.144638
     22 C                     0.024410
     23 O                    -0.189035
     24 H                     0.082891
     25 H                     0.085325
     26 H                     0.092029
     27 H                     0.077953
     28 H                     0.072467
     29 H                     0.077842
     30 H                     0.072891
     31 H                     0.086806
     32 O                    -0.221543
     33 C                    -0.128344
     34 C                     0.025202
     35 C                    -0.144283
     36 C                    -0.143593
     37 C                     0.024148
     38 O                    -0.189411
     39 H                     0.087775
     40 H                     0.083267
     41 H                     0.091479
     42 H                     0.083619
     43 H                     0.078210
     44 H                     0.073975
     45 H                     0.077794
     46 H                     0.073146
     47 H                     0.092414
     48 H                     0.090261
     49 H                     0.091519
     50 H                     0.093784
     51 H                     0.091697
     52 H                     0.092455
     53 H                     0.091754
     54 H                     0.087370
     55 H                     0.090907
     56 H                     0.098572
  ----------------------------------------
  Sum of atomic charges =     0.000000

                    Cartesian Multipole Moments
 -----------------------------------------------------------------
    Charge (ESU x 10^10)
                 0.0000
    Dipole Moment (Debye)
         X       2.0316      Y      -0.6195      Z      -0.2907
       Tot       2.1438
    Quadrupole Moments (Debye-Ang)
        XX    -150.9224     XY       0.8764     YY    -144.0455
        XZ      -9.4068     YZ      -8.2385     ZZ    -166.0147

 Total job time:  51.21s(wall), 2431.05s(cpu)
        *  Thank you very much for using Q-Chem.  Have a nice day.  *
