 Q-Chem 5.0, Q-Chem, Inc., Pleasanton, CA (2017)
 Q-Chem 5.0.1 for Intel X86 EM64T Linux

User input:
--------------------------------------------------------------
$molecule
0  1
O 3.1980732409 -1.4608050157 0.9491300174
C 4.2029819811 -1.4769566418 0.2031699261
C 4.7161897594 -0.312419148 -0.7077342851
C 3.619716703 0.8102977577 -0.9192120154
C 2.1764595076 0.3722428539 -0.4676012321
O 1.748656766 1.1814842589 0.6371644388
C 0.4003031993 0.7622218851 1.0786139533
C -0.7207079918 1.6826940473 0.4432112714
O -1.8747655804 0.8746765182 -0.0086237301
C -2.7167063065 0.5482207312 1.1143314821
C -3.5258859532 -0.7688332638 0.808642909
C -5.0114883395 -0.6045661077 0.2737375229
C -5.4728252492 0.8305050248 -0.1741693344
O -6.528108432 1.0936221471 -0.7914498606
O 5.1002042465 -2.5828973088 0.0866477739
O -4.5167768975 1.8169719239 0.2094103799
O -2.6471665832 1.1152758129 2.2267375359
C -4.9265438236 3.159007554 -0.2588374037
C -2.8930225517 -1.672110983 -0.338319655
C -3.3775304009 -3.1569374253 -0.1054427778
C -4.8852193631 -3.0528656233 -0.5420568281
C -4.9672126513 -1.545756782 -1.0073804521
O -3.62282662 -1.2676899207 -1.5622305875
H -3.5524645347 -1.3222196186 1.7647084468
H -5.7429232576 -0.9726612155 1.0171160809
H -1.8030135764 -1.5384618493 -0.4776727218
H -2.8170289335 -3.8479800784 -0.7551577935
H -3.2553680452 -3.4787234385 0.9410885476
H -5.1127822954 -3.7282892601 -1.3819479607
H -5.5836264686 -3.2683452537 0.2824640032
H -5.7558094994 -1.3198076377 -1.7515603917
O 1.4536437492 -0.47631973 -1.0356169785
C 4.6607502686 -3.686873831 0.9726931512
C 5.8254710485 0.5127401572 0.0793538677
C 6.4962687918 1.5479305389 -0.9085567561
C 5.3838755836 2.6587891892 -0.9906374577
C 4.2507523608 2.0145727213 -0.0996430215
O 5.0128769524 1.3531244383 0.9862845226
H 5.0974065987 -0.7253928309 -1.6582205674
H 3.5516990507 1.0638739208 -1.9930779011
H 3.6410580698 -4.0365276917 0.711615027
H 6.5333287463 -0.1157081388 0.6542063593
H 7.4323798115 1.9398261695 -0.4802242816
H 6.7188483459 1.0960681331 -1.8885758358
H 5.7288794503 3.6065940417 -0.5473914041
H 5.0476319939 2.8524208288 -2.0217139364
H 3.5078310425 2.717989959 0.3214936931
H 4.6661771885 -3.3807577032 2.0388509681
H 5.3851326302 -4.507691315 0.8191706519
H -4.1431655219 3.8546224049 0.0941432774
H -5.908029687 3.4546079352 0.1648117368
H -4.9904906812 3.1988387695 -1.3654785661
H -1.0401012976 2.4630285518 1.1655376858
H -0.3178126422 2.1684605255 -0.4689439776
H 0.3853164811 0.8296812655 2.1844300549
H 0.2178530116 -0.2859253061 0.7568595302
$end

$rem
JOBTYPE                   OPT
METHOD                    B3LYP
DFT_D                     d3_op
BASIS                     STO-3G
GEOM_OPT_MAX_CYCLES       100
GEOM_OPT_TOL_GRADIENT     300
GEOM_OPT_TOL_DISPLACEMENT 1200
GEOM_OPT_TOL_ENERGY       100
SYMMETRY                  False
THRESH                    12
SCF_CONVERGENCE           8
MAX_SUB_FILE_NUM          128
MEM_STATIC                400
MEM_TOTAL                 4000
$end
--------------------------------------------------------------

   16   -1510.2760092171      5.47E-09 Convergence criterion met
 Total energy in the final basis set = -1510.27600922
   14   -1510.2779872566      8.11E-09 Convergence criterion met
 Total energy in the final basis set = -1510.27798726
   14   -1510.2797682693      6.81E-09 Convergence criterion met
 Total energy in the final basis set = -1510.27976827
   14   -1510.2805554688      8.34E-09 Convergence criterion met
 Total energy in the final basis set = -1510.28055547
   13   -1510.2812136336      8.48E-09 Convergence criterion met
 Total energy in the final basis set = -1510.28121363
   13   -1510.2819603616      4.95E-09 Convergence criterion met
 Total energy in the final basis set = -1510.28196036
   13   -1510.2826311727      3.90E-09 Convergence criterion met
 Total energy in the final basis set = -1510.28263117
   13   -1510.2834058385      3.63E-09 Convergence criterion met
   12   -1510.2874907824      6.87E-09 Convergence criterion met
 Total energy in the final basis set = -1510.28749078
   12   -1510.2875027874      5.91E-09 Convergence criterion met
 Total energy in the final basis set = -1510.28750279
   11   -1510.2875246808      7.17E-09 Convergence criterion met
 Total energy in the final basis set = -1510.28752468
   10   -1510.2875378463      6.02E-09 Convergence criterion met
 Total energy in the final basis set = -1510.28753785
   10   -1510.2875451935      8.01E-09 Convergence criterion met
 Total energy in the final basis set = -1510.28754519
   10   -1510.2875513229      5.63E-09 Convergence criterion met
 Total energy in the final basis set = -1510.28755132

             Standard Nuclear Orientation (Angstroms)
    I     Atom           X                Y                Z
 ----------------------------------------------------------------
    1      O      -3.3879732867     1.8279179209     0.5194285206
    2      C      -4.5030200818     1.2685110349     0.4215116259
    3      C      -4.9174859718     0.1443300475    -0.5880062883
    4      C      -3.6968557623    -0.4298828291    -1.4182496839
    5      C      -2.3212421797     0.2749178779    -1.1313639022
    6      O      -1.7197251812    -0.3117090101     0.0343542440
    7      C      -0.4208796934     0.3448949194     0.3092420383
    8      C       0.7306003846    -0.7242720617     0.2288903927
    9      O       2.0484870930    -0.0865306161    -0.0042088741
   10      C       2.5429766028     0.5230837640     1.1967175847
   11      C       3.9192500320     1.1881864955     0.8600444245
   12      C       4.9226042269     0.2187998505     0.1053711978
   13      C       4.3663927379    -1.2361166508    -0.0941887339
   14      O       4.2934067970    -1.8877003453    -1.1564249893
   15      O      -5.6314258581     1.5830955040     1.2388944307
   16      O       3.9861045907    -1.7444040311     1.1942181229
   17      O       1.9349079634     0.5320255058     2.2881957556
   18      C       3.4318821737    -3.1097263312     1.0569491923
   19      C       3.7489652003     2.3315017357    -0.2350401104
   20      C       5.0808266786     3.1821425968    -0.2781968072
   21      C       6.0427367085     2.2073655165    -1.0551740797
   22      C       5.0945067006     0.9664233687    -1.2809704933
   23      O       3.7672802675     1.5834406347    -1.5106134437
   24      H       4.3500399807     1.5777143305     1.7986609012
   25      H       5.8819202465     0.1513346743     0.6508982260
   26      H       2.8159496141     2.9208999609    -0.1428044965
   27      H       4.9201952340     4.1203016230    -0.8331548620
   28      H       5.4473735499     3.4273239888     0.7314539564
   29      H       6.3566329388     2.6349487270    -2.0206232464
   30      H       6.9414233740     1.9429868983    -0.4752546255
   31      H       5.3586295653     0.2951902762    -2.1213230091
   32      O      -1.7708287952     1.1360510819    -1.8532864329
   33      C      -5.2752891715     2.6414542109     2.2126153308
   34      C      -5.4234182828    -1.1658655158     0.1567195223
   35      C      -6.1541883849    -2.0875574292    -0.8973310812
   36      C      -4.9285355875    -2.6649701504    -1.6972071585
   37      C      -3.7234770418    -1.9529783421    -0.9643480548
   38      O      -4.1674613788    -1.8922405075     0.4479600003
   39      H      -5.7020046995     0.5518436618    -1.2521479971
   40      H      -3.8876669562    -0.3288341267    -2.5013171080
   41      H      -4.9440518050     3.5692810480     1.7031968085
   42      H      -5.9881676297    -0.9634005107     1.0874722748
   43      H      -6.7166537128    -2.8851064036    -0.3862946346
   44      H      -6.8492237367    -1.5184797310    -1.5353822360
   45      H      -4.8533786504    -3.7584391040    -1.5860498501
   46      H      -4.9657473211    -2.4205567902    -2.7707362038
   47      H      -2.7492125697    -2.4725441749    -1.0408588767
   48      H      -4.4697152025     2.3087784402     2.8987911359
   49      H      -6.1951172923     2.8434487200     2.7917230379
   50      H       3.0345471862    -3.3814620258     2.0522916248
   51      H       4.2140347678    -3.8387483344     0.7603023840
   52      H       2.6170652842    -3.1458632648     0.3060396901
   53      H       0.7473805169    -1.3413767278     1.1520917489
   54      H       0.5640323124    -1.3800316523    -0.6497779173
   55      H      -0.4563778914     0.7962855181     1.3216735325
   56      H      -0.2590902759     1.1345297989    -0.4576943652
 ----------------------------------------------------------------

    9   -1510.2875505569      5.05E-09 Convergence criterion met
 Total energy in the final basis set = -1510.28755056
 Final energy is   -1510.28755055689
 **  OPTIMIZATION CONVERGED  **

                    Orbital Energies (a.u.)
 --------------------------------------------------------------

 Alpha MOs
 -- Occupied --
-18.942 -18.929 -18.929 -18.919 -18.888 -18.885 -18.884 -18.872
-18.871 -18.862 -10.105 -10.096 -10.096 -10.091 -10.068 -10.065
-10.062 -10.060 -10.059 -10.058 -10.054 -10.052 -10.040 -10.035
-10.034 -10.034 -10.021 -10.019 -10.018 -10.017  -1.018  -1.012
 -1.002  -0.998  -0.970  -0.966  -0.942  -0.933  -0.932  -0.924
 -0.763  -0.761  -0.725  -0.722  -0.710  -0.703  -0.688  -0.666
 -0.660  -0.610  -0.595  -0.578  -0.545  -0.543  -0.537  -0.534
 -0.512  -0.508  -0.482  -0.475  -0.464  -0.461  -0.446  -0.439
 -0.433  -0.429  -0.426  -0.415  -0.413  -0.408  -0.404  -0.396
 -0.386  -0.378  -0.376  -0.365  -0.359  -0.354  -0.352  -0.346
 -0.340  -0.337  -0.331  -0.329  -0.327  -0.323  -0.322  -0.314
 -0.306  -0.305  -0.302  -0.298  -0.290  -0.287  -0.281  -0.276
 -0.271  -0.259  -0.250  -0.248  -0.236  -0.232  -0.230  -0.185
 -0.179  -0.173  -0.160  -0.156  -0.153  -0.147  -0.145  -0.143
 -0.140

          Ground-State Mulliken Net Atomic Charges

     Atom                 Charge (a.u.)
  ----------------------------------------
      1 O                    -0.205735
      2 C                     0.214796
      3 C                    -0.077850
      4 C                    -0.081119
      5 C                     0.215544
      6 O                    -0.173496
      7 C                    -0.058767
      8 C                    -0.049247
      9 O                    -0.169431
     10 C                     0.212550
     11 C                    -0.078737
     12 C                    -0.078281
     13 C                     0.216284
     14 O                    -0.212217
     15 O                    -0.169567
     16 O                    -0.175014
     17 O                    -0.214560
     18 C                    -0.128949
     19 C                     0.025960
     20 C                    -0.143887
     21 C                    -0.143904
     22 C                     0.024732
     23 O                    -0.184947
     24 H                     0.084975
     25 H                     0.083676
     26 H                     0.083204
     27 H                     0.078027
     28 H                     0.073333
     29 H                     0.077959
     30 H                     0.072564
     31 H                     0.090325
     32 O                    -0.217862
     33 C                    -0.128031
     34 C                     0.024875
     35 C                    -0.143916
     36 C                    -0.144220
     37 C                     0.026726
     38 O                    -0.187545
     39 H                     0.086605
     40 H                     0.084131
     41 H                     0.091081
     42 H                     0.087774
     43 H                     0.078088
     44 H                     0.073581
     45 H                     0.077686
     46 H                     0.073815
     47 H                     0.085330
     48 H                     0.091883
     49 H                     0.091911
     50 H                     0.090346
     51 H                     0.086563
     52 H                     0.089694
     53 H                     0.089194
     54 H                     0.088808
     55 H                     0.091589
     56 H                     0.103671
  ----------------------------------------
  Sum of atomic charges =     0.000000

                    Cartesian Multipole Moments
 -----------------------------------------------------------------
    Charge (ESU x 10^10)
                 0.0000
    Dipole Moment (Debye)
         X      -1.2085      Y      -0.0997      Z       0.8137
       Tot       1.4602
    Quadrupole Moments (Debye-Ang)
        XX    -130.7497     XY       2.6628     YY    -151.7600
        XZ       5.8617     YZ       5.1704     ZZ    -165.2209

 Total job time:  70.81s(wall), 3370.04s(cpu)
        *  Thank you very much for using Q-Chem.  Have a nice day.  *
