 Q-Chem 5.0, Q-Chem, Inc., Pleasanton, CA (2017)
 Q-Chem 5.0.1 for Intel X86 EM64T Linux

User input:
--------------------------------------------------------------
$molecule
0  1
O 3.1578752095 -1.730521279 -0.3517206449
C 4.3443015771 -1.4270460621 -0.6070123451
C 5.0653147473 -0.066133447 -0.3398324976
C 4.1077059995 1.1972005632 -0.4354437183
C 2.6049384278 0.8142936996 -0.689111723
O 1.9378557631 0.6350654074 0.5660279628
C 0.5474189204 0.1775030683 0.3391691209
C -0.4429677861 1.0901315198 1.1577941636
O -1.6432099927 1.4281528057 0.3517851117
C -2.5714049123 0.3382016414 0.3647937983
C -3.5973213597 0.5221487151 -0.8109941617
C -4.8889152158 -0.3665814955 -0.6097621003
C -4.7362383489 -1.5203281851 0.4480662868
O -5.3582886698 -1.6532602916 1.5231641859
O 5.298135929 -2.3346247571 -1.1683205941
O -3.9049804363 -2.5346893574 -0.1408639133
O -2.5508152601 -0.5912762448 1.2032399704
C -3.69742755 -3.6321651674 0.8282961724
C -4.2364616232 1.972643389 -0.7207579968
C -5.178068848 2.2173260523 -1.9672290679
C -6.4604198979 1.401651014 -1.5558631937
C -5.9637003593 0.7313630008 -0.2174203563
O -5.1738786051 1.8137883172 0.4174108027
H -3.0871093491 0.3299268903 -1.7724790608
H -5.1596205324 -0.847558052 -1.5671951178
H -3.5009453064 2.7739330505 -0.5147168942
H -5.3969384595 3.2906080651 -2.0827681261
H -4.7240554761 1.8477992883 -2.9007816373
H -7.3139643251 2.0694706398 -1.3571739935
H -6.7585406269 0.6595785672 -2.3137624408
H -6.7522627695 0.3707005849 0.4714904879
O 2.046942958 0.7114947842 -1.804972525
C 4.66826543 -3.6572196332 -1.3934223731
C 5.5913824457 0.0653157598 1.1598876368
C 6.6808849743 1.2084204358 1.1837885205
C 5.7750312402 2.4873347221 1.0409442254
C 4.332947114 1.8417562738 0.9968609891
O 4.4495695427 0.6609790966 1.8842116154
H 5.9056842981 0.0151106098 -1.0515706654
H 4.4259316055 1.8681494522 -1.2529356216
H 3.8049994821 -3.5846985795 -2.0858633318
H 5.8960826913 -0.8911142194 1.627469467
H 7.2220443432 1.201328026 2.1433752682
H 7.4100040123 1.1062474202 0.3644796185
H 5.8731549455 3.1509103643 1.9145928409
H 5.9966259888 3.0673238874 0.1306903147
H 3.5098736087 2.4989258947 1.3365737302
H 4.3194239921 -4.110172845 -0.4428655914
H 5.451461257 -4.2954325763 -1.842115609
H -3.1180625968 -4.4089544467 0.2960295098
H -4.6596807232 -4.0588563287 1.1784854039
H -3.1241350091 -3.2818224491 1.7110867495
H -0.7374060077 0.5986087663 2.1083632995
H 0.0509449058 2.0577884351 1.380532422
H 0.465946798 -0.8827992958 0.6564845107
H 0.332131047 0.2524867503 -0.750791541
$end

$rem
JOBTYPE                   OPT
METHOD                    B3LYP
DFT_D                     d3_op
BASIS                     STO-3G
GEOM_OPT_MAX_CYCLES       100
GEOM_OPT_TOL_GRADIENT     300
GEOM_OPT_TOL_DISPLACEMENT 1200
GEOM_OPT_TOL_ENERGY       100
SYMMETRY                  False
THRESH                    12
SCF_CONVERGENCE           8
MAX_SUB_FILE_NUM          128
MEM_STATIC                400
MEM_TOTAL                 4000
$end
--------------------------------------------------------------

   16   -1510.2806306698      6.74E-09 Convergence criterion met
 Total energy in the final basis set = -1510.28063067
   14   -1510.2826710941      1.73E-09 Convergence criterion met
 Total energy in the final basis set = -1510.28267109
   14   -1510.2838833724      1.83E-09 Convergence criterion met
 Total energy in the final basis set = -1510.28388337
   13   -1510.2846689421      4.54E-09 Convergence criterion met
 Total energy in the final basis set = -1510.28466894
   13   -1510.2852146900      6.00E-09 Convergence criterion met
 Total energy in the final basis set = -1510.28521469
   13   -1510.2856935820      4.54E-09 Convergence criterion met
 Total energy in the final basis set = -1510.28569358
   13   -1510.2861172036      3.74E-09 Convergence criterion met
 Total energy in the final basis set = -1510.28611720
   13   -1510.2864043230      3.53E-09 Convergence criterion met
   12   -1510.2876082334      2.67E-09 Convergence criterion met
 Total energy in the final basis set = -1510.28760823
    9   -1510.2876128714      9.12E-09 Convergence criterion met
 Total energy in the final basis set = -1510.28761287
   10   -1510.2876113278      5.48E-09 Convergence criterion met
 Total energy in the final basis set = -1510.28761133
    9   -1510.2876140972      7.58E-09 Convergence criterion met
 Total energy in the final basis set = -1510.28761410
    9   -1510.2876151725      9.44E-09 Convergence criterion met
 Total energy in the final basis set = -1510.28761517
   10   -1510.2876172658      4.28E-09 Convergence criterion met
 Total energy in the final basis set = -1510.28761727

             Standard Nuclear Orientation (Angstroms)
    I     Atom           X                Y                Z
 ----------------------------------------------------------------
    1      O       2.9999972887    -1.5890586955    -1.2660735552
    2      C       4.0939922114    -1.5686346554    -0.6585219777
    3      C       5.0060223147    -0.3245976652    -0.3907467980
    4      C       4.3079203031     1.0483895946    -0.7586000467
    5      C       2.8444401685     0.9080804109    -1.3152714217
    6      O       1.9450398607     0.7142994227    -0.2111125608
    7      C       0.5560441127     0.5737285754    -0.7032607553
    8      C      -0.3114775396     1.7547086046    -0.1319204885
    9      O      -1.6766520584     1.7573926963    -0.7181544818
   10      C      -2.4785855822     0.7343011844    -0.1252853358
   11      C      -3.8976337696     0.7676834529    -0.7824300987
   12      C      -4.7634864417    -0.5106957740    -0.4356226830
   13      C      -4.0147095877    -1.5883536577     0.4348973087
   14      O      -4.2396990211    -1.8877390951     1.6261721721
   15      O       4.7178485296    -2.7244929055    -0.0972750938
   16      O      -3.1063862541    -2.2935624299    -0.4266502142
   17      O      -2.0871145819    -0.0326381222     0.7838025824
   18      C      -2.3242629473    -3.2683934902     0.3643506547
   19      C      -4.7963940591     1.9153313915    -0.1401664172
   20      C      -6.0745790159     2.1136076229    -1.0482726369
   21      C      -6.9282927468     0.8507451051    -0.6547391015
   22      C      -5.9619857977     0.1412092717     0.3708038581
   23      O      -5.3264776646     1.2754623835     1.0834038279
   24      H      -3.7793681725     0.9101696036    -1.8713803497
   25      H      -5.1117128878    -1.0022608219    -1.3618039453
   26      H      -4.2437622039     2.8425346057     0.1077556465
   27      H      -6.5912748577     3.0503962870    -0.7855696927
   28      H      -5.8202800569     2.1388765922    -2.1198903131
   29      H      -7.8694473701     1.1393406464    -0.1604043423
   30      H      -7.1644978133     0.2093045925    -1.5189211141
   31      H      -6.4420347621    -0.5453814805     1.0946047305
   32      O       2.4849611618     1.0497110239    -2.5049788337
   33      C       3.8723684788    -3.9196134559    -0.3277254612
   34      C       5.3017146418    -0.1153646790     1.1571302956
   35      C       6.5197307098     0.8805393698     1.2954226930
   36      C       5.8342138911     2.2484713871     0.9267463360
   37      C       4.3496033381     1.7823904116     0.6507949181
   38      O       4.1445849907     0.6813500180     1.6203413743
   39      H       5.9467802225    -0.4625147570    -0.9550895327
   40      H       4.8934983963     1.5918169149    -1.5207254990
   41      H       3.7407202861    -4.1230380442    -1.4101841655
   42      H       5.3864686187    -1.0592311264     1.7298524115
   43      H       6.8982389747     0.8839474813     2.3300864080
   44      H       7.3474685513     0.6200358068     0.6166450418
   45      H       5.8648660402     2.9558714493     1.7705465560
   46      H       6.2887660706     2.7286704861     0.0454209967
   47      H       3.5762492565     2.5629957628     0.7834832556
   48      H       2.8705691627    -3.8041430887     0.1339282772
   49      H       4.4045306096    -4.7647929964     0.1462869083
   50      H      -1.7218676207    -3.8444877419    -0.3620759517
   51      H      -2.9808962709    -3.9568019741     0.9345659278
   52      H      -1.6505465932    -2.7515013420     1.0786634081
   53      H      -0.3582303596     1.6848524737     0.9757663143
   54      H       0.1361123440     2.7264905046    -0.4220046782
   55      H       0.1532677005    -0.3958598679    -0.3443640651
   56      H       0.5615018631     0.6001897651    -1.8147047504
 ----------------------------------------------------------------

   10   -1510.2876182062      4.17E-09 Convergence criterion met
 Total energy in the final basis set = -1510.28761821
 Final energy is   -1510.28761820622
 **  OPTIMIZATION CONVERGED  **

                    Orbital Energies (a.u.)
 --------------------------------------------------------------

 Alpha MOs
 -- Occupied --
-18.944 -18.938 -18.922 -18.916 -18.889 -18.886 -18.884 -18.882
-18.865 -18.858 -10.107 -10.103 -10.094 -10.087 -10.070 -10.070
-10.062 -10.061 -10.059 -10.058 -10.054 -10.052 -10.042 -10.037
-10.036 -10.030 -10.022 -10.021 -10.019 -10.017  -1.020  -1.016
 -1.002  -0.994  -0.971  -0.967  -0.944  -0.940  -0.928  -0.921
 -0.765  -0.760  -0.726  -0.722  -0.713  -0.705  -0.691  -0.667
 -0.652  -0.615  -0.596  -0.578  -0.547  -0.542  -0.539  -0.534
 -0.514  -0.508  -0.485  -0.474  -0.464  -0.456  -0.450  -0.442
 -0.435  -0.433  -0.427  -0.417  -0.410  -0.404  -0.401  -0.397
 -0.388  -0.383  -0.380  -0.365  -0.357  -0.355  -0.349  -0.345
 -0.338  -0.336  -0.334  -0.333  -0.329  -0.328  -0.323  -0.315
 -0.309  -0.307  -0.302  -0.300  -0.293  -0.285  -0.278  -0.274
 -0.270  -0.261  -0.255  -0.242  -0.238  -0.235  -0.231  -0.188
 -0.185  -0.163  -0.162  -0.159  -0.155  -0.149  -0.145  -0.142
 -0.138

          Ground-State Mulliken Net Atomic Charges

     Atom                 Charge (a.u.)
  ----------------------------------------
      1 O                    -0.206731
      2 C                     0.214874
      3 C                    -0.078113
      4 C                    -0.080995
      5 C                     0.215414
      6 O                    -0.172699
      7 C                    -0.057013
      8 C                    -0.049780
      9 O                    -0.170296
     10 C                     0.214301
     11 C                    -0.078214
     12 C                    -0.081169
     13 C                     0.215987
     14 O                    -0.215624
     15 O                    -0.169015
     16 O                    -0.177655
     17 O                    -0.207906
     18 C                    -0.129108
     19 C                     0.025330
     20 C                    -0.143682
     21 C                    -0.144040
     22 C                     0.024833
     23 O                    -0.188692
     24 H                     0.087366
     25 H                     0.083425
     26 H                     0.083864
     27 H                     0.077852
     28 H                     0.073720
     29 H                     0.077828
     30 H                     0.073145
     31 H                     0.089613
     32 O                    -0.219040
     33 C                    -0.127896
     34 C                     0.025073
     35 C                    -0.143662
     36 C                    -0.144421
     37 C                     0.027038
     38 O                    -0.186315
     39 H                     0.086655
     40 H                     0.083959
     41 H                     0.090535
     42 H                     0.088514
     43 H                     0.078500
     44 H                     0.073556
     45 H                     0.078181
     46 H                     0.073645
     47 H                     0.084640
     48 H                     0.092023
     49 H                     0.092360
     50 H                     0.085264
     51 H                     0.087424
     52 H                     0.090743
     53 H                     0.094445
     54 H                     0.088379
     55 H                     0.091764
     56 H                     0.101818
  ----------------------------------------
  Sum of atomic charges =     0.000000

                    Cartesian Multipole Moments
 -----------------------------------------------------------------
    Charge (ESU x 10^10)
                -0.0000
    Dipole Moment (Debye)
         X       2.3435      Y      -0.0749      Z      -1.7061
       Tot       2.8997
    Quadrupole Moments (Debye-Ang)
        XX    -137.5750     XY      -3.2870     YY    -146.5965
        XZ      12.8491     YZ       1.5505     ZZ    -171.5851

 Total job time:  66.69s(wall), 3170.52s(cpu)
        *  Thank you very much for using Q-Chem.  Have a nice day.  *
