 Q-Chem 5.0, Q-Chem, Inc., Pleasanton, CA (2017)
 Q-Chem 5.0.1 for Intel X86 EM64T Linux

User input:
--------------------------------------------------------------
$molecule
0  1
O -3.94934 -3.66094 2.70899
C -3.26408 -4.56952 2.26188
C -3.36658 -6.02376 2.66595
C -3.78613 -6.3226 4.11458
C -4.22832 -5.13914 4.94643
O -5.57461 -4.95357 4.81052
C -6.05498 -3.7921 5.4957
C -7.24957 -4.15508 6.37167
O -7.14293 -3.49493 7.64277
C -7.52504 -2.19382 7.65797
C -7.02119 -1.44676 8.86987
C -7.7441 -0.12363 9.16144
C -9.06218 0.08163 8.44225
O -10.15435 0.189 8.98095
O -2.22256 -4.25509 1.4472
O -8.98525 0.41901 7.12758
O -7.73294 -1.60983 6.60371
C -10.06818 0.73864 6.33434
C -7.24298 -2.18475 10.21124
C -6.22227 -1.693 11.23549
C -6.73035 -0.28883 11.48685
C -8.0257 -0.31669 10.66586
O -8.44257 -1.6583 10.71981
H -5.92701 -1.30578 8.71742
H -7.11504 0.77151 8.96124
H -7.1931 -3.29215 10.1348
H -6.37804 -2.29742 12.15818
H -5.15611 -1.76423 10.9304
H -6.94483 -0.18325 12.57348
H -6.05727 0.52828 11.14769
H -8.7438 0.43409 11.06331
O -3.43265 -4.32886 5.40856
C -1.93044 -2.97795 1.01606
C -4.49627 -6.73991 1.89405
C -4.20878 -8.23898 1.82828
C -4.45084 -8.63286 3.26957
C -4.95642 -7.29998 3.83562
O -5.60867 -6.69212 2.74898
H -2.40847 -6.51506 2.37979
H -2.99657 -6.84154 4.70147
H -1.71637 -2.3196 1.88503
H -4.65145 -6.33643 0.86902
H -5.00653 -8.69312 1.19733
H -3.21558 -8.5228 1.41859
H -5.25278 -9.40385 3.29231
H -3.55629 -8.99628 3.82009
H -5.57583 -7.48102 4.74198
H -2.78283 -2.56683 0.43392
H -1.0343 -3.01042 0.36309
H -9.71259 0.96639 5.30861
H -10.58959 1.6325 6.7386
H -10.77269 -0.11909 6.28673
H -8.24155 -4.07365 5.8741
H -7.1262 -5.22957 6.62767
H -6.35455 -3.00291 4.77437
H -5.29594 -3.32624 6.16403
$end

$opt
CONSTRAINT
tors           1           2           3           4     -31.654
tors           3           4           5           6     +89.819
tors           4           5           6           7    -175.881
tors           5           6           7           8    -129.331
tors           6           7           8           9    +137.836
tors           7           8           9          10     +79.978
tors           8           9          10          11    -162.918
tors           9          10          11          12    -162.652
tors          11          12          13          14    +116.493
ENDCONSTRAINT
$end

$rem
JOBTYPE                   OPT
METHOD                    B3LYP
DFT_D                     d3_op
BASIS                     STO-3G
GEOM_OPT_MAX_CYCLES       100
GEOM_OPT_TOL_GRADIENT     300
GEOM_OPT_TOL_DISPLACEMENT 1200
GEOM_OPT_TOL_ENERGY       100
SYMMETRY                  False
THRESH                    12
SCF_CONVERGENCE           8
MAX_SUB_FILE_NUM          128
MEM_STATIC                400
MEM_TOTAL                 4000
$end
--------------------------------------------------------------

   15   -1510.1306776673      7.11E-09 Convergence criterion met
 Total energy in the final basis set = -1510.13067767
   14   -1510.2022612281      6.72E-09 Convergence criterion met
 Total energy in the final basis set = -1510.20226123
   14   -1510.2411370969      6.20E-09 Convergence criterion met
 Total energy in the final basis set = -1510.24113710
   14   -1510.2596019830      1.60E-09 Convergence criterion met
 Total energy in the final basis set = -1510.25960198
   13   -1510.2675500145      8.23E-09 Convergence criterion met
 Total energy in the final basis set = -1510.26755001
   13   -1510.2715460240      6.95E-09 Convergence criterion met
 Total energy in the final basis set = -1510.27154602
   13   -1510.2737827411      2.65E-09 Convergence criterion met
 Total energy in the final basis set = -1510.27378274
   13   -1510.2751414039      5.10E-09 Convergence criterion met
   12   -1510.2803855269      3.19E-09 Convergence criterion met
 Total energy in the final basis set = -1510.28038553
   12   -1510.2804725758      3.38E-09 Convergence criterion met
 Total energy in the final basis set = -1510.28047258
   10   -1510.2805086052      6.78E-09 Convergence criterion met
 Total energy in the final basis set = -1510.28050861
   10   -1510.2805340584      7.99E-09 Convergence criterion met
 Total energy in the final basis set = -1510.28053406
    9   -1510.2805469950      7.47E-09 Convergence criterion met
 Total energy in the final basis set = -1510.28054699
    9   -1510.2805519182      8.75E-09 Convergence criterion met
 Total energy in the final basis set = -1510.28055192

             Standard Nuclear Orientation (Angstroms)
    I     Atom           X                Y                Z
 ----------------------------------------------------------------
    1      O       3.1578752095    -1.7305212790    -0.3517206449
    2      C       4.3443015771    -1.4270460621    -0.6070123451
    3      C       5.0653147473    -0.0661334470    -0.3398324976
    4      C       4.1077059995     1.1972005632    -0.4354437183
    5      C       2.6049384278     0.8142936996    -0.6891117230
    6      O       1.9378557631     0.6350654074     0.5660279628
    7      C       0.5474189204     0.1775030683     0.3391691209
    8      C      -0.4429677861     1.0901315198     1.1577941636
    9      O      -1.6432099927     1.4281528057     0.3517851117
   10      C      -2.5714049123     0.3382016414     0.3647937983
   11      C      -3.5973213597     0.5221487151    -0.8109941617
   12      C      -4.8889152158    -0.3665814955    -0.6097621003
   13      C      -4.7362383489    -1.5203281851     0.4480662868
   14      O      -5.3582886698    -1.6532602916     1.5231641859
   15      O       5.2981359290    -2.3346247571    -1.1683205941
   16      O      -3.9049804363    -2.5346893574    -0.1408639133
   17      O      -2.5508152601    -0.5912762448     1.2032399704
   18      C      -3.6974275500    -3.6321651674     0.8282961724
   19      C      -4.2364616232     1.9726433890    -0.7207579968
   20      C      -5.1780688480     2.2173260523    -1.9672290679
   21      C      -6.4604198979     1.4016510140    -1.5558631937
   22      C      -5.9637003593     0.7313630008    -0.2174203563
   23      O      -5.1738786051     1.8137883172     0.4174108027
   24      H      -3.0871093491     0.3299268903    -1.7724790608
   25      H      -5.1596205324    -0.8475580520    -1.5671951178
   26      H      -3.5009453064     2.7739330505    -0.5147168942
   27      H      -5.3969384595     3.2906080651    -2.0827681261
   28      H      -4.7240554761     1.8477992883    -2.9007816373
   29      H      -7.3139643251     2.0694706398    -1.3571739935
   30      H      -6.7585406269     0.6595785672    -2.3137624408
   31      H      -6.7522627695     0.3707005849     0.4714904879
   32      O       2.0469429580     0.7114947842    -1.8049725250
   33      C       4.6682654300    -3.6572196332    -1.3934223731
   34      C       5.5913824457     0.0653157598     1.1598876368
   35      C       6.6808849743     1.2084204358     1.1837885205
   36      C       5.7750312402     2.4873347221     1.0409442254
   37      C       4.3329471140     1.8417562738     0.9968609891
   38      O       4.4495695427     0.6609790966     1.8842116154
   39      H       5.9056842981     0.0151106098    -1.0515706654
   40      H       4.4259316055     1.8681494522    -1.2529356216
   41      H       3.8049994821    -3.5846985795    -2.0858633318
   42      H       5.8960826913    -0.8911142194     1.6274694670
   43      H       7.2220443432     1.2013280260     2.1433752682
   44      H       7.4100040123     1.1062474202     0.3644796185
   45      H       5.8731549455     3.1509103643     1.9145928409
   46      H       5.9966259888     3.0673238874     0.1306903147
   47      H       3.5098736087     2.4989258947     1.3365737302
   48      H       4.3194239921    -4.1101728450    -0.4428655914
   49      H       5.4514612570    -4.2954325763    -1.8421156090
   50      H      -3.1180625968    -4.4089544467     0.2960295098
   51      H      -4.6596807232    -4.0588563287     1.1784854039
   52      H      -3.1241350091    -3.2818224491     1.7110867495
   53      H      -0.7374060077     0.5986087663     2.1083632995
   54      H       0.0509449058     2.0577884351     1.3805324220
   55      H       0.4659467980    -0.8827992958     0.6564845107
   56      H       0.3321310470     0.2524867503    -0.7507915410
 ----------------------------------------------------------------

    9   -1510.2805532177      5.53E-09 Convergence criterion met
 Total energy in the final basis set = -1510.28055322
 Final energy is   -1510.28055321770
 **  OPTIMIZATION CONVERGED  **

                    Orbital Energies (a.u.)
 --------------------------------------------------------------

 Alpha MOs
 -- Occupied --
-18.940 -18.936 -18.929 -18.914 -18.891 -18.885 -18.881 -18.881
-18.870 -18.857 -10.104 -10.104 -10.098 -10.086 -10.071 -10.068
-10.065 -10.062 -10.060 -10.056 -10.053 -10.050 -10.041 -10.040
-10.037 -10.028 -10.023 -10.022 -10.017 -10.016  -1.018  -1.016
 -1.006  -0.993  -0.973  -0.965  -0.942  -0.941  -0.932  -0.920
 -0.766  -0.759  -0.727  -0.721  -0.713  -0.704  -0.691  -0.667
 -0.650  -0.615  -0.596  -0.577  -0.549  -0.541  -0.540  -0.533
 -0.515  -0.506  -0.484  -0.478  -0.462  -0.453  -0.451  -0.443
 -0.436  -0.429  -0.426  -0.415  -0.412  -0.405  -0.401  -0.397
 -0.390  -0.384  -0.377  -0.364  -0.360  -0.356  -0.349  -0.346
 -0.341  -0.337  -0.334  -0.331  -0.328  -0.328  -0.320  -0.313
 -0.310  -0.306  -0.303  -0.301  -0.296  -0.285  -0.280  -0.272
 -0.271  -0.260  -0.252  -0.242  -0.240  -0.236  -0.230  -0.187
 -0.182  -0.166  -0.161  -0.159  -0.156  -0.151  -0.146  -0.141
 -0.137

          Ground-State Mulliken Net Atomic Charges

     Atom                 Charge (a.u.)
  ----------------------------------------
      1 O                    -0.210461
      2 C                     0.209224
      3 C                    -0.079517
      4 C                    -0.079419
      5 C                     0.213857
      6 O                    -0.166805
      7 C                    -0.057464
      8 C                    -0.051559
      9 O                    -0.171739
     10 C                     0.216574
     11 C                    -0.076190
     12 C                    -0.082252
     13 C                     0.215546
     14 O                    -0.218968
     15 O                    -0.169090
     16 O                    -0.176487
     17 O                    -0.205007
     18 C                    -0.128312
     19 C                     0.023283
     20 C                    -0.145013
     21 C                    -0.142608
     22 C                     0.023213
     23 O                    -0.191877
     24 H                     0.087761
     25 H                     0.083006
     26 H                     0.088900
     27 H                     0.077601
     28 H                     0.073135
     29 H                     0.077385
     30 H                     0.072815
     31 H                     0.089714
     32 O                    -0.219095
     33 C                    -0.128851
     34 C                     0.026314
     35 C                    -0.143073
     36 C                    -0.144769
     37 C                     0.027279
     38 O                    -0.184449
     39 H                     0.087072
     40 H                     0.084930
     41 H                     0.091395
     42 H                     0.083829
     43 H                     0.078658
     44 H                     0.074485
     45 H                     0.078445
     46 H                     0.073749
     47 H                     0.086463
     48 H                     0.089600
     49 H                     0.091419
     50 H                     0.085114
     51 H                     0.086253
     52 H                     0.090923
     53 H                     0.097791
     54 H                     0.092636
     55 H                     0.093020
     56 H                     0.101617
  ----------------------------------------
  Sum of atomic charges =     0.000000

                    Cartesian Multipole Moments
 -----------------------------------------------------------------
    Charge (ESU x 10^10)
                 0.0000
    Dipole Moment (Debye)
         X       3.3692      Y       0.0741      Z      -2.3656
       Tot       4.1174
    Quadrupole Moments (Debye-Ang)
        XX    -147.2037     XY      -0.0013     YY    -148.6219
        XZ      11.8267     YZ       1.1857     ZZ    -165.0640

 Total job time:  60.18s(wall), 2860.10s(cpu)
        *  Thank you very much for using Q-Chem.  Have a nice day.  *
