 Q-Chem 5.0, Q-Chem, Inc., Pleasanton, CA (2017)
 Q-Chem 5.0.1 for Intel X86 EM64T Linux

User input:
--------------------------------------------------------------
$molecule
0  1
O -3.94934 -3.66094 2.70899
C -3.26408 -4.56952 2.26188
C -3.36658 -6.02376 2.66595
C -4.03945 -6.33287 4.01337
C -4.69326 -5.16829 4.72358
O -6.02003 -5.1154 4.40372
C -6.70401 -4.018 5.01782
C -7.24202 -4.43193 6.38359
O -7.14893 -3.33045 7.30062
C -8.00334 -2.30351 7.06713
C -7.78001 -1.1305 7.99169
C -9.03314 -0.29515 8.29192
C -10.35758 -0.93799 7.93227
O -11.15595 -1.40978 8.72887
O -2.45449 -4.31141 1.20131
O -10.70669 -0.90309 6.61929
O -8.58436 -2.16961 5.99891
C -11.88307 -1.41338 6.11089
C -7.33028 -1.49621 9.42663
C -6.59457 -0.31093 10.04982
C -7.74192 0.65203 10.26411
C -8.92025 -0.22734 9.83095
O -8.52064 -1.53201 10.17053
H -6.98712 -0.51413 7.51101
H -9.02175 0.7227 7.84349
H -6.68873 -2.40039 9.49276
H -6.22261 -0.64534 11.04513
H -5.74312 0.08853 9.45793
H -7.80379 0.88736 11.34993
H -7.69261 1.59138 9.67187
H -9.85799 0.13458 10.30792
O -4.07437 -4.33865 5.38076
C -2.28082 -3.06302 0.64141
C -4.21352 -6.85246 1.68953
C -3.80699 -8.32227 1.77156
C -4.38015 -8.69644 3.12177
C -5.06897 -7.38165 3.50674
O -5.49174 -6.85353 2.27208
H -2.31622 -6.39354 2.68534
H -3.37053 -6.82247 4.75545
H -1.86785 -2.35978 1.39596
H -4.15165 -6.49072 0.63972
H -4.37001 -8.87035 0.98247
H -2.71905 -8.51235 1.64786
H -5.14155 -9.4937 2.96917
H -3.63769 -9.02327 3.8814
H -5.8677 -7.58627 4.25366
H -3.24944 -2.67684 0.25803
H -1.56707 -3.13971 -0.20427
H -11.90553 -1.25108 5.01381
H -12.75409 -0.89638 6.56731
H -11.94465 -2.50428 6.31233
H -8.24639 -4.90768 6.33925
H -6.54461 -5.18934 6.80046
H -7.53242 -3.6784 4.3626
H -6.03791 -3.12808 5.10589
$end

$opt
CONSTRAINT
tors           1           2           3           4     -20.198
tors           3           4           5           6     +94.131
tors           4           5           6           7    -178.757
tors           5           6           7           8     -89.129
tors           6           7           8           9    +143.934
tors           7           8           9          10     +70.455
tors           8           9          10          11    -175.243
tors           9          10          11          12    -150.675
tors          11          12          13          14    +105.632
ENDCONSTRAINT
$end

$rem
JOBTYPE                   OPT
METHOD                    B3LYP
DFT_D                     d3_op
BASIS                     STO-3G
GEOM_OPT_MAX_CYCLES       100
GEOM_OPT_TOL_GRADIENT     300
GEOM_OPT_TOL_DISPLACEMENT 1200
GEOM_OPT_TOL_ENERGY       100
SYMMETRY                  False
THRESH                    12
SCF_CONVERGENCE           8
MAX_SUB_FILE_NUM          128
MEM_STATIC                400
MEM_TOTAL                 4000
$end
--------------------------------------------------------------

   15   -1510.1446337735      6.47E-09 Convergence criterion met
 Total energy in the final basis set = -1510.14463377
   14   -1510.2147907496      6.63E-09 Convergence criterion met
 Total energy in the final basis set = -1510.21479075
   13   -1510.2523351195      6.99E-09 Convergence criterion met
 Total energy in the final basis set = -1510.25233512
   14   -1510.2690953501      5.52E-09 Convergence criterion met
 Total energy in the final basis set = -1510.26909535
   13   -1510.2753375297      6.58E-09 Convergence criterion met
 Total energy in the final basis set = -1510.27533753
    2   -1510.2753375297      7.79E-09 Convergence criterion met
 Total energy in the final basis set = -1510.27533753
   13   -1510.2780267080      3.84E-09 Convergence criterion met
 Total energy in the final basis set = -1510.27802671
   13   -1510.2793482016      4.12E-09 Convergence criterion met
   12   -1510.2830236729      3.68E-09 Convergence criterion met
 Total energy in the final basis set = -1510.28302367
   12   -1510.2830857656      2.84E-09 Convergence criterion met
 Total energy in the final basis set = -1510.28308577
   11   -1510.2831280088      5.85E-09 Convergence criterion met
 Total energy in the final basis set = -1510.28312801
   11   -1510.2831529279      5.59E-09 Convergence criterion met
 Total energy in the final basis set = -1510.28315293
   11   -1510.2831685313      4.21E-09 Convergence criterion met
 Total energy in the final basis set = -1510.28316853
   11   -1510.2831779854      2.31E-09 Convergence criterion met
 Total energy in the final basis set = -1510.28317799

             Standard Nuclear Orientation (Angstroms)
    I     Atom           X                Y                Z
 ----------------------------------------------------------------
    1      O      -3.1925066058     0.7878541362     1.5247980079
    2      C      -4.3895107479     0.9153081781     1.1823143323
    3      C      -5.0641582949     0.3951956357    -0.1290174711
    4      C      -4.0290879128     0.0955671187    -1.2928127591
    5      C      -2.5321339097     0.3817040239    -0.8966514860
    6      O      -1.9251833950    -0.8302005112    -0.4264539537
    7      C      -0.5261403570    -0.5732818649    -0.0214424127
    8      C       0.4668366842    -0.7569791582    -1.2402441268
    9      O       1.5864332994     0.2164374622    -1.2029236464
   10      C       2.4792071536    -0.0966455692    -0.1321114393
   11      C       3.5889742210     1.0115583865    -0.0317795649
   12      C       4.9503969481     0.4374714654     0.5412570164
   13      C       4.8374534903    -0.9932025540     1.1818549090
   14      O       5.2343671259    -2.0756402213     0.7001770852
   15      O      -5.3915119414     1.5402731944     1.9881567287
   16      O       4.3426661940    -0.8327611355     2.5201996049
   17      O       2.3791955190    -1.1244884915     0.5759065010
   18      C       4.1459919201    -2.1611824408     3.1405730929
   19      C       4.0530496873     1.4540107498    -1.4823447603
   20      C       5.0415830849     2.6815966033    -1.3702166945
   21      C       6.3725252480     1.9700259449    -0.9232062285
   22      C       5.8693473911     0.4844467721    -0.7518061085
   23      O       4.9238510399     0.3221490610    -1.8809973183
   24      H       3.2039545031     1.8536276402     0.5723437235
   25      H       5.3371364470     1.1138515934     1.3244753131
   26      H       3.2180732088     1.5754165282    -2.1985873275
   27      H       5.1537233518     3.1767661066    -2.3476409520
   28      H       4.6920952548     3.4262190274    -0.6367661111
   29      H       7.1422284788     2.0261190087    -1.7096651696
   30      H       6.7876521597     2.3834841405     0.0097521602
   31      H       6.6501601095    -0.3001044779    -0.7858406433
   32      O      -1.9257838277     1.4669600464    -1.0319890189
   33      C      -4.7989198929     2.0009323126     3.2661735607
   34      C      -5.7217267300    -1.0421459945     0.0690960923
   35      C      -6.7136369582    -1.2916244875    -1.1345274957
   36      C      -5.7008346824    -1.5758043921    -2.3049315180
   37      C      -4.3168338110    -1.4441427559    -1.5525598432
   38      O      -4.6057571604    -1.9734339766    -0.1988906426
   39      H      -5.8255735323     1.1321854332    -0.4410384018
   40      H      -4.2582772313     0.7116240183    -2.1806686168
   41      H      -4.0006504219     2.7519909179     3.0965471614
   42      H      -6.1468261648    -1.2174767145     1.0765045641
   43      H      -7.3521849644    -2.1661249892    -0.9310237654
   44      H      -7.3594738213    -0.4203458420    -1.3286893331
   45      H      -5.8238678991    -2.5937984455    -2.7073926874
   46      H      -5.7925419567    -0.8551614565    -3.1331142991
   47      H      -3.4742870649    -1.9961074801    -2.0107238301
   48      H      -4.3711871730     1.1568735089     3.8447166296
   49      H      -5.6260751711     2.4613283205     3.8370132801
   50      H       3.8623701048    -1.9722725201     4.1922688007
   51      H       5.0716551953    -2.7711878926     3.1057929833
   52      H       3.3338214626    -2.7203167298     2.6320059490
   53      H       0.8532356689    -1.7976689307    -1.2705160967
   54      H      -0.0673073353    -0.5382575950    -2.1870138245
   55      H      -0.2903280251    -1.2976521568     0.7823049898
   56      H      -0.4273111098     0.4645983138     0.3638200313
 ----------------------------------------------------------------

    9   -1510.2831787855      6.40E-09 Convergence criterion met
 Total energy in the final basis set = -1510.28317879
 Final energy is   -1510.28317878545
 **  OPTIMIZATION CONVERGED  **

                    Orbital Energies (a.u.)
 --------------------------------------------------------------

 Alpha MOs
 -- Occupied --
-18.942 -18.939 -18.927 -18.916 -18.890 -18.883 -18.881 -18.880
-18.865 -18.858 -10.105 -10.102 -10.095 -10.087 -10.070 -10.069
-10.064 -10.063 -10.060 -10.054 -10.053 -10.050 -10.041 -10.037
-10.037 -10.029 -10.022 -10.021 -10.017 -10.015  -1.018  -1.016
 -1.003  -0.994  -0.972  -0.965  -0.942  -0.940  -0.929  -0.921
 -0.765  -0.758  -0.726  -0.721  -0.712  -0.704  -0.689  -0.667
 -0.650  -0.616  -0.595  -0.579  -0.547  -0.540  -0.539  -0.533
 -0.514  -0.505  -0.483  -0.476  -0.462  -0.453  -0.449  -0.444
 -0.435  -0.430  -0.426  -0.416  -0.410  -0.403  -0.400  -0.397
 -0.388  -0.379  -0.377  -0.363  -0.360  -0.356  -0.348  -0.345
 -0.341  -0.337  -0.332  -0.331  -0.327  -0.325  -0.319  -0.313
 -0.309  -0.305  -0.302  -0.301  -0.295  -0.283  -0.279  -0.272
 -0.271  -0.260  -0.255  -0.242  -0.240  -0.235  -0.229  -0.188
 -0.183  -0.165  -0.161  -0.158  -0.155  -0.148  -0.144  -0.140
 -0.138

          Ground-State Mulliken Net Atomic Charges

     Atom                 Charge (a.u.)
  ----------------------------------------
      1 O                    -0.208348
      2 C                     0.211655
      3 C                    -0.078944
      4 C                    -0.080691
      5 C                     0.212931
      6 O                    -0.168366
      7 C                    -0.051814
      8 C                    -0.049461
      9 O                    -0.166965
     10 C                     0.214034
     11 C                    -0.076420
     12 C                    -0.082001
     13 C                     0.213578
     14 O                    -0.218401
     15 O                    -0.169014
     16 O                    -0.173564
     17 O                    -0.211269
     18 C                    -0.128185
     19 C                     0.022893
     20 C                    -0.145046
     21 C                    -0.142963
     22 C                     0.023725
     23 O                    -0.191507
     24 H                     0.087071
     25 H                     0.083277
     26 H                     0.091796
     27 H                     0.077648
     28 H                     0.072948
     29 H                     0.077254
     30 H                     0.072699
     31 H                     0.088121
     32 O                    -0.220360
     33 C                    -0.128580
     34 C                     0.025960
     35 C                    -0.143320
     36 C                    -0.144633
     37 C                     0.026588
     38 O                    -0.185920
     39 H                     0.086885
     40 H                     0.083631
     41 H                     0.091085
     42 H                     0.084029
     43 H                     0.078434
     44 H                     0.074123
     45 H                     0.078232
     46 H                     0.073466
     47 H                     0.087685
     48 H                     0.090690
     49 H                     0.091752
     50 H                     0.085664
     51 H                     0.086956
     52 H                     0.091520
     53 H                     0.092921
     54 H                     0.090995
     55 H                     0.096743
     56 H                     0.098784
  ----------------------------------------
  Sum of atomic charges =     0.000000

                    Cartesian Multipole Moments
 -----------------------------------------------------------------
    Charge (ESU x 10^10)
                 0.0000
    Dipole Moment (Debye)
         X      -2.8650      Y       2.1013      Z       0.6998
       Tot       3.6212
    Quadrupole Moments (Debye-Ang)
        XX    -143.9193     XY       8.3203     YY    -161.5312
        XZ       6.1027     YZ       2.6352     ZZ    -151.5675

 Total job time:  57.42s(wall), 2730.31s(cpu)
        *  Thank you very much for using Q-Chem.  Have a nice day.  *
