 Q-Chem 5.0, Q-Chem, Inc., Pleasanton, CA (2017)
 Q-Chem 5.0.1 for Intel X86 EM64T Linux

User input:
--------------------------------------------------------------
$molecule
0  1
O -3.1925066058 0.7878541362 1.5247980079
C -4.3895107479 0.9153081781 1.1823143323
C -5.0641582949 0.3951956357 -0.1290174711
C -4.0290879128 0.0955671187 -1.2928127591
C -2.5321339097 0.3817040239 -0.896651486
O -1.925183395 -0.8302005112 -0.4264539537
C -0.526140357 -0.5732818649 -0.0214424127
C 0.4668366842 -0.7569791582 -1.2402441268
O 1.5864332994 0.2164374622 -1.2029236464
C 2.4792071536 -0.0966455692 -0.1321114393
C 3.588974221 1.0115583865 -0.0317795649
C 4.9503969481 0.4374714654 0.5412570164
C 4.8374534903 -0.993202554 1.181854909
O 5.2343671259 -2.0756402213 0.7001770852
O -5.3915119414 1.5402731944 1.9881567287
O 4.342666194 -0.8327611355 2.5201996049
O 2.379195519 -1.1244884915 0.575906501
C 4.1459919201 -2.1611824408 3.1405730929
C 4.0530496873 1.4540107498 -1.4823447603
C 5.0415830849 2.6815966033 -1.3702166945
C 6.372525248 1.9700259449 -0.9232062285
C 5.8693473911 0.4844467721 -0.7518061085
O 4.9238510399 0.322149061 -1.8809973183
H 3.2039545031 1.8536276402 0.5723437235
H 5.337136447 1.1138515934 1.3244753131
H 3.2180732088 1.5754165282 -2.1985873275
H 5.1537233518 3.1767661066 -2.347640952
H 4.6920952548 3.4262190274 -0.6367661111
H 7.1422284788 2.0261190087 -1.7096651696
H 6.7876521597 2.3834841405 0.0097521602
H 6.6501601095 -0.3001044779 -0.7858406433
O -1.9257838277 1.4669600464 -1.0319890189
C -4.7989198929 2.0009323126 3.2661735607
C -5.72172673 -1.0421459945 0.0690960923
C -6.7136369582 -1.2916244875 -1.1345274957
C -5.7008346824 -1.5758043921 -2.304931518
C -4.316833811 -1.4441427559 -1.5525598432
O -4.6057571604 -1.9734339766 -0.1988906426
H -5.8255735323 1.1321854332 -0.4410384018
H -4.2582772313 0.7116240183 -2.1806686168
H -4.0006504219 2.7519909179 3.0965471614
H -6.1468261648 -1.2174767145 1.0765045641
H -7.3521849644 -2.1661249892 -0.9310237654
H -7.3594738213 -0.420345842 -1.3286893331
H -5.8238678991 -2.5937984455 -2.7073926874
H -5.7925419567 -0.8551614565 -3.1331142991
H -3.4742870649 -1.9961074801 -2.0107238301
H -4.371187173 1.1568735089 3.8447166296
H -5.6260751711 2.4613283205 3.8370132801
H 3.8623701048 -1.9722725201 4.1922688007
H 5.0716551953 -2.7711878926 3.1057929833
H 3.3338214626 -2.7203167298 2.632005949
H 0.8532356689 -1.7976689307 -1.2705160967
H -0.0673073353 -0.538257595 -2.1870138245
H -0.2903280251 -1.2976521568 0.7823049898
H -0.4273111098 0.4645983138 0.3638200313
$end

$rem
JOBTYPE                   OPT
METHOD                    B3LYP
DFT_D                     d3_op
BASIS                     STO-3G
GEOM_OPT_MAX_CYCLES       100
GEOM_OPT_TOL_GRADIENT     300
GEOM_OPT_TOL_DISPLACEMENT 1200
GEOM_OPT_TOL_ENERGY       100
SYMMETRY                  False
THRESH                    12
SCF_CONVERGENCE           8
MAX_SUB_FILE_NUM          128
MEM_STATIC                400
MEM_TOTAL                 4000
$end
--------------------------------------------------------------

   15   -1510.2830669990      9.91E-09 Convergence criterion met
 Total energy in the final basis set = -1510.28306700
   13   -1510.2840833707      7.21E-09 Convergence criterion met
 Total energy in the final basis set = -1510.28408337
   13   -1510.2848768588      6.64E-09 Convergence criterion met
 Total energy in the final basis set = -1510.28487686
   13   -1510.2854982361      3.08E-09 Convergence criterion met
 Total energy in the final basis set = -1510.28549824
   13   -1510.2860732233      3.23E-09 Convergence criterion met
 Total energy in the final basis set = -1510.28607322
   13   -1510.2865588192      4.45E-09 Convergence criterion met
 Total energy in the final basis set = -1510.28655882
   13   -1510.2870118367      4.09E-09 Convergence criterion met
 Total energy in the final basis set = -1510.28701184
   13   -1510.2873419654      4.38E-09 Convergence criterion met
   12   -1510.2880814967      8.64E-09 Convergence criterion met
 Total energy in the final basis set = -1510.28808150
   12   -1510.2881038096      3.13E-09 Convergence criterion met
 Total energy in the final basis set = -1510.28810381
   12   -1510.2881047788      2.59E-09 Convergence criterion met
 Total energy in the final basis set = -1510.28810478
   11   -1510.2881085305      6.66E-09 Convergence criterion met
 Total energy in the final basis set = -1510.28810853
   10   -1510.2881138603      6.80E-09 Convergence criterion met
 Total energy in the final basis set = -1510.28811386
   10   -1510.2881110527      3.76E-09 Convergence criterion met
 Total energy in the final basis set = -1510.28811105

             Standard Nuclear Orientation (Angstroms)
    I     Atom           X                Y                Z
 ----------------------------------------------------------------
    1      O       3.4131385458    -0.6910766309    -2.0717091284
    2      C       4.4933482584    -0.8603856430    -1.4619304527
    3      C       5.1133286074     0.0556866830    -0.3540693704
    4      C       4.1473524893     1.2262370522     0.0993333208
    5      C       2.7656475046     1.2516200846    -0.6543893248
    6      O       1.8769596709     0.3214191691    -0.0160917965
    7      C       0.6022866556     0.2254994384    -0.7624904681
    8      C      -0.3159656913     1.4901674749    -0.5514552752
    9      O      -1.6498243061     1.2686617357    -1.1628034661
   10      C      -2.5148472754     0.5938166534    -0.2469567904
   11      C      -3.8956293820     0.3646122609    -0.9460579296
   12      C      -4.8953235083    -0.4959677250    -0.0712815966
   13      C      -4.2942245227    -1.0176432259     1.2873531252
   14      O      -4.5613297558    -0.6157408905     2.4391741621
   15      O       5.3741753571    -1.9609025156    -1.6907411700
   16      O      -3.4814185929    -2.1648293654     0.9912522131
   17      O      -2.1968256235     0.2778338262     0.9222323742
   18      C      -2.8392749601    -2.6532654400     2.2310041543
   19      C      -4.7081723994     1.7280562689    -1.0716097707
   20      C      -5.9144579256     1.4963575430    -2.0654515505
   21      C      -6.9018911975     0.6710702484    -1.1588546876
   22      C      -6.0611986924     0.5504458359     0.1721280674
   23      O      -5.3553656628     1.8514550289     0.2521530493
   24      H      -3.7181114912    -0.0870431099    -1.9386206927
   25      H      -5.2479037818    -1.3722348329    -0.6442261668
   26      H      -4.0788077866     2.6135557540    -1.2871056140
   27      H      -6.3525978628     2.4597265864    -2.3709402076
   28      H      -5.6043000598     0.9464495249    -2.9683391174
   29      H      -7.8379296973     1.2228379975    -0.9762078125
   30      H      -7.1490412709    -0.3144640940    -1.5845504317
   31      H      -6.6433764832     0.3730559550     1.0972387864
   32      O       2.4384535457     2.0242544832    -1.5816020620
   33      C       4.8079729240    -2.8585633180    -2.7252896392
   34      C       5.3167038713    -0.7231623548     1.0174679160
   35      C       6.2871663677     0.1269749807     1.9271264004
   36      C       5.3312766682     1.2912222939     2.3829303998
   37      C       3.9913738179     0.8934705847     1.6458748775
   38      O       4.0032045234    -0.5877907055     1.6835482045
   39      H       6.0760504452     0.4474179045    -0.7309332309
   40      H       4.6244831934     2.2087718632    -0.0632104796
   41      H       4.6844931950    -2.3352685801    -3.6954282072
   42      H       5.5892229372    -1.7892205956     0.8935075443
   43      H       6.6317305644    -0.4723462041     2.7846990384
   44      H       7.1671095313     0.4881267310     1.3714225068
   45      H       5.1830557870     1.2869004613     3.4744850780
   46      H       5.6953610288     2.2861378602     2.0802301435
   47      H       3.0638408726     1.2832605698     2.1071932173
   48      H       3.8235290949    -3.2651777508    -2.4158934449
   49      H       5.5320549596    -3.6860162149    -2.8395264822
   50      H      -2.2759598491    -3.5620661149     1.9496546182
   51      H      -3.5879552345    -2.9053111783     3.0097354077
   52      H      -2.1407964970    -1.8965929155     2.6439740141
   53      H      -0.4143172882     1.6996307564     0.5347254157
   54      H       0.1282865513     2.3609904073    -1.0729499556
   55      H       0.0916503682    -0.6708044071    -0.3553801370
   56      H       0.7936890428     0.0805812632    -1.8472306187
 ----------------------------------------------------------------

   10   -1510.2881108343      4.60E-09 Convergence criterion met
 Total energy in the final basis set = -1510.28811083
 Final energy is   -1510.28811083430
 **  OPTIMIZATION CONVERGED  **

                    Orbital Energies (a.u.)
 --------------------------------------------------------------

 Alpha MOs
 -- Occupied --
-18.945 -18.938 -18.924 -18.915 -18.889 -18.888 -18.884 -18.882
-18.863 -18.857 -10.109 -10.103 -10.094 -10.086 -10.071 -10.065
-10.064 -10.062 -10.060 -10.058 -10.054 -10.050 -10.042 -10.037
-10.035 -10.029 -10.022 -10.020 -10.018 -10.016  -1.022  -1.016
 -1.002  -0.993  -0.971  -0.967  -0.945  -0.940  -0.928  -0.920
 -0.764  -0.760  -0.726  -0.721  -0.713  -0.704  -0.690  -0.668
 -0.650  -0.615  -0.596  -0.579  -0.547  -0.541  -0.538  -0.534
 -0.514  -0.507  -0.486  -0.473  -0.464  -0.454  -0.450  -0.444
 -0.435  -0.432  -0.428  -0.418  -0.410  -0.404  -0.399  -0.394
 -0.390  -0.381  -0.378  -0.362  -0.361  -0.355  -0.350  -0.344
 -0.338  -0.336  -0.334  -0.329  -0.329  -0.326  -0.321  -0.315
 -0.310  -0.307  -0.301  -0.301  -0.298  -0.283  -0.277  -0.273
 -0.271  -0.263  -0.255  -0.242  -0.240  -0.235  -0.231  -0.189
 -0.185  -0.163  -0.162  -0.160  -0.157  -0.145  -0.143  -0.142
 -0.137

          Ground-State Mulliken Net Atomic Charges

     Atom                 Charge (a.u.)
  ----------------------------------------
      1 O                    -0.208000
      2 C                     0.215086
      3 C                    -0.078315
      4 C                    -0.081657
      5 C                     0.214422
      6 O                    -0.170044
      7 C                    -0.049220
      8 C                    -0.055972
      9 O                    -0.170909
     10 C                     0.213771
     11 C                    -0.077907
     12 C                    -0.081636
     13 C                     0.215929
     14 O                    -0.216597
     15 O                    -0.168758
     16 O                    -0.177786
     17 O                    -0.207203
     18 C                    -0.128825
     19 C                     0.025314
     20 C                    -0.143805
     21 C                    -0.143966
     22 C                     0.024870
     23 O                    -0.189006
     24 H                     0.086662
     25 H                     0.083065
     26 H                     0.085390
     27 H                     0.077983
     28 H                     0.073471
     29 H                     0.077614
     30 H                     0.072914
     31 H                     0.088994
     32 O                    -0.221471
     33 C                    -0.128005
     34 C                     0.025079
     35 C                    -0.143739
     36 C                    -0.144384
     37 C                     0.026819
     38 O                    -0.186714
     39 H                     0.086822
     40 H                     0.083425
     41 H                     0.090916
     42 H                     0.087283
     43 H                     0.078402
     44 H                     0.073553
     45 H                     0.078480
     46 H                     0.073717
     47 H                     0.086879
     48 H                     0.091788
     49 H                     0.092532
     50 H                     0.085195
     51 H                     0.086306
     52 H                     0.092268
     53 H                     0.094349
     54 H                     0.099865
     55 H                     0.090053
     56 H                     0.094703
  ----------------------------------------
  Sum of atomic charges =     0.000000

                    Cartesian Multipole Moments
 -----------------------------------------------------------------
    Charge (ESU x 10^10)
                 0.0000
    Dipole Moment (Debye)
         X       2.6209      Y      -1.4863      Z      -2.0520
       Tot       3.6454
    Quadrupole Moments (Debye-Ang)
        XX    -138.8705     XY       3.1229     YY    -155.4852
        XZ      12.2637     YZ       4.6254     ZZ    -162.1754

 Total job time:  61.56s(wall), 2926.48s(cpu)
        *  Thank you very much for using Q-Chem.  Have a nice day.  *
