 Q-Chem 5.0, Q-Chem, Inc., Pleasanton, CA (2017)
 Q-Chem 5.0.1 for Intel X86 EM64T Linux

User input:
--------------------------------------------------------------
$molecule
0  1
O -3.94934 -3.66094 2.70899
C -3.26408 -4.56952 2.26188
C -3.36658 -6.02376 2.66595
C -3.52062 -6.32723 4.16529
C -3.7335 -5.13811 5.07567
O -5.05828 -5.02392 5.3877
C -5.39395 -3.7572 5.96387
C -5.23403 -3.81029 7.4797
O -4.27735 -2.82731 7.90562
C -4.6962 -1.53914 7.83978
C -3.56958 -0.54548 7.99479
C -3.7817 0.50765 9.09215
C -4.88369 0.21038 10.08912
O -4.71601 -0.17842 11.23598
O -2.24806 -4.25969 1.41394
O -6.15507 0.39266 9.64585
O -5.82696 -1.20562 7.50629
C -7.28449 0.15952 10.40223
C -2.19244 -1.11884 8.40686
C -1.08271 -0.16263 7.97034
C -1.29226 0.97698 8.94275
C -2.41625 0.39644 9.80672
O -2.16934 -0.98884 9.80495
H -3.46661 -0.06338 6.99657
H -3.95081 1.53834 8.70948
H -1.97588 -2.13063 8.00228
H -0.11178 -0.65475 8.20655
H -1.09658 0.1206 6.89586
H -0.36399 1.09984 9.54411
H -1.58056 1.94785 8.48473
H -2.4189 0.88993 10.80384
O -2.86839 -4.30875 5.33253
C -1.96771 -2.9844 0.96977
C -4.65468 -6.66996 2.11197
C -4.4546 -8.17673 1.96709
C -4.42682 -8.59414 3.42108
C -4.76081 -7.25715 4.09614
O -5.58036 -6.5964 3.16555
H -2.49953 -6.55496 2.21029
H -2.65644 -6.88667 4.58607
H -1.72658 -2.32361 1.82981
H -4.98368 -6.2345 1.14258
H -5.38136 -8.57992 1.4987
H -3.5757 -8.49346 1.36538
H -5.23608 -9.33962 3.58666
H -3.456 -8.99808 3.78132
H -5.20529 -7.44715 5.09807
H -2.83681 -2.57395 0.41243
H -1.09178 -3.02017 0.29009
H -8.18315 0.38914 9.79386
H -7.28449 0.81162 11.30171
H -7.32438 -0.9072 10.71037
H -6.20453 -3.68253 8.01182
H -4.851 -4.81068 7.77518
H -6.47477 -3.59701 5.76398
H -4.89258 -2.89457 5.46675
$end

$opt
CONSTRAINT
tors           1           2           3           4     -42.999
tors           3           4           5           6    +100.402
tors           4           5           6           7    -165.517
tors           5           6           7           8     -89.129
tors           6           7           8           9    +120.758
tors           7           8           9          10     +72.148
tors           8           9          10          11    -166.984
tors           9          10          11          12    -126.361
tors          11          12          13          14    +104.251
ENDCONSTRAINT
$end

$rem
JOBTYPE                   OPT
METHOD                    B3LYP
DFT_D                     d3_op
BASIS                     STO-3G
GEOM_OPT_MAX_CYCLES       100
GEOM_OPT_TOL_GRADIENT     300
GEOM_OPT_TOL_DISPLACEMENT 1200
GEOM_OPT_TOL_ENERGY       100
SYMMETRY                  False
THRESH                    12
SCF_CONVERGENCE           8
MAX_SUB_FILE_NUM          128
MEM_STATIC                400
MEM_TOTAL                 4000
$end
--------------------------------------------------------------

   15   -1510.1471278522      6.52E-09 Convergence criterion met
 Total energy in the final basis set = -1510.14712785
   13   -1510.2167355304      7.77E-09 Convergence criterion met
 Total energy in the final basis set = -1510.21673553
   13   -1510.2537976359      8.75E-09 Convergence criterion met
 Total energy in the final basis set = -1510.25379764
   13   -1510.2694012406      8.46E-09 Convergence criterion met
 Total energy in the final basis set = -1510.26940124
   13   -1510.2738619359      6.09E-09 Convergence criterion met
 Total energy in the final basis set = -1510.27386194
   13   -1510.2750920401      3.01E-09 Convergence criterion met
 Total energy in the final basis set = -1510.27509204
   12   -1510.2756180766      6.75E-09 Convergence criterion met
 Total energy in the final basis set = -1510.27561808
   12   -1510.2758644773      5.92E-09 Convergence criterion met
   11   -1510.2770799810      7.64E-09 Convergence criterion met
 Total energy in the final basis set = -1510.27707998
   11   -1510.2771018063      6.06E-09 Convergence criterion met
 Total energy in the final basis set = -1510.27710181
   11   -1510.2771136097      3.82E-09 Convergence criterion met
 Total energy in the final basis set = -1510.27711361
   11   -1510.2771201215      2.97E-09 Convergence criterion met
 Total energy in the final basis set = -1510.27712012
    9   -1510.2771237577      5.73E-09 Convergence criterion met
 Total energy in the final basis set = -1510.27712376
    9   -1510.2771250383      6.79E-09 Convergence criterion met
 Total energy in the final basis set = -1510.27712504

             Standard Nuclear Orientation (Angstroms)
    I     Atom           X                Y                Z
 ----------------------------------------------------------------
    1      O      -2.8315169278     0.5729692488     1.6416634041
    2      C      -3.7979260973     1.1234171685     1.0685286276
    3      C      -4.6893604473     0.5368754872    -0.0754586368
    4      C      -3.8638075708    -0.2207308328    -1.2038239973
    5      C      -2.3200565116    -0.2356908707    -0.9026933859
    6      O      -1.9515111201    -1.5058420602    -0.3534311277
    7      C      -0.6037777067    -1.4285622878     0.2524930126
    8      C       0.5358235589    -1.7588446004    -0.8000311438
    9      O       1.4903197259    -0.6388406755    -0.9666212619
   10      C       2.3268629175    -0.5205800480     0.1901646528
   11      C       3.0960531743     0.8547179688     0.1495182960
   12      C       4.6724497079     0.6992749936     0.2977761261
   13      C       5.1435416232    -0.7518584295     0.6591660098
   14      O       5.6716262341    -1.5935486558    -0.0990279778
   15      O      -4.2974167469     2.4205233449     1.4098833670
   16      O       4.9463559022    -0.9418271867     2.0641920747
   17      O       2.3782626190    -1.3860948614     1.0917936131
   18      C       5.2834290100    -2.3334762679     2.4395341075
   19      C       3.0103227686     1.5335564499    -1.2782087599
   20      C       3.5722570823     3.0081961385    -1.1868574294
   21      C       5.1247281436     2.7489517896    -1.1581360307
   22      C       5.1609072483     1.1712949833    -1.1357299518
   23      O       4.0484178066     0.7985442680    -2.0400820656
   24      H       2.6816641778     1.4940813778     0.9509706740
   25      H       5.0425796899     1.3752300381     1.0895350727
   26      H       2.0221604805     1.4263890848    -1.7639669068
   27      H       3.2733187232     3.5918969450    -2.0716343036
   28      H       3.2126996995     3.5276657775    -0.2842289151
   29      H       5.6127637094     3.1300175645    -2.0694873175
   30      H       5.6182846609     3.1942528663    -0.2794088188
   31      H       6.1057063441     0.7016507843    -1.4714446659
   32      O      -1.5227128887     0.7125183511    -1.0737396247
   33      C      -3.5012018250     2.9926845096     2.5209934230
   34      C      -5.6266160242    -0.6412249620     0.4471145759
   35      C      -6.7690345017    -0.8618333196    -0.6202491414
   36      C      -5.9705588608    -1.5783982982    -1.7713152129
   37      C      -4.5242457296    -1.6602227111    -1.1385208969
   38      O      -4.7839147529    -1.8482107159     0.3087001959
   39      H      -5.2886616446     1.3608510615    -0.5005092351
   40      H      -4.0204305980     0.2624995026    -2.1850294714
   41      H      -2.4239681192     3.0477505156     2.2635768143
   42      H      -5.9725611087    -0.5255996090     1.4926514941
   43      H      -7.5562576823    -1.5139933532    -0.2094666018
   44      H      -7.2279063248     0.0864288155    -0.9428326139
   45      H      -6.3632361798    -2.5885279588    -1.9679870460
   46      H      -5.9774039802    -1.0069839386    -2.7132501162
   47      H      -3.8837766438    -2.4753270313    -1.5253332273
   48      H      -3.6110273949     2.3957549312     3.4496274253
   49      H      -3.8967812131     4.0113344070     2.6876096876
   50      H       5.1976825208    -2.3837014077     3.5404588725
   51      H       6.3138907329    -2.6047374004     2.1310555187
   52      H       4.5738082674    -3.0526129009     1.9816210012
   53      H       1.0704139752    -2.6856506155    -0.5023881254
   54      H       0.0819174621    -1.9075244819    -1.8007930107
   55      H      -0.6001985789    -2.1770267177     1.0695907215
   56      H      -0.4310428356    -0.4163202331     0.6757277922
 ----------------------------------------------------------------

    9   -1510.2771253460      2.68E-09 Convergence criterion met
 Total energy in the final basis set = -1510.27712535
 Final energy is   -1510.27712534597
 **  OPTIMIZATION CONVERGED  **

                    Orbital Energies (a.u.)
 --------------------------------------------------------------

 Alpha MOs
 -- Occupied --
-18.939 -18.932 -18.930 -18.925 -18.889 -18.879 -18.877 -18.872
-18.870 -18.866 -10.102 -10.097 -10.097 -10.091 -10.068 -10.067
-10.066 -10.063 -10.059 -10.055 -10.052 -10.050 -10.040 -10.038
-10.035 -10.031 -10.022 -10.021 -10.015 -10.014  -1.016  -1.012
 -1.006  -1.001  -0.971  -0.962  -0.939  -0.936  -0.932  -0.927
 -0.764  -0.757  -0.726  -0.719  -0.712  -0.703  -0.688  -0.666
 -0.654  -0.615  -0.595  -0.580  -0.548  -0.540  -0.538  -0.531
 -0.514  -0.504  -0.483  -0.475  -0.461  -0.455  -0.446  -0.444
 -0.434  -0.427  -0.425  -0.415  -0.411  -0.406  -0.402  -0.400
 -0.389  -0.378  -0.373  -0.363  -0.361  -0.358  -0.350  -0.346
 -0.343  -0.337  -0.335  -0.332  -0.325  -0.324  -0.321  -0.310
 -0.305  -0.304  -0.301  -0.299  -0.291  -0.284  -0.278  -0.276
 -0.272  -0.259  -0.251  -0.246  -0.241  -0.235  -0.226  -0.186
 -0.180  -0.169  -0.163  -0.157  -0.151  -0.149  -0.144  -0.143
 -0.137

          Ground-State Mulliken Net Atomic Charges

     Atom                 Charge (a.u.)
  ----------------------------------------
      1 O                    -0.214154
      2 C                     0.208517
      3 C                    -0.079668
      4 C                    -0.079032
      5 C                     0.210825
      6 O                    -0.168357
      7 C                    -0.048580
      8 C                    -0.050094
      9 O                    -0.165947
     10 C                     0.207878
     11 C                    -0.076008
     12 C                    -0.080315
     13 C                     0.208561
     14 O                    -0.214351
     15 O                    -0.168267
     16 O                    -0.166964
     17 O                    -0.215385
     18 C                    -0.127032
     19 C                     0.022682
     20 C                    -0.145115
     21 C                    -0.143212
     22 C                     0.023673
     23 O                    -0.189639
     24 H                     0.085702
     25 H                     0.083835
     26 H                     0.096511
     27 H                     0.077481
     28 H                     0.071879
     29 H                     0.077027
     30 H                     0.071932
     31 H                     0.087205
     32 O                    -0.217355
     33 C                    -0.128746
     34 C                     0.025931
     35 C                    -0.143358
     36 C                    -0.144682
     37 C                     0.026174
     38 O                    -0.185013
     39 H                     0.086988
     40 H                     0.083878
     41 H                     0.091483
     42 H                     0.082825
     43 H                     0.078340
     44 H                     0.074140
     45 H                     0.078135
     46 H                     0.073356
     47 H                     0.089055
     48 H                     0.088610
     49 H                     0.091152
     50 H                     0.088965
     51 H                     0.087656
     52 H                     0.091150
     53 H                     0.092456
     54 H                     0.092593
     55 H                     0.095811
     56 H                     0.098868
  ----------------------------------------
  Sum of atomic charges =     0.000000

                    Cartesian Multipole Moments
 -----------------------------------------------------------------
    Charge (ESU x 10^10)
                 0.0000
    Dipole Moment (Debye)
         X      -2.5105      Y       2.0178      Z       0.8047
       Tot       3.3198
    Quadrupole Moments (Debye-Ang)
        XX    -147.4244     XY       3.3893     YY    -154.0951
        XZ      10.7191     YZ       4.1867     ZZ    -158.5476

 Total job time:  61.75s(wall), 2937.87s(cpu)
        *  Thank you very much for using Q-Chem.  Have a nice day.  *
