 Q-Chem 5.0, Q-Chem, Inc., Pleasanton, CA (2017)
 Q-Chem 5.0.1 for Intel X86 EM64T Linux

User input:
--------------------------------------------------------------
$molecule
0  1
O -2.8315169278 0.5729692488 1.6416634041
C -3.7979260973 1.1234171685 1.0685286276
C -4.6893604473 0.5368754872 -0.0754586368
C -3.8638075708 -0.2207308328 -1.2038239973
C -2.3200565116 -0.2356908707 -0.9026933859
O -1.9515111201 -1.5058420602 -0.3534311277
C -0.6037777067 -1.4285622878 0.2524930126
C 0.5358235589 -1.7588446004 -0.8000311438
O 1.4903197259 -0.6388406755 -0.9666212619
C 2.3268629175 -0.520580048 0.1901646528
C 3.0960531743 0.8547179688 0.149518296
C 4.6724497079 0.6992749936 0.2977761261
C 5.1435416232 -0.7518584295 0.6591660098
O 5.6716262341 -1.5935486558 -0.0990279778
O -4.2974167469 2.4205233449 1.409883367
O 4.9463559022 -0.9418271867 2.0641920747
O 2.378262619 -1.3860948614 1.0917936131
C 5.28342901 -2.3334762679 2.4395341075
C 3.0103227686 1.5335564499 -1.2782087599
C 3.5722570823 3.0081961385 -1.1868574294
C 5.1247281436 2.7489517896 -1.1581360307
C 5.1609072483 1.1712949833 -1.1357299518
O 4.0484178066 0.798544268 -2.0400820656
H 2.6816641778 1.4940813778 0.950970674
H 5.0425796899 1.3752300381 1.0895350727
H 2.0221604805 1.4263890848 -1.7639669068
H 3.2733187232 3.591896945 -2.0716343036
H 3.2126996995 3.5276657775 -0.2842289151
H 5.6127637094 3.1300175645 -2.0694873175
H 5.6182846609 3.1942528663 -0.2794088188
H 6.1057063441 0.7016507843 -1.4714446659
O -1.5227128887 0.7125183511 -1.0737396247
C -3.501201825 2.9926845096 2.520993423
C -5.6266160242 -0.641224962 0.4471145759
C -6.7690345017 -0.8618333196 -0.6202491414
C -5.9705588608 -1.5783982982 -1.7713152129
C -4.5242457296 -1.6602227111 -1.1385208969
O -4.7839147529 -1.8482107159 0.3087001959
H -5.2886616446 1.3608510615 -0.5005092351
H -4.020430598 0.2624995026 -2.1850294714
H -2.4239681192 3.0477505156 2.2635768143
H -5.9725611087 -0.525599609 1.4926514941
H -7.5562576823 -1.5139933532 -0.2094666018
H -7.2279063248 0.0864288155 -0.9428326139
H -6.3632361798 -2.5885279588 -1.967987046
H -5.9774039802 -1.0069839386 -2.7132501162
H -3.8837766438 -2.4753270313 -1.5253332273
H -3.6110273949 2.3957549312 3.4496274253
H -3.8967812131 4.011334407 2.6876096876
H 5.1976825208 -2.3837014077 3.5404588725
H 6.3138907329 -2.6047374004 2.1310555187
H 4.5738082674 -3.0526129009 1.9816210012
H 1.0704139752 -2.6856506155 -0.5023881254
H 0.0819174621 -1.9075244819 -1.8007930107
H -0.6001985789 -2.1770267177 1.0695907215
H -0.4310428356 -0.4163202331 0.6757277922
$end

$rem
JOBTYPE                   OPT
METHOD                    B3LYP
DFT_D                     d3_op
BASIS                     STO-3G
GEOM_OPT_MAX_CYCLES       100
GEOM_OPT_TOL_GRADIENT     300
GEOM_OPT_TOL_DISPLACEMENT 1200
GEOM_OPT_TOL_ENERGY       100
SYMMETRY                  False
THRESH                    12
SCF_CONVERGENCE           8
MAX_SUB_FILE_NUM          128
MEM_STATIC                400
MEM_TOTAL                 4000
$end
--------------------------------------------------------------

   16   -1510.2769628059      5.13E-09 Convergence criterion met
 Total energy in the final basis set = -1510.27696281
   14   -1510.2787490127      2.69E-09 Convergence criterion met
 Total energy in the final basis set = -1510.27874901
   14   -1510.2798690407      6.79E-09 Convergence criterion met
 Total energy in the final basis set = -1510.27986904
   13   -1510.2807485327      5.78E-09 Convergence criterion met
 Total energy in the final basis set = -1510.28074853
   12   -1510.2815011954      9.92E-09 Convergence criterion met
 Total energy in the final basis set = -1510.28150120
   13   -1510.2821837941      5.38E-09 Convergence criterion met
 Total energy in the final basis set = -1510.28218379
   13   -1510.2828191850      5.47E-09 Convergence criterion met
 Total energy in the final basis set = -1510.28281919
   13   -1510.2834915734      7.58E-09 Convergence criterion met
   11   -1510.2913235054      7.94E-09 Convergence criterion met
 Total energy in the final basis set = -1510.29132351
   12   -1510.2913482641      2.67E-09 Convergence criterion met
 Total energy in the final basis set = -1510.29134826
   10   -1510.2913524552      9.21E-09 Convergence criterion met
 Total energy in the final basis set = -1510.29135246
   11   -1510.2913513746      4.94E-09 Convergence criterion met
 Total energy in the final basis set = -1510.29135137
   11   -1510.2913562995      2.25E-09 Convergence criterion met
 Total energy in the final basis set = -1510.29135630
    9   -1510.2913550524      8.93E-09 Convergence criterion met
 Total energy in the final basis set = -1510.29135505

             Standard Nuclear Orientation (Angstroms)
    I     Atom           X                Y                Z
 ----------------------------------------------------------------
    1      O      -2.3032833560    -0.3166479331     2.6214593339
    2      C      -3.3890257848     0.1441018231     2.2029427355
    3      C      -3.6318182995     0.9259162257     0.8668325016
    4      C      -2.4287664749     0.7972450737    -0.1567656608
    5      C      -1.2396964463    -0.1009880081     0.3423098621
    6      O      -1.6277587280    -1.4781486631     0.2326628364
    7      C      -0.5329700932    -2.3627860243     0.6903844526
    8      C       0.4009249560    -2.7660661323    -0.5105095605
    9      O       0.9376140922    -1.5701603874    -1.2019002150
   10      C       1.9837098598    -0.9753070862    -0.4236565670
   11      C       2.4486126795     0.3343050218    -1.1416307670
   12      C       3.5929642213     1.0916540031    -0.3557858250
   13      C       3.9686672817     0.4496929742     1.0325360707
   14      O       4.9967117798    -0.2024812470     1.3127111159
   15      O      -4.6257622356     0.0447995600     2.9110410534
   16      O       2.9828536244     0.8733599513     1.9855685528
   17      O       2.4541827063    -1.4799055619     0.6200302271
   18      C       3.2364318125     0.2211188902     3.2881625513
   19      C       3.1921532243    -0.0034577211    -2.5053920181
   20      C       3.3597344520     1.3335042563    -3.3324442950
   21      C       4.5319704467     2.0328740647    -2.5475427895
   22      C       4.7880166101     0.9874030872    -1.3929859213
   23      O       4.5668609157    -0.3186476288    -2.0586983485
   24      H       1.5621280267     0.9736675815    -1.3027428742
   25      H       3.3003947060     2.1411739566    -0.1741295326
   26      H       2.7527597629    -0.8539677063    -3.0622945137
   27      H       3.6442286815     1.1104595641    -4.3730806169
   28      H       2.4345287851     1.9316659653    -3.3387595258
   29      H       5.4294290246     2.1419092093    -3.1771826794
   30      H       4.2509978118     3.0240093399    -2.1571754834
   31      H       5.7934650483     1.0148849413    -0.9302539253
   32      O      -0.1069761390     0.2992630106     0.6915216350
   33      C      -4.4253604051    -0.6902216922     4.1817829061
   34      C      -4.8302712148     0.3282289828     0.0094685178
   35      C      -5.2473326609     1.4040287985    -1.0689306937
   36      C      -4.0532456206     1.2910485296    -2.0868609616
   37      C      -3.1771240887     0.1646800530    -1.4079625162
   38      O      -4.1815523612    -0.7333200586    -0.7925742667
   39      H      -3.8240777977     1.9841940516     1.1240491998
   40      H      -2.0080112396     1.7904788537    -0.3922254813
   41      H      -3.7213899338    -0.1581146274     4.8537663852
   42      H      -5.6567285816    -0.0863777566     0.6185294927
   43      H      -6.2051964534     1.1262029868    -1.5367009049
   44      H      -5.3447777663     2.4118956784    -0.6349999910
   45      H      -4.3986474670     0.9630787057    -3.0802728999
   46      H      -3.4982529404     2.2359993909    -2.2004894660
   47      H      -2.5208930275    -0.4022576798    -2.0960487534
   48      H      -4.0369382289    -1.7135098927     4.0027253425
   49      H      -5.4207103404    -0.7489606357     4.6592154589
   50      H       2.4618195950     0.6023190040     3.9788471357
   51      H       4.2430676812     0.4685133953     3.6838067354
   52      H       3.1498363035    -0.8817660950     3.2057526278
   53      H       1.2229830423    -3.4115756303    -0.1314671464
   54      H      -0.1807525811    -3.3144246748    -1.2781837206
   55      H      -1.0126741118    -3.2733899743     1.1036585251
   56      H       0.0698965382    -1.8630529200     1.4771492314
 ----------------------------------------------------------------

    9   -1510.2913545781      2.64E-09 Convergence criterion met
 Total energy in the final basis set = -1510.29135458
 Final energy is   -1510.29135457810
 **  OPTIMIZATION CONVERGED  **

                    Orbital Energies (a.u.)
 --------------------------------------------------------------

 Alpha MOs
 -- Occupied --
-18.944 -18.929 -18.924 -18.909 -18.889 -18.886 -18.879 -18.876
-18.865 -18.849 -10.107 -10.099 -10.095 -10.079 -10.071 -10.070
-10.065 -10.062 -10.061 -10.054 -10.049 -10.044 -10.042 -10.036
-10.031 -10.023 -10.022 -10.021 -10.015 -10.013  -1.021  -1.013
 -0.999  -0.986  -0.971  -0.963  -0.944  -0.936  -0.928  -0.913
 -0.765  -0.755  -0.726  -0.719  -0.712  -0.702  -0.691  -0.668
 -0.645  -0.615  -0.595  -0.575  -0.547  -0.539  -0.537  -0.530
 -0.516  -0.500  -0.487  -0.469  -0.462  -0.448  -0.446  -0.441
 -0.435  -0.426  -0.424  -0.417  -0.412  -0.409  -0.398  -0.393
 -0.390  -0.381  -0.374  -0.364  -0.356  -0.355  -0.344  -0.343
 -0.335  -0.334  -0.332  -0.327  -0.326  -0.323  -0.317  -0.316
 -0.307  -0.305  -0.300  -0.297  -0.291  -0.284  -0.278  -0.267
 -0.265  -0.261  -0.248  -0.241  -0.236  -0.233  -0.227  -0.188
 -0.183  -0.161  -0.158  -0.153  -0.149  -0.146  -0.144  -0.137
 -0.130

          Ground-State Mulliken Net Atomic Charges

     Atom                 Charge (a.u.)
  ----------------------------------------
      1 O                    -0.207935
      2 C                     0.214689
      3 C                    -0.078091
      4 C                    -0.080830
      5 C                     0.217031
      6 O                    -0.171913
      7 C                    -0.052475
      8 C                    -0.050848
      9 O                    -0.176771
     10 C                     0.225049
     11 C                    -0.075700
     12 C                    -0.080458
     13 C                     0.216351
     14 O                    -0.220378
     15 O                    -0.169096
     16 O                    -0.171490
     17 O                    -0.208953
     18 C                    -0.127335
     19 C                     0.023862
     20 C                    -0.143856
     21 C                    -0.143943
     22 C                     0.024377
     23 O                    -0.190382
     24 H                     0.089384
     25 H                     0.083432
     26 H                     0.084000
     27 H                     0.076523
     28 H                     0.072135
     29 H                     0.076567
     30 H                     0.072517
     31 H                     0.087994
     32 O                    -0.218062
     33 C                    -0.127812
     34 C                     0.024571
     35 C                    -0.143764
     36 C                    -0.144381
     37 C                     0.026603
     38 O                    -0.186987
     39 H                     0.086120
     40 H                     0.082706
     41 H                     0.090488
     42 H                     0.088881
     43 H                     0.078215
     44 H                     0.073385
     45 H                     0.077882
     46 H                     0.073201
     47 H                     0.086013
     48 H                     0.091820
     49 H                     0.092235
     50 H                     0.085664
     51 H                     0.083807
     52 H                     0.090774
     53 H                     0.093574
     54 H                     0.089338
     55 H                     0.088254
     56 H                     0.104019
  ----------------------------------------
  Sum of atomic charges =     0.000000

                    Cartesian Multipole Moments
 -----------------------------------------------------------------
    Charge (ESU x 10^10)
                -0.0000
    Dipole Moment (Debye)
         X      -4.2076      Y       1.8180      Z      -0.2278
       Tot       4.5892
    Quadrupole Moments (Debye-Ang)
        XX    -168.3527     XY       3.5706     YY    -151.7534
        XZ      -7.8987     YZ      -4.9265     ZZ    -148.3521

 Total job time:  124.52s(wall), 5935.12s(cpu)
        *  Thank you very much for using Q-Chem.  Have a nice day.  *
