 Q-Chem 5.0, Q-Chem, Inc., Pleasanton, CA (2017)
 Q-Chem 5.0.1 for Intel X86 EM64T Linux

User input:
--------------------------------------------------------------
$molecule
0  1
O -3.0412528661 0.4939971897 1.8034185229
C -3.9520683199 1.0729952492 1.1713163871
C -4.8038607025 0.4947673261 -0.0077194093
C -3.9306892367 -0.2517651772 -1.1065493702
C -2.3873022869 -0.1635964492 -0.813717635
O -1.863998712 -1.4704529913 -0.5558712887
C -0.4160673178 -1.3919428381 -0.2497037751
C 0.4566920275 -1.1091845222 -1.5454182623
O 1.4396118327 -0.0080409812 -1.394613041
C 2.3036623292 -0.2401385468 -0.2818205337
C 3.248445683 1.0008745729 -0.0800717499
C 4.6679188352 0.5728740604 0.4801061614
C 4.7348556132 -0.8964196272 1.0342653246
O 5.2721910161 -1.8878310239 0.4958335699
O -4.4148822365 2.396289738 1.46084877
O 4.2063669381 -0.8831435893 2.3685155212
O 2.3219676183 -1.3080617665 0.3717007146
C 4.1742556784 -2.260946798 2.9057969063
C 3.6679651734 1.5984017209 -1.4875246991
C 4.4959906102 2.9272904909 -1.272205404
C 5.9047046712 2.3538885246 -0.8640028562
C 5.584538678 0.8112787457 -0.793369295
O 4.6747081302 0.6110082526 -1.9460321857
H 2.7457714292 1.7387405334 0.5720556366
H 4.9599482288 1.2451485198 1.3069129161
H 2.8313506081 1.6657771157 -2.2088144035
H 4.5467968515 3.5080951268 -2.2065369053
H 4.053260633 3.5604023708 -0.4866541025
H 6.6593729371 2.5533453577 -1.6416193281
H 6.2701375868 2.753388594 0.0955344627
H 6.453224518 0.1284253955 -0.8628845876
O -1.6947772012 0.8779270526 -0.8149639507
C -3.6475488137 2.9617195892 2.595350831
C -5.7317662461 -0.7001596053 0.4876093636
C -6.8135678718 -0.9794512763 -0.6289101258
C -5.9454059342 -1.7192503848 -1.7132310566
C -4.5252654688 -1.7194569945 -1.0195968378
O -4.8413455936 -1.8790097051 0.4189587156
H -5.3987644588 1.3147894874 -0.4460073925
H -4.1077517146 0.1961325752 -2.1016087387
H -2.5612874347 2.9958198001 2.3745548828
H -6.1332345787 -0.5761435027 1.5121095479
H -7.611975818 -1.6298298352 -0.2375323168
H -7.2685197126 -0.0499818047 -1.0070347303
H -6.2944393082 -2.751619072 -1.874065962
H -5.9342762646 -1.1945555272 -2.6818524155
H -3.8296933605 -2.5124187516 -1.3534127208
H -3.7995739707 2.3735486914 3.5235852239
H -4.0296274814 3.9886947006 2.7412077367
H 3.8177024289 -2.1772398209 3.9489233625
H 5.1787299307 -2.7316752713 2.8915877167
H 3.4760051592 -2.898424257 2.3254729113
H 0.9796422335 -2.0419141531 -1.8497960536
H -0.2006881873 -0.7861840511 -2.377358346
H -0.151717035 -2.3720661393 0.1909668675
H -0.2341380612 -0.5904587801 0.4980635289
$end

$rem
JOBTYPE                   OPT
METHOD                    B3LYP
DFT_D                     d3_op
BASIS                     STO-3G
GEOM_OPT_MAX_CYCLES       100
GEOM_OPT_TOL_GRADIENT     300
GEOM_OPT_TOL_DISPLACEMENT 1200
GEOM_OPT_TOL_ENERGY       100
SYMMETRY                  False
THRESH                    12
SCF_CONVERGENCE           8
MAX_SUB_FILE_NUM          128
MEM_STATIC                400
MEM_TOTAL                 4000
$end
--------------------------------------------------------------

   16   -1510.2788918736      6.11E-09 Convergence criterion met
 Total energy in the final basis set = -1510.27889187
   13   -1510.2805516636      3.75E-09 Convergence criterion met
 Total energy in the final basis set = -1510.28055166
   13   -1510.2816676024      4.72E-09 Convergence criterion met
 Total energy in the final basis set = -1510.28166760
   13   -1510.2824838629      3.03E-09 Convergence criterion met
 Total energy in the final basis set = -1510.28248386
   13   -1510.2832084568      3.59E-09 Convergence criterion met
 Total energy in the final basis set = -1510.28320846
   13   -1510.2837890273      2.63E-09 Convergence criterion met
 Total energy in the final basis set = -1510.28378903
   13   -1510.2843524579      3.09E-09 Convergence criterion met
 Total energy in the final basis set = -1510.28435246
   13   -1510.2848439688      5.01E-09 Convergence criterion met
   11   -1510.2880960793      9.46E-09 Convergence criterion met
 Total energy in the final basis set = -1510.28809608
   11   -1510.2880931128      5.32E-09 Convergence criterion met
 Total energy in the final basis set = -1510.28809311
   11   -1510.2880819383      8.88E-09 Convergence criterion met
 Total energy in the final basis set = -1510.28808194
   12   -1510.2880648357      2.40E-09 Convergence criterion met
 Total energy in the final basis set = -1510.28806484
   11   -1510.2880732729      4.20E-09 Convergence criterion met
 Total energy in the final basis set = -1510.28807327
    9   -1510.2880753062      9.25E-09 Convergence criterion met
 Total energy in the final basis set = -1510.28807531

             Standard Nuclear Orientation (Angstroms)
    I     Atom           X                Y                Z
 ----------------------------------------------------------------
    1      O      -3.1772054923     1.7637344798     1.2695919772
    2      C      -4.3685539017     1.3791541127     1.2683996388
    3      C      -5.0920779895     0.5241660867     0.1740222823
    4      C      -4.1535473805     0.1536541030    -1.0471923730
    5      C      -2.7229648936     0.8091742075    -0.9828195540
    6      O      -1.8209761417    -0.0902720739    -0.3215715371
    7      C      -0.4961242765     0.5474509645    -0.1466376334
    8      C       0.3181032056     0.6140372202    -1.4960368062
    9      O       1.6555447977     1.2183787271    -1.2753539213
   10      C       2.5633973365     0.2496920709    -0.7468124744
   11      C       3.9505058118     0.9362833709    -0.5269066221
   12      C       4.9274487701     0.0687910009     0.3668169258
   13      C       4.2837033080    -1.2492215382     0.9382424123
   14      O       4.5740279844    -2.4263070545     0.6394175459
   15      O      -5.3011797980     1.6627632499     2.3120136578
   16      O       3.3752117598    -0.8724000424     1.9855290963
   17      O       2.2712650421    -0.9493102826    -0.5351996628
   18      C       2.6705170434    -2.0710588593     2.4903707598
   19      C       4.7700563289     0.9929486014    -1.8911071773
   20      C       6.0050221911     1.9577869585    -1.6904459634
   21      C       6.9670921633     1.0480475457    -0.8385741629
   22      C       6.0845692943    -0.2492550643    -0.6686410098
   23      O       5.3760175545    -0.3537255541    -1.9669421298
   24      H       3.7859705277     1.9463978950    -0.1116462703
   25      H       5.2954713994     0.6652251524     1.2209510592
   26      H       4.1504657581     1.1964390274    -2.7864638107
   27      H       6.4502452771     2.2218561084    -2.6627396054
   28      H       5.7211383987     2.8849098037    -1.1674919095
   29      H       7.8926888512     0.8153985146    -1.3889955655
   30      H       7.2350075190     1.4993658165     0.1298752889
   31      H       6.6346558301    -1.1866255929    -0.4566247592
   32      O      -2.3838278938     1.8897250356    -1.5139699138
   33      C      -4.6455002392     2.4554940896     3.3786256523
   34      C      -5.4590707708    -0.9228908532     0.7236492016
   35      C      -6.4725378219    -1.5972753244    -0.2828566937
   36      C      -5.5129083990    -1.9808489945    -1.4691103136
   37      C      -4.1315326100    -1.4314566958    -0.9332767503
   38      O      -4.2049915991    -1.6820351754     0.5252338446
   39      H      -5.9963915512     1.0687643320    -0.1531496057
   40      H      -4.6164247377     0.4815655902    -1.9948680780
   41      H      -4.2293990825     3.4045624978     2.9836023075
   42      H      -5.7656934449    -0.9371624080     1.7876260326
   43      H      -6.9316706244    -2.4891505850     0.1726464910
   44      H      -7.2733562386    -0.9055790734    -0.5900036721
   45      H      -5.4634225405    -3.0720863805    -1.6116727583
   46      H      -5.8038855328    -1.5119624225    -2.4223893277
   47      H      -3.2309692801    -1.9103839777    -1.3625832883
   48      H      -3.8262523971     1.8856655567     3.8630749862
   49      H      -5.4333281598     2.6757222487     4.1221623869
   50      H       2.0542181506    -1.7314191166     3.3431480135
   51      H       3.3795006660    -2.8533164037     2.8303986509
   52      H       2.0139949278    -2.5052412872     1.7080532516
   53      H       0.4097804725    -0.4053653760    -1.9270871263
   54      H      -0.2068714297     1.2838761981    -2.2055603614
   55      H       0.0456395957    -0.0903979397     0.5804355650
   56      H      -0.6075862978     1.5718691647     0.2682770179
 ----------------------------------------------------------------

    9   -1510.2880761551      6.50E-09 Convergence criterion met
 Total energy in the final basis set = -1510.28807616
 Final energy is   -1510.28807615514
 **  OPTIMIZATION CONVERGED  **

                    Orbital Energies (a.u.)
 --------------------------------------------------------------

 Alpha MOs
 -- Occupied --
-18.945 -18.937 -18.925 -18.916 -18.889 -18.888 -18.884 -18.880
-18.862 -18.859 -10.108 -10.102 -10.094 -10.087 -10.071 -10.065
-10.063 -10.063 -10.059 -10.059 -10.054 -10.051 -10.042 -10.037
-10.035 -10.030 -10.022 -10.020 -10.018 -10.017  -1.021  -1.016
 -1.002  -0.995  -0.971  -0.967  -0.945  -0.939  -0.928  -0.922
 -0.764  -0.760  -0.725  -0.721  -0.713  -0.704  -0.690  -0.668
 -0.651  -0.615  -0.596  -0.580  -0.547  -0.542  -0.538  -0.534
 -0.514  -0.507  -0.485  -0.473  -0.463  -0.454  -0.450  -0.445
 -0.435  -0.432  -0.428  -0.417  -0.410  -0.404  -0.400  -0.392
 -0.389  -0.381  -0.378  -0.363  -0.360  -0.354  -0.350  -0.344
 -0.339  -0.338  -0.335  -0.330  -0.329  -0.325  -0.322  -0.315
 -0.309  -0.307  -0.301  -0.301  -0.297  -0.282  -0.277  -0.274
 -0.270  -0.262  -0.256  -0.243  -0.241  -0.235  -0.231  -0.189
 -0.185  -0.163  -0.162  -0.160  -0.156  -0.147  -0.142  -0.142
 -0.139

          Ground-State Mulliken Net Atomic Charges

     Atom                 Charge (a.u.)
  ----------------------------------------
      1 O                    -0.207261
      2 C                     0.214814
      3 C                    -0.078119
      4 C                    -0.081813
      5 C                     0.214488
      6 O                    -0.169449
      7 C                    -0.049810
      8 C                    -0.055169
      9 O                    -0.170154
     10 C                     0.213662
     11 C                    -0.078102
     12 C                    -0.081182
     13 C                     0.216070
     14 O                    -0.214894
     15 O                    -0.168851
     16 O                    -0.178488
     17 O                    -0.209185
     18 C                    -0.129379
     19 C                     0.025444
     20 C                    -0.143813
     21 C                    -0.143885
     22 C                     0.024700
     23 O                    -0.188808
     24 H                     0.087150
     25 H                     0.083184
     26 H                     0.084042
     27 H                     0.077984
     28 H                     0.073755
     29 H                     0.077748
     30 H                     0.073057
     31 H                     0.089738
     32 O                    -0.223103
     33 C                    -0.128154
     34 C                     0.025199
     35 C                    -0.143832
     36 C                    -0.144187
     37 C                     0.026214
     38 O                    -0.187654
     39 H                     0.087178
     40 H                     0.083108
     41 H                     0.091810
     42 H                     0.086028
     43 H                     0.078475
     44 H                     0.073721
     45 H                     0.078332
     46 H                     0.073489
     47 H                     0.088554
     48 H                     0.090937
     49 H                     0.092423
     50 H                     0.085554
     51 H                     0.087507
     52 H                     0.091766
     53 H                     0.091914
     54 H                     0.099575
     55 H                     0.092306
     56 H                     0.095366
  ----------------------------------------
  Sum of atomic charges =     0.000000

                    Cartesian Multipole Moments
 -----------------------------------------------------------------
    Charge (ESU x 10^10)
                 0.0000
    Dipole Moment (Debye)
         X      -2.5652      Y       2.1719      Z       1.2533
       Tot       3.5872
    Quadrupole Moments (Debye-Ang)
        XX    -138.8212     XY      11.9358     YY    -165.0404
        XZ       2.8217     YZ       3.2587     ZZ    -152.4762

 Total job time:  93.47s(wall), 4450.13s(cpu)
        *  Thank you very much for using Q-Chem.  Have a nice day.  *
