 Q-Chem 5.0, Q-Chem, Inc., Pleasanton, CA (2017)
 Q-Chem 5.0.1 for Intel X86 EM64T Linux

User input:
--------------------------------------------------------------
$molecule
0  1
O -3.94934 -3.66094 2.70899
C -3.26408 -4.56952 2.26188
C -3.36658 -6.02376 2.66595
C -3.44909 -6.33091 4.17018
C -3.59902 -5.14252 5.09394
O -4.80417 -5.20141 5.73391
C -5.03232 -4.09113 6.60826
C -4.18075 -4.22894 7.86602
O -3.48235 -3.00013 8.12126
C -4.26298 -1.89574 8.22163
C -3.46476 -0.62303 8.37563
C -4.13491 0.46183 9.23136
C -5.30167 0.00433 10.08346
O -5.27472 -0.15545 11.2952
O -2.26263 -4.26287 1.39565
O -6.49606 -0.12662 9.44779
O -5.45623 -1.8739 7.95312
C -7.67329 -0.49354 10.06618
C -2.1066 -0.76709 9.10188
C -1.18146 0.37729 8.69035
C -1.84198 1.54181 9.39526
C -2.94852 0.80669 10.15933
O -2.39281 -0.4544 10.44054
H -3.28858 -0.25678 7.33919
H -4.46708 1.35673 8.66016
H -1.58954 -1.73434 8.92744
H -0.19358 0.18833 9.16901
H -1.03853 0.50344 7.59556
H -1.10665 1.98599 10.10258
H -2.25483 2.33022 8.72932
H -3.26219 1.40836 11.04104
O -2.74672 -4.27423 5.24512
C -1.98877 -2.98899 0.94348
C -4.68944 -6.65497 2.17913
C -4.50486 -8.15928 2.00168
C -4.38115 -8.59507 3.44511
C -4.68355 -7.27017 4.16001
O -5.55333 -6.59578 3.28712
H -2.52762 -6.56372 2.16926
H -2.54565 -6.8726 4.52698
H -1.73241 -2.32635 1.79768
H -5.07332 -6.20459 1.23716
H -5.4639 -8.55078 1.59186
H -3.67112 -8.47441 1.33805
H -5.16753 -9.3554 3.64892
H -3.38389 -8.98886 3.7383
H -5.07403 -7.49052 5.17744
H -2.86681 -2.57904 0.39998
H -1.12453 -3.02731 0.24914
H -8.486 -0.52374 9.31186
H -7.94064 0.24582 10.85113
H -7.56816 -1.50252 10.51931
H -4.80851 -4.53159 8.73331
H -3.4046 -5.01378 7.7452
H -6.10504 -4.07175 6.898
H -4.83631 -3.16018 6.02531
$end

$opt
CONSTRAINT
tors           1           2           3           4     -46.007
tors           3           4           5           6    +115.538
tors           4           5           6           7    -178.757
tors           5           6           7           8     -73.998
tors           6           7           8           9    +130.842
tors           7           8           9          10     +55.526
tors           8           9          10          11    -175.243
tors           9          10          11          12    -147.390
tors          11          12          13          14    +105.632
ENDCONSTRAINT
$end

$rem
JOBTYPE                   OPT
METHOD                    B3LYP
DFT_D                     d3_op
BASIS                     STO-3G
GEOM_OPT_MAX_CYCLES       100
GEOM_OPT_TOL_GRADIENT     300
GEOM_OPT_TOL_DISPLACEMENT 1200
GEOM_OPT_TOL_ENERGY       100
SYMMETRY                  False
THRESH                    12
SCF_CONVERGENCE           8
MAX_SUB_FILE_NUM          128
MEM_STATIC                400
MEM_TOTAL                 4000
$end
--------------------------------------------------------------

   15   -1510.1435781539      6.56E-09 Convergence criterion met
 Total energy in the final basis set = -1510.14357815
   14   -1510.2142016275      7.06E-09 Convergence criterion met
 Total energy in the final basis set = -1510.21420163
   13   -1510.2518143819      9.72E-09 Convergence criterion met
 Total energy in the final basis set = -1510.25181438
   14   -1510.2677638512      5.44E-09 Convergence criterion met
 Total energy in the final basis set = -1510.26776385
   13   -1510.2723158672      5.43E-09 Convergence criterion met
 Total energy in the final basis set = -1510.27231587
    2   -1510.2723158672      1.61E-09 Convergence criterion met
 Total energy in the final basis set = -1510.27231587
   13   -1510.2739316280      2.61E-09 Convergence criterion met
 Total energy in the final basis set = -1510.27393163
   13   -1510.2749615677      2.78E-09 Convergence criterion met
   11   -1510.2789369743      4.62E-09 Convergence criterion met
 Total energy in the final basis set = -1510.27893697
   10   -1510.2789635154      7.83E-09 Convergence criterion met
 Total energy in the final basis set = -1510.27896352
   11   -1510.2789887213      5.85E-09 Convergence criterion met
 Total energy in the final basis set = -1510.27898872
   11   -1510.2790080894      3.31E-09 Convergence criterion met
 Total energy in the final basis set = -1510.27900809
   10   -1510.2790128035      9.70E-09 Convergence criterion met
 Total energy in the final basis set = -1510.27901280
    9   -1510.2790142124      4.80E-09 Convergence criterion met
 Total energy in the final basis set = -1510.27901421

             Standard Nuclear Orientation (Angstroms)
    I     Atom           X                Y                Z
 ----------------------------------------------------------------
    1      O      -3.0412528661     0.4939971897     1.8034185229
    2      C      -3.9520683199     1.0729952492     1.1713163871
    3      C      -4.8038607025     0.4947673261    -0.0077194093
    4      C      -3.9306892367    -0.2517651772    -1.1065493702
    5      C      -2.3873022869    -0.1635964492    -0.8137176350
    6      O      -1.8639987120    -1.4704529913    -0.5558712887
    7      C      -0.4160673178    -1.3919428381    -0.2497037751
    8      C       0.4566920275    -1.1091845222    -1.5454182623
    9      O       1.4396118327    -0.0080409812    -1.3946130410
   10      C       2.3036623292    -0.2401385468    -0.2818205337
   11      C       3.2484456830     1.0008745729    -0.0800717499
   12      C       4.6679188352     0.5728740604     0.4801061614
   13      C       4.7348556132    -0.8964196272     1.0342653246
   14      O       5.2721910161    -1.8878310239     0.4958335699
   15      O      -4.4148822365     2.3962897380     1.4608487700
   16      O       4.2063669381    -0.8831435893     2.3685155212
   17      O       2.3219676183    -1.3080617665     0.3717007146
   18      C       4.1742556784    -2.2609467980     2.9057969063
   19      C       3.6679651734     1.5984017209    -1.4875246991
   20      C       4.4959906102     2.9272904909    -1.2722054040
   21      C       5.9047046712     2.3538885246    -0.8640028562
   22      C       5.5845386780     0.8112787457    -0.7933692950
   23      O       4.6747081302     0.6110082526    -1.9460321857
   24      H       2.7457714292     1.7387405334     0.5720556366
   25      H       4.9599482288     1.2451485198     1.3069129161
   26      H       2.8313506081     1.6657771157    -2.2088144035
   27      H       4.5467968515     3.5080951268    -2.2065369053
   28      H       4.0532606330     3.5604023708    -0.4866541025
   29      H       6.6593729371     2.5533453577    -1.6416193281
   30      H       6.2701375868     2.7533885940     0.0955344627
   31      H       6.4532245180     0.1284253955    -0.8628845876
   32      O      -1.6947772012     0.8779270526    -0.8149639507
   33      C      -3.6475488137     2.9617195892     2.5953508310
   34      C      -5.7317662461    -0.7001596053     0.4876093636
   35      C      -6.8135678718    -0.9794512763    -0.6289101258
   36      C      -5.9454059342    -1.7192503848    -1.7132310566
   37      C      -4.5252654688    -1.7194569945    -1.0195968378
   38      O      -4.8413455936    -1.8790097051     0.4189587156
   39      H      -5.3987644588     1.3147894874    -0.4460073925
   40      H      -4.1077517146     0.1961325752    -2.1016087387
   41      H      -2.5612874347     2.9958198001     2.3745548828
   42      H      -6.1332345787    -0.5761435027     1.5121095479
   43      H      -7.6119758180    -1.6298298352    -0.2375323168
   44      H      -7.2685197126    -0.0499818047    -1.0070347303
   45      H      -6.2944393082    -2.7516190720    -1.8740659620
   46      H      -5.9342762646    -1.1945555272    -2.6818524155
   47      H      -3.8296933605    -2.5124187516    -1.3534127208
   48      H      -3.7995739707     2.3735486914     3.5235852239
   49      H      -4.0296274814     3.9886947006     2.7412077367
   50      H       3.8177024289    -2.1772398209     3.9489233625
   51      H       5.1787299307    -2.7316752713     2.8915877167
   52      H       3.4760051592    -2.8984242570     2.3254729113
   53      H       0.9796422335    -2.0419141531    -1.8497960536
   54      H      -0.2006881873    -0.7861840511    -2.3773583460
   55      H      -0.1517170350    -2.3720661393     0.1909668675
   56      H      -0.2341380612    -0.5904587801     0.4980635289
 ----------------------------------------------------------------

    9   -1510.2790143387      6.16E-09 Convergence criterion met
 Total energy in the final basis set = -1510.27901434
 Final energy is   -1510.27901433874
 **  OPTIMIZATION CONVERGED  **

                    Orbital Energies (a.u.)
 --------------------------------------------------------------

 Alpha MOs
 -- Occupied --
-18.941 -18.936 -18.935 -18.917 -18.889 -18.881 -18.881 -18.873
-18.871 -18.859 -10.104 -10.100 -10.098 -10.088 -10.075 -10.071
-10.064 -10.062 -10.058 -10.054 -10.053 -10.051 -10.039 -10.038
-10.038 -10.029 -10.022 -10.020 -10.017 -10.016  -1.019  -1.013
 -1.008  -0.995  -0.971  -0.965  -0.941  -0.937  -0.934  -0.922
 -0.764  -0.759  -0.726  -0.721  -0.713  -0.704  -0.691  -0.664
 -0.651  -0.620  -0.595  -0.582  -0.547  -0.541  -0.538  -0.533
 -0.513  -0.506  -0.481  -0.476  -0.462  -0.453  -0.449  -0.447
 -0.434  -0.433  -0.427  -0.413  -0.410  -0.404  -0.401  -0.398
 -0.391  -0.377  -0.375  -0.363  -0.362  -0.358  -0.352  -0.346
 -0.343  -0.337  -0.332  -0.331  -0.328  -0.324  -0.321  -0.310
 -0.310  -0.304  -0.304  -0.298  -0.293  -0.287  -0.280  -0.273
 -0.272  -0.259  -0.255  -0.245  -0.241  -0.234  -0.230  -0.190
 -0.178  -0.169  -0.162  -0.157  -0.155  -0.149  -0.144  -0.141
 -0.139

          Ground-State Mulliken Net Atomic Charges

     Atom                 Charge (a.u.)
  ----------------------------------------
      1 O                    -0.212952
      2 C                     0.208981
      3 C                    -0.079379
      4 C                    -0.079011
      5 C                     0.210192
      6 O                    -0.167786
      7 C                    -0.048106
      8 C                    -0.048098
      9 O                    -0.164666
     10 C                     0.214840
     11 C                    -0.075984
     12 C                    -0.082000
     13 C                     0.213341
     14 O                    -0.218548
     15 O                    -0.168634
     16 O                    -0.173120
     17 O                    -0.211869
     18 C                    -0.127829
     19 C                     0.022841
     20 C                    -0.145157
     21 C                    -0.142790
     22 C                     0.023409
     23 O                    -0.191701
     24 H                     0.087534
     25 H                     0.083368
     26 H                     0.092284
     27 H                     0.077624
     28 H                     0.072924
     29 H                     0.077302
     30 H                     0.072758
     31 H                     0.088313
     32 O                    -0.218024
     33 C                    -0.128664
     34 C                     0.025878
     35 C                    -0.143773
     36 C                    -0.144376
     37 C                     0.024626
     38 O                    -0.186115
     39 H                     0.086589
     40 H                     0.083573
     41 H                     0.091635
     42 H                     0.082748
     43 H                     0.078226
     44 H                     0.073948
     45 H                     0.078080
     46 H                     0.072812
     47 H                     0.091416
     48 H                     0.088395
     49 H                     0.090393
     50 H                     0.086253
     51 H                     0.086296
     52 H                     0.091735
     53 H                     0.089686
     54 H                     0.093296
     55 H                     0.099823
     56 H                     0.097460
  ----------------------------------------
  Sum of atomic charges =     0.000000

                    Cartesian Multipole Moments
 -----------------------------------------------------------------
    Charge (ESU x 10^10)
                 0.0000
    Dipole Moment (Debye)
         X      -2.4341      Y       2.2190      Z       0.0069
       Tot       3.2938
    Quadrupole Moments (Debye-Ang)
        XX    -150.0082     XY       6.6582     YY    -157.3021
        XZ       9.9906     YZ       4.4385     ZZ    -155.4021

 Total job time:  61.77s(wall), 2936.83s(cpu)
        *  Thank you very much for using Q-Chem.  Have a nice day.  *
