 Q-Chem 5.0, Q-Chem, Inc., Pleasanton, CA (2017)
 Q-Chem 5.0.1 for Intel X86 EM64T Linux

User input:
--------------------------------------------------------------
$molecule
0  1
O -3.3999488077 0.9892433928 1.4233211698
C -4.5016379362 1.1653221792 0.8560462416
C -5.0644947881 0.381699104 -0.3753811263
C -3.9313624468 -0.3516214415 -1.2059566765
C -2.4724133191 0.0343585023 -0.7556315567
O -1.8570667458 -1.0829300144 -0.0999730386
C -0.4959384373 -0.7180169695 0.3527561683
C 0.5717831899 -1.0136235708 -0.7774608285
O 1.6582029672 -0.0057066627 -0.8132899319
C 2.5053788302 -0.1408114518 0.3317801838
C 3.5785264071 1.013741738 0.3382697033
C 5.0695652232 0.4637244231 0.4133217192
C 5.1797025203 -1.0674553303 0.7314511547
O 5.4740741028 -1.9916184756 -0.0569282262
O -5.4864352061 2.1073786308 1.2858897969
O 4.9782601033 -1.2390163203 2.1382392693
O 2.3785301167 -1.054463605 1.176865755
C 4.9834853301 -2.6796138382 2.4787410072
C 3.6296980629 1.7687265044 -1.0531607482
C 4.5692994749 3.0339861468 -0.9306967301
C 5.9964515612 2.3741844031 -1.0050046714
C 5.6104059314 0.8450622721 -1.0295298087
O 4.4048065124 0.8215663908 -1.8905594421
H 3.3585711476 1.6873749995 1.1869938771
H 5.6249800965 1.0039141382 1.2012887133
H 2.6350417496 1.9554257645 -1.5004036311
H 4.3967588881 3.7247544018 -1.7709368071
H 4.4043863387 3.579102365 0.0127817157
H 6.519540965 2.6517527408 -1.9340659881
H 6.6351213497 2.6350301876 -0.1460328136
H 6.3810427218 0.1540620701 -1.4230404066
O -1.8871481921 1.1124369668 -0.9995089156
C -5.0067463229 2.8299484574 2.487463024
C -5.9220906166 -0.8679936844 0.1139157533
C -6.709225986 -1.45257482 -1.1256648913
C -5.5588182151 -2.2073069052 -1.8892961693
C -4.316533115 -1.8727653219 -0.9727113296
O -4.8882428048 -1.8877660243 0.3945487838
H -5.6658719442 1.0684381966 -0.9970461479
H -4.0174317309 -0.0803018589 -2.2739929194
H -4.0810968824 3.4029534694 2.2749028795
H -6.5374023275 -0.6743726618 1.0142606692
H -7.4974230413 -2.145259888 -0.7899092524
H -7.1724846872 -0.6575899361 -1.731625942
H -5.7365896395 -3.2942267028 -1.9131347497
H -5.4242491355 -1.8478245931 -2.9219375608
H -3.46534679 -2.5759675941 -1.0430969908
H -4.8053869688 2.1347705241 3.3279593255
H -5.8176635745 3.526776444 2.768288484
H 4.9396808109 -2.734993369 3.5818855886
H 5.9011748929 -3.1838090623 2.1130254216
H 4.0992067056 -3.1927752518 2.0482261349
H 0.9879023465 -2.0358738836 -0.6548038595
H 0.0845777725 -0.937560751 -1.7706469547
H -0.2867331325 -1.3256415225 1.2547273279
H -0.4574245613 0.3634477861 0.6055269985
$end

$rem
JOBTYPE                   OPT
METHOD                    B3LYP
DFT_D                     d3_op
BASIS                     STO-3G
GEOM_OPT_MAX_CYCLES       100
GEOM_OPT_TOL_GRADIENT     300
GEOM_OPT_TOL_DISPLACEMENT 1200
GEOM_OPT_TOL_ENERGY       100
SYMMETRY                  False
THRESH                    12
SCF_CONVERGENCE           8
MAX_SUB_FILE_NUM          128
MEM_STATIC                400
MEM_TOTAL                 4000
$end
--------------------------------------------------------------

   16   -1510.2798456361      2.85E-09 Convergence criterion met
 Total energy in the final basis set = -1510.27984564
   14   -1510.2808472839      2.40E-09 Convergence criterion met
 Total energy in the final basis set = -1510.28084728
   13   -1510.2816917308      3.55E-09 Convergence criterion met
 Total energy in the final basis set = -1510.28169173
   13   -1510.2825249898      2.67E-09 Convergence criterion met
 Total energy in the final basis set = -1510.28252499
   13   -1510.2832452035      4.17E-09 Convergence criterion met
 Total energy in the final basis set = -1510.28324520
   13   -1510.2839541378      5.69E-09 Convergence criterion met
 Total energy in the final basis set = -1510.28395414
   13   -1510.2846595727      6.03E-09 Convergence criterion met
 Total energy in the final basis set = -1510.28465957
   13   -1510.2853818007      5.92E-09 Convergence criterion met
   12   -1510.2881762360      3.09E-09 Convergence criterion met
 Total energy in the final basis set = -1510.28817624
   11   -1510.2881665364      5.66E-09 Convergence criterion met
 Total energy in the final basis set = -1510.28816654
   11   -1510.2881734839      7.36E-09 Convergence criterion met
 Total energy in the final basis set = -1510.28817348
   10   -1510.2881701193      5.06E-09 Convergence criterion met
 Total energy in the final basis set = -1510.28817012
   10   -1510.2881669774      5.22E-09 Convergence criterion met
 Total energy in the final basis set = -1510.28816698
   10   -1510.2881649132      6.09E-09 Convergence criterion met
 Total energy in the final basis set = -1510.28816491

             Standard Nuclear Orientation (Angstroms)
    I     Atom           X                Y                Z
 ----------------------------------------------------------------
    1      O      -3.0853506458     1.2226506024     1.5030629073
    2      C      -4.2251776866     0.7053521894     1.4942543825
    3      C      -4.9807900916     0.0880792069     0.2696335367
    4      C      -4.1340112833     0.1203972604    -1.0695702786
    5      C      -2.7282458940     0.8159064442    -0.9340678488
    6      O      -1.7627624342    -0.1555566580    -0.5048456691
    7      C      -0.4486001724     0.4919888582    -0.2934368999
    8      C       0.3136543693     0.7371443190    -1.6522313015
    9      O       1.6223025678     1.3920095093    -1.4047655050
   10      C       2.5862171434     0.4313786724    -0.9630430247
   11      C       3.9241739852     1.1770381294    -0.6504145296
   12      C       4.7423254252     0.4936352535     0.5227690737
   13      C       4.0131078111    -0.7399709615     1.1691236935
   14      O       4.3944823338    -1.9286962008     1.1790594931
   15      O      -5.0575729347     0.5873262542     2.6490115897
   16      O       2.8346780849    -0.2590321756     1.8341479204
   17      O       2.3678294110    -0.7976496948    -0.8714230728
   18      C       2.0594911426    -1.4012951929     2.3675575894
   19      C       4.9563333489     1.0223310103    -1.8536921318
   20      C       6.1383630576     2.0459174955    -1.6294089428
   21      C       6.9474437177     1.3313456918    -0.4834406237
   22      C       6.0583615148     0.0495263094    -0.2392748196
   23      O       5.5733411644    -0.2964347986    -1.5966607263
   24      H       3.6982729566     2.2369860007    -0.4404587820
   25      H       4.9571697956     1.2271704079     1.3208524625
   26      H       4.4946984201     1.0484890050    -2.8600860480
   27      H       6.7388602947     2.1480933440    -2.5473097512
   28      H       5.7712438095     3.0418989567    -1.3342611319
   29      H       7.9558907382     1.0432588932    -0.8207504201
   30      H       7.0399354299     1.9509870055     0.4226884369
   31      H       6.5716761963    -0.8189520872     0.2174341397
   32      O      -2.4531210377     1.9946199442    -1.2487360347
   33      C      -4.3640647922     1.1470122412     3.8330452901
   34      C      -5.2117368612    -1.4765620651     0.4461149532
   35      C      -6.2848457717    -1.9426026644    -0.6148483251
   36      C      -5.4335321536    -1.9161360700    -1.9381844290
   37      C      -4.0325445696    -1.4326122528    -1.3903511432
   38      O      -3.9483060351    -2.0626115484    -0.0523152853
   39      H      -5.9438950985     0.6184245082     0.1546667434
   40      H      -4.6866498185     0.6608854516    -1.8582341482
   41      H      -4.0960309110     2.2126079385     3.6825840879
   42      H      -5.4074458838    -1.7894885345     1.4901476656
   43      H      -6.6383962544    -2.9593982002    -0.3808438716
   44      H      -7.1533468439    -1.2658153552    -0.6507221544
   45      H      -5.3470134411    -2.9208377817    -2.3815897234
   46      H      -5.8431923524    -1.2295895317    -2.6961588018
   47      H      -3.1587558968    -1.7177891240    -2.0067359609
   48      H      -3.4396752052     0.5804483018     4.0674174458
   49      H      -5.0765098641     1.0576787711     4.6735617256
   50      H       1.1786202773    -0.9653095869     2.8741351011
   51      H       2.6495447229    -1.9958851198     3.0945692439
   52      H       1.7245570522    -2.0736841980     1.5509191955
   53      H       0.4464234909    -0.2281662233    -2.1854032677
   54      H      -0.2654047650     1.4429562727    -2.2802726003
   55      H       0.1355628386    -0.2101355911     0.3341255152
   56      H      -0.5675881944     1.4587782363     0.2401887117
 ----------------------------------------------------------------

    9   -1510.2881658577      5.66E-09 Convergence criterion met
 Total energy in the final basis set = -1510.28816586
 Final energy is   -1510.28816585773
 **  OPTIMIZATION CONVERGED  **

                    Orbital Energies (a.u.)
 --------------------------------------------------------------

 Alpha MOs
 -- Occupied --
-18.944 -18.934 -18.924 -18.922 -18.889 -18.887 -18.885 -18.874
-18.866 -18.861 -10.108 -10.098 -10.093 -10.091 -10.071 -10.065
-10.062 -10.061 -10.059 -10.059 -10.055 -10.054 -10.042 -10.035
-10.035 -10.032 -10.022 -10.020 -10.019 -10.017  -1.021  -1.013
 -1.001  -0.999  -0.971  -0.967  -0.945  -0.936  -0.927  -0.927
 -0.764  -0.760  -0.725  -0.721  -0.713  -0.704  -0.689  -0.668
 -0.655  -0.615  -0.596  -0.580  -0.546  -0.542  -0.538  -0.535
 -0.513  -0.507  -0.484  -0.473  -0.464  -0.456  -0.449  -0.445
 -0.435  -0.432  -0.428  -0.417  -0.410  -0.406  -0.404  -0.392
 -0.388  -0.380  -0.378  -0.363  -0.359  -0.354  -0.351  -0.346
 -0.342  -0.337  -0.335  -0.330  -0.329  -0.324  -0.323  -0.315
 -0.308  -0.307  -0.301  -0.301  -0.295  -0.282  -0.278  -0.276
 -0.270  -0.262  -0.255  -0.246  -0.240  -0.235  -0.231  -0.188
 -0.183  -0.167  -0.162  -0.159  -0.154  -0.146  -0.144  -0.142
 -0.141

          Ground-State Mulliken Net Atomic Charges

     Atom                 Charge (a.u.)
  ----------------------------------------
      1 O                    -0.207295
      2 C                     0.214468
      3 C                    -0.078225
      4 C                    -0.081749
      5 C                     0.213903
      6 O                    -0.170120
      7 C                    -0.050338
      8 C                    -0.053991
      9 O                    -0.169778
     10 C                     0.211779
     11 C                    -0.078726
     12 C                    -0.079894
     13 C                     0.215003
     14 O                    -0.210184
     15 O                    -0.168991
     16 O                    -0.177771
     17 O                    -0.213092
     18 C                    -0.130046
     19 C                     0.025772
     20 C                    -0.143772
     21 C                    -0.143907
     22 C                     0.024755
     23 O                    -0.187400
     24 H                     0.087230
     25 H                     0.083658
     26 H                     0.082742
     27 H                     0.077938
     28 H                     0.073913
     29 H                     0.077907
     30 H                     0.072944
     31 H                     0.090238
     32 O                    -0.222206
     33 C                    -0.128114
     34 C                     0.025150
     35 C                    -0.143727
     36 C                    -0.144354
     37 C                     0.026632
     38 O                    -0.187127
     39 H                     0.086871
     40 H                     0.083133
     41 H                     0.091663
     42 H                     0.086404
     43 H                     0.078476
     44 H                     0.073687
     45 H                     0.078251
     46 H                     0.073515
     47 H                     0.087245
     48 H                     0.090672
     49 H                     0.092369
     50 H                     0.087312
     51 H                     0.087653
     52 H                     0.093479
     53 H                     0.091388
     54 H                     0.096038
     55 H                     0.092449
     56 H                     0.096169
  ----------------------------------------
  Sum of atomic charges =     0.000000

                    Cartesian Multipole Moments
 -----------------------------------------------------------------
    Charge (ESU x 10^10)
                -0.0000
    Dipole Moment (Debye)
         X      -2.5766      Y       1.8900      Z       1.1423
       Tot       3.3935
    Quadrupole Moments (Debye-Ang)
        XX    -140.4752     XY      15.0640     YY    -167.6960
        XZ       1.1135     YZ       1.8039     ZZ    -148.4779

 Total job time:  86.47s(wall), 4116.80s(cpu)
        *  Thank you very much for using Q-Chem.  Have a nice day.  *
