 Q-Chem 5.0, Q-Chem, Inc., Pleasanton, CA (2017)
 Q-Chem 5.0.1 for Intel X86 EM64T Linux

User input:
--------------------------------------------------------------
$molecule
0  1
O -3.94934 -3.66094 2.70899
C -3.26408 -4.56952 2.26188
C -3.36658 -6.02376 2.66595
C -4.03945 -6.33287 4.01337
C -4.69326 -5.16829 4.72358
O -6.05135 -5.31021 4.69432
C -6.74436 -4.2278 5.32469
C -6.93376 -4.5188 6.80981
O -6.81301 -3.30365 7.56592
C -7.83175 -2.42087 7.41755
C -7.59318 -1.11936 8.14541
C -8.69852 -0.71797 9.13303
C -9.67586 -1.81261 9.51153
O -9.69906 -2.40317 10.5817
O -2.45398 -4.31134 1.20172
O -10.60028 -2.14051 8.57129
O -8.78469 -2.59384 6.66798
C -11.56351 -3.11437 8.73219
C -6.34935 -1.05624 9.06418
C -5.91779 0.39816 9.2511
C -7.03252 0.91301 10.13465
C -7.82266 -0.37997 10.35995
O -6.8426 -1.3894 10.33628
H -7.47913 -0.35435 7.34469
H -9.29774 0.16221 8.81117
H -5.48067 -1.64663 8.70211
H -4.97403 0.38809 9.84262
H -5.75375 0.96886 8.31179
H -6.58669 1.26798 11.09049
H -7.66388 1.71193 9.68901
H -8.41799 -0.29996 11.29637
O -4.07296 -4.27395 5.28902
C -2.27879 -3.06265 0.64298
C -4.21659 -6.85282 1.6912
C -3.79029 -8.31665 1.7545
C -4.32576 -8.70456 3.11567
C -5.04513 -7.40861 3.51352
O -5.48945 -6.87985 2.2876
H -2.31671 -6.39581 2.68156
H -3.34511 -6.79153 4.75185
H -1.86521 -2.36058 1.3983
H -4.17291 -6.48187 0.64365
H -4.36987 -8.86194 0.97535
H -2.70505 -8.50023 1.60106
H -5.05931 -9.5303 2.97921
H -3.55808 -8.99954 3.86325
H -5.83121 -7.6503 4.26201
H -3.24686 -2.675 0.2597
H -1.56487 -3.13935 -0.20254
H -12.17992 -3.17147 7.81176
H -12.22312 -2.86273 9.59005
H -11.08361 -4.10177 8.90298
H -7.84908 -5.10988 7.03345
H -6.06847 -5.1303 7.14297
H -7.72629 -4.05814 4.83635
H -6.19371 -3.2684 5.17885
$end

$opt
CONSTRAINT
tors           1           2           3           4     -20.198
tors           3           4           5           6    +109.847
tors           4           5           6           7    -178.757
tors           5           6           7           8     -89.129
tors           6           7           8           9    +143.934
tors           7           8           9          10     +70.455
tors           8           9          10          11    -175.243
tors           9          10          11          12    -124.767
tors          11          12          13          14    +105.632
ENDCONSTRAINT
$end

$rem
JOBTYPE                   OPT
METHOD                    B3LYP
DFT_D                     d3_op
BASIS                     STO-3G
GEOM_OPT_MAX_CYCLES       100
GEOM_OPT_TOL_GRADIENT     300
GEOM_OPT_TOL_DISPLACEMENT 1200
GEOM_OPT_TOL_ENERGY       100
SYMMETRY                  False
THRESH                    12
SCF_CONVERGENCE           8
MAX_SUB_FILE_NUM          128
MEM_STATIC                400
MEM_TOTAL                 4000
$end
--------------------------------------------------------------

   15   -1510.1503437356      6.48E-09 Convergence criterion met
 Total energy in the final basis set = -1510.15034374
   13   -1510.2194516139      8.62E-09 Convergence criterion met
 Total energy in the final basis set = -1510.21945161
   14   -1510.2558901059      5.95E-09 Convergence criterion met
 Total energy in the final basis set = -1510.25589011
   14   -1510.2710147464      4.94E-09 Convergence criterion met
 Total energy in the final basis set = -1510.27101475
   13   -1510.2753756912      6.75E-09 Convergence criterion met
 Total energy in the final basis set = -1510.27537569
   13   -1510.2767953989      2.45E-09 Convergence criterion met
 Total energy in the final basis set = -1510.27679540
   13   -1510.2776155084      1.91E-09 Convergence criterion met
 Total energy in the final basis set = -1510.27761551
   12   -1510.2781155662      8.13E-09 Convergence criterion met
   11   -1510.2798078578      6.09E-09 Convergence criterion met
 Total energy in the final basis set = -1510.27980786
   11   -1510.2798194910      4.87E-09 Convergence criterion met
 Total energy in the final basis set = -1510.27981949
   10   -1510.2798309387      8.82E-09 Convergence criterion met
 Total energy in the final basis set = -1510.27983094
   11   -1510.2798412079      4.19E-09 Convergence criterion met
 Total energy in the final basis set = -1510.27984121
    9   -1510.2798432420      9.31E-09 Convergence criterion met
 Total energy in the final basis set = -1510.27984324
    9   -1510.2798452816      4.39E-09 Convergence criterion met
 Total energy in the final basis set = -1510.27984528

             Standard Nuclear Orientation (Angstroms)
    I     Atom           X                Y                Z
 ----------------------------------------------------------------
    1      O      -3.3999488077     0.9892433928     1.4233211698
    2      C      -4.5016379362     1.1653221792     0.8560462416
    3      C      -5.0644947881     0.3816991040    -0.3753811263
    4      C      -3.9313624468    -0.3516214415    -1.2059566765
    5      C      -2.4724133191     0.0343585023    -0.7556315567
    6      O      -1.8570667458    -1.0829300144    -0.0999730386
    7      C      -0.4959384373    -0.7180169695     0.3527561683
    8      C       0.5717831899    -1.0136235708    -0.7774608285
    9      O       1.6582029672    -0.0057066627    -0.8132899319
   10      C       2.5053788302    -0.1408114518     0.3317801838
   11      C       3.5785264071     1.0137417380     0.3382697033
   12      C       5.0695652232     0.4637244231     0.4133217192
   13      C       5.1797025203    -1.0674553303     0.7314511547
   14      O       5.4740741028    -1.9916184756    -0.0569282262
   15      O      -5.4864352061     2.1073786308     1.2858897969
   16      O       4.9782601033    -1.2390163203     2.1382392693
   17      O       2.3785301167    -1.0544636050     1.1768657550
   18      C       4.9834853301    -2.6796138382     2.4787410072
   19      C       3.6296980629     1.7687265044    -1.0531607482
   20      C       4.5692994749     3.0339861468    -0.9306967301
   21      C       5.9964515612     2.3741844031    -1.0050046714
   22      C       5.6104059314     0.8450622721    -1.0295298087
   23      O       4.4048065124     0.8215663908    -1.8905594421
   24      H       3.3585711476     1.6873749995     1.1869938771
   25      H       5.6249800965     1.0039141382     1.2012887133
   26      H       2.6350417496     1.9554257645    -1.5004036311
   27      H       4.3967588881     3.7247544018    -1.7709368071
   28      H       4.4043863387     3.5791023650     0.0127817157
   29      H       6.5195409650     2.6517527408    -1.9340659881
   30      H       6.6351213497     2.6350301876    -0.1460328136
   31      H       6.3810427218     0.1540620701    -1.4230404066
   32      O      -1.8871481921     1.1124369668    -0.9995089156
   33      C      -5.0067463229     2.8299484574     2.4874630240
   34      C      -5.9220906166    -0.8679936844     0.1139157533
   35      C      -6.7092259860    -1.4525748200    -1.1256648913
   36      C      -5.5588182151    -2.2073069052    -1.8892961693
   37      C      -4.3165331150    -1.8727653219    -0.9727113296
   38      O      -4.8882428048    -1.8877660243     0.3945487838
   39      H      -5.6658719442     1.0684381966    -0.9970461479
   40      H      -4.0174317309    -0.0803018589    -2.2739929194
   41      H      -4.0810968824     3.4029534694     2.2749028795
   42      H      -6.5374023275    -0.6743726618     1.0142606692
   43      H      -7.4974230413    -2.1452598880    -0.7899092524
   44      H      -7.1724846872    -0.6575899361    -1.7316259420
   45      H      -5.7365896395    -3.2942267028    -1.9131347497
   46      H      -5.4242491355    -1.8478245931    -2.9219375608
   47      H      -3.4653467900    -2.5759675941    -1.0430969908
   48      H      -4.8053869688     2.1347705241     3.3279593255
   49      H      -5.8176635745     3.5267764440     2.7682884840
   50      H       4.9396808109    -2.7349933690     3.5818855886
   51      H       5.9011748929    -3.1838090623     2.1130254216
   52      H       4.0992067056    -3.1927752518     2.0482261349
   53      H       0.9879023465    -2.0358738836    -0.6548038595
   54      H       0.0845777725    -0.9375607510    -1.7706469547
   55      H      -0.2867331325    -1.3256415225     1.2547273279
   56      H      -0.4574245613     0.3634477861     0.6055269985
 ----------------------------------------------------------------

    9   -1510.2798454868      3.81E-09 Convergence criterion met
 Total energy in the final basis set = -1510.27984549
 Final energy is   -1510.27984548683
 **  OPTIMIZATION CONVERGED  **

                    Orbital Energies (a.u.)
 --------------------------------------------------------------

 Alpha MOs
 -- Occupied --
-18.940 -18.935 -18.927 -18.926 -18.888 -18.881 -18.880 -18.873
-18.867 -18.864 -10.103 -10.098 -10.095 -10.092 -10.068 -10.068
-10.063 -10.062 -10.058 -10.055 -10.053 -10.053 -10.040 -10.036
-10.036 -10.032 -10.022 -10.020 -10.016 -10.015  -1.017  -1.013
 -1.004  -1.001  -0.971  -0.964  -0.941  -0.936  -0.929  -0.928
 -0.763  -0.758  -0.725  -0.721  -0.712  -0.703  -0.688  -0.666
 -0.655  -0.614  -0.595  -0.580  -0.546  -0.541  -0.538  -0.532
 -0.513  -0.506  -0.482  -0.475  -0.462  -0.456  -0.449  -0.444
 -0.434  -0.430  -0.427  -0.415  -0.410  -0.405  -0.401  -0.398
 -0.389  -0.377  -0.374  -0.363  -0.362  -0.357  -0.348  -0.347
 -0.341  -0.337  -0.334  -0.330  -0.326  -0.326  -0.319  -0.311
 -0.306  -0.304  -0.301  -0.300  -0.292  -0.281  -0.280  -0.276
 -0.272  -0.259  -0.254  -0.246  -0.241  -0.233  -0.228  -0.186
 -0.181  -0.170  -0.162  -0.158  -0.151  -0.148  -0.144  -0.142
 -0.138

          Ground-State Mulliken Net Atomic Charges

     Atom                 Charge (a.u.)
  ----------------------------------------
      1 O                    -0.208542
      2 C                     0.212651
      3 C                    -0.078322
      4 C                    -0.080529
      5 C                     0.213506
      6 O                    -0.170258
      7 C                    -0.052193
      8 C                    -0.049093
      9 O                    -0.165552
     10 C                     0.208089
     11 C                    -0.076131
     12 C                    -0.080386
     13 C                     0.208739
     14 O                    -0.214743
     15 O                    -0.169044
     16 O                    -0.167058
     17 O                    -0.216234
     18 C                    -0.127247
     19 C                     0.023156
     20 C                    -0.145360
     21 C                    -0.142971
     22 C                     0.023385
     23 O                    -0.189624
     24 H                     0.085936
     25 H                     0.084075
     26 H                     0.093765
     27 H                     0.077550
     28 H                     0.072220
     29 H                     0.077384
     30 H                     0.072354
     31 H                     0.087645
     32 O                    -0.221370
     33 C                    -0.128419
     34 C                     0.025492
     35 C                    -0.143907
     36 C                    -0.144007
     37 C                     0.024963
     38 O                    -0.188117
     39 H                     0.087240
     40 H                     0.083186
     41 H                     0.091179
     42 H                     0.083454
     43 H                     0.078256
     44 H                     0.074001
     45 H                     0.078083
     46 H                     0.073264
     47 H                     0.091363
     48 H                     0.090484
     49 H                     0.091484
     50 H                     0.088948
     51 H                     0.088093
     52 H                     0.091329
     53 H                     0.090956
     54 H                     0.091393
     55 H                     0.096698
     56 H                     0.098788
  ----------------------------------------
  Sum of atomic charges =     0.000000

                    Cartesian Multipole Moments
 -----------------------------------------------------------------
    Charge (ESU x 10^10)
                 0.0000
    Dipole Moment (Debye)
         X      -2.0216      Y       1.5914      Z       0.5975
       Tot       2.6413
    Quadrupole Moments (Debye-Ang)
        XX    -141.2869     XY       4.4359     YY    -155.0164
        XZ       9.9116     YZ       4.6581     ZZ    -157.9582

 Total job time:  67.47s(wall), 3208.65s(cpu)
        *  Thank you very much for using Q-Chem.  Have a nice day.  *
