 Q-Chem 5.0, Q-Chem, Inc., Pleasanton, CA (2017)
 Q-Chem 5.0.1 for Intel X86 EM64T Linux

User input:
--------------------------------------------------------------
$molecule
0  1
O 2.9582778951 -1.6044417321 -0.6942004511
C 4.1011429902 -1.2024422129 -1.008763235
C 4.8038176337 0.1138634484 -0.5437411743
C 3.7884030074 1.2085996091 -0.010811358
C 2.2822532253 0.7497065254 -0.0482509939
O 1.9225166874 0.2008994882 1.2274632816
C 0.5181090492 -0.2623392852 1.2021170524
C -0.4776501289 0.8999331376 1.6189090937
O -1.4626909416 1.2444488778 0.5648470326
C -2.3444067157 0.1455794274 0.3337818332
C -3.3023444297 0.4799025085 -0.8668567685
C -4.7003072833 -0.254668493 -0.7292606015
C -4.7396364413 -1.3848801081 0.3618191403
O -5.2861195706 -1.3418715529 1.484623561
O 5.0039915683 -1.931914701 -1.8433733713
O -4.1833326146 -2.5707611649 -0.2265735146
O -2.3531577134 -0.8948275796 1.0309482128
C -4.1335453582 -3.6525998359 0.7807152567
C -3.7674271495 1.9939233278 -0.7898834488
C -4.5898340932 2.3616861908 -2.0882429795
C -5.9792327258 1.6892379054 -1.7773245029
C -5.6591465501 0.9690682757 -0.4104525648
O -4.7883203387 1.946076401 0.2842114867
H -2.7920052544 0.2331927067 -1.8161077547
H -4.9701010803 -0.7230274816 -1.6926143265
H -2.9539625079 2.6956218191 -0.5236670279
H -4.6809714455 3.4544313121 -2.1917337418
H -4.1187090126 1.9600166466 -2.9997884549
H -6.7684219672 2.4450120964 -1.636725505
H -6.2991928724 0.982942217 -2.5601031031
H -6.5320010345 0.7116225592 0.2203192384
O 1.4849852 0.8973449059 -1.0004417528
C 4.3852725498 -3.2129361414 -2.2595960372
C 5.7035820161 -0.1219480213 0.7507562519
C 6.6782101315 1.1112320567 0.901130305
C 5.6831541784 2.2210948066 1.4045951765
C 4.3264049367 1.4133102829 1.4671011279
O 4.7501399979 0.0502459832 1.8679249287
H 5.4140436242 0.4967093958 -1.380867891
H 3.8665133901 2.1316553646 -0.6125259138
H 3.4420507108 -3.0471915109 -2.8191049813
H 6.187658948 -1.1169512487 0.7963661062
H 7.4544374132 0.8936427141 1.651838034
H 7.1687636797 1.3737202316 -0.0496968684
H 5.9596195855 2.5859179128 2.4065971939
H 5.6239714925 3.0823002988 0.7200128163
H 3.5735787782 1.8060668178 2.1766586041
H 4.1675992558 -3.8625207647 -1.3871631757
H 5.1238548221 -3.7090551729 -2.9156316631
H -3.7875320628 -4.5565602653 0.2464150748
H -5.130016859 -3.8423090579 1.2297112026
H -3.4198290799 -3.4065660748 1.5935547508
H -1.0045747865 0.6257761326 2.5578297705
H 0.0970147139 1.833067625 1.7886225296
H 0.4554834192 -1.0984043968 1.9258613089
H 0.2570073938 -0.6263023664 0.1857548103
$end

$rem
JOBTYPE                   OPT
METHOD                    B3LYP
DFT_D                     d3_op
BASIS                     STO-3G
GEOM_OPT_MAX_CYCLES       100
GEOM_OPT_TOL_GRADIENT     300
GEOM_OPT_TOL_DISPLACEMENT 1200
GEOM_OPT_TOL_ENERGY       100
SYMMETRY                  False
THRESH                    12
SCF_CONVERGENCE           8
MAX_SUB_FILE_NUM          128
MEM_STATIC                400
MEM_TOTAL                 4000
$end
--------------------------------------------------------------

   16   -1510.2824107470      6.12E-09 Convergence criterion met
 Total energy in the final basis set = -1510.28241075
   13   -1510.2834288267      4.85E-09 Convergence criterion met
 Total energy in the final basis set = -1510.28342883
   13   -1510.2841959935      5.36E-09 Convergence criterion met
 Total energy in the final basis set = -1510.28419599
   13   -1510.2847651153      4.45E-09 Convergence criterion met
 Total energy in the final basis set = -1510.28476512
   13   -1510.2851529503      2.69E-09 Convergence criterion met
 Total energy in the final basis set = -1510.28515295
   13   -1510.2854755156      6.78E-09 Convergence criterion met
 Total energy in the final basis set = -1510.28547552
   13   -1510.2856716682      6.32E-09 Convergence criterion met
 Total energy in the final basis set = -1510.28567167
   13   -1510.2858385153      5.22E-09 Convergence criterion met
   13   -1510.2939184216      7.39E-09 Convergence criterion met
 Total energy in the final basis set = -1510.29391842
   12   -1510.2939616276      6.67E-09 Convergence criterion met
 Total energy in the final basis set = -1510.29396163
   12   -1510.2939872957      6.77E-09 Convergence criterion met
 Total energy in the final basis set = -1510.29398730
   11   -1510.2940033927      4.32E-09 Convergence criterion met
 Total energy in the final basis set = -1510.29400339
   11   -1510.2939995170      3.02E-09 Convergence criterion met
 Total energy in the final basis set = -1510.29399952
    9   -1510.2940027299      5.06E-09 Convergence criterion met
 Total energy in the final basis set = -1510.29400273

             Standard Nuclear Orientation (Angstroms)
    I     Atom           X                Y                Z
 ----------------------------------------------------------------
    1      O       1.8212184875    -1.8870315295     0.4441258026
    2      C       2.7173315336    -1.7847007533    -0.4269909726
    3      C       3.4276968203    -0.4771301034    -0.9057916595
    4      C       2.7083569748     0.8481306754    -0.4183897839
    5      C       1.3682874585     0.5878721207     0.3690561766
    6      O       1.6256779082     0.6585867339     1.7757924241
    7      C       0.4306751581     0.2699134847     2.5569449152
    8      C      -0.6083184365     1.4381161809     2.7710095597
    9      O      -1.3130920556     1.8591146213     1.5363459933
   10      C      -2.1275046904     0.7871238774     1.0440497754
   11      C      -2.7934727011     1.2185864359    -0.3033546682
   12      C      -3.2877849389    -0.0225972389    -1.1560989814
   13      C      -2.9062979615    -1.4229662406    -0.5449839202
   14      O      -3.6847151301    -2.2921358801    -0.0979665982
   15      O       3.2854116439    -2.8902925780    -1.1259993261
   16      O      -1.4904839863    -1.5811045803    -0.6808427007
   17      O      -2.2977733811    -0.2970509957     1.6462561592
   18      C      -1.0322353996    -2.8091084647     0.0060098094
   19      C      -4.1779001065     1.9550644947    -0.0336739643
   20      C      -4.6665535567     2.6190101907    -1.3823805683
   21      C      -5.1912746641     1.3616359277    -2.1710357897
   22      C      -4.8559852315     0.2055033704    -1.1498502789
   23      O      -5.1172396222     0.8303431649     0.1691720682
   24      H      -2.0859118670     1.8561180972    -0.8617006942
   25      H      -2.8748778163     0.0301114070    -2.1795346699
   26      H      -4.1758700145     2.6270341819     0.8466315021
   27      H      -5.4751037673     3.3408258352    -1.1857406572
   28      H      -3.8479445239     3.1390599964    -1.9053364895
   29      H      -6.2775067049     1.4202520297    -2.3455946683
   30      H      -4.6833664333     1.2227029122    -3.1388229239
   31      H      -5.4468107460    -0.7249407327    -1.2569463847
   32      O       0.2427138754     0.4244329127    -0.1507534999
   33      C       2.6587566062    -4.1600929745    -0.6862342797
   34      C       4.8526489347    -0.3188914174    -0.2121158714
   35      C       5.6641416339     0.7855030879    -0.9970028926
   36      C       4.9525408167     2.0968095601    -0.4959969900
   37      C       3.8526665473     1.4988984872     0.4676983569
   38      O       4.5292427117     0.3286176205     1.0768729891
   39      H       3.5226075796    -0.5172596146    -2.0056612802
   40      H       2.4547650983     1.4818671494    -1.2871829723
   41      H       1.6208678292    -4.2483632135    -1.0673975648
   42      H       5.3880272670    -1.2747875231    -0.0505441647
   43      H       6.7259254552     0.7626976336    -0.7043692590
   44      H       5.5947146501     0.6525531118    -2.0884397441
   45      H       5.6460303092     2.7418269794     0.0667356553
   46      H       4.5127866758     2.6841977852    -1.3177028517
   47      H       3.4855663563     2.1845321555     1.2548191161
   48      H       2.6394440851    -4.2448359771     0.4189218759
   49      H       3.2767933480    -4.9702992342    -1.1147795859
   50      H       0.0528833311    -2.6590292091     0.1950981545
   51      H      -1.1906593435    -3.7067369114    -0.6277464415
   52      H      -1.5691353889    -2.9569152913     0.9638005776
   53      H      -1.3371623559     1.1041833531     3.5427418139
   54      H      -0.0885693982     2.3479447075     3.1332669391
   55      H       0.8169541855    -0.0311281334     3.5522079489
   56      H      -0.0921339060    -0.5906619980     2.0899261858
 ----------------------------------------------------------------

    9   -1510.2940023022      4.31E-09 Convergence criterion met
 Total energy in the final basis set = -1510.29400230
 Final energy is   -1510.29400230224
 **  OPTIMIZATION CONVERGED  **

                    Orbital Energies (a.u.)
 --------------------------------------------------------------

 Alpha MOs
 -- Occupied --
-18.950 -18.927 -18.925 -18.907 -18.894 -18.891 -18.878 -18.867
-18.865 -18.848 -10.114 -10.094 -10.094 -10.077 -10.074 -10.069
-10.065 -10.063 -10.060 -10.052 -10.047 -10.044 -10.037 -10.033
-10.027 -10.024 -10.022 -10.021 -10.013 -10.012  -1.026  -1.010
 -0.997  -0.985  -0.973  -0.961  -0.950  -0.930  -0.927  -0.911
 -0.766  -0.752  -0.727  -0.718  -0.712  -0.700  -0.690  -0.672
 -0.641  -0.614  -0.594  -0.575  -0.549  -0.540  -0.535  -0.528
 -0.516  -0.498  -0.487  -0.468  -0.460  -0.452  -0.444  -0.439
 -0.437  -0.424  -0.422  -0.421  -0.413  -0.411  -0.400  -0.392
 -0.385  -0.380  -0.374  -0.366  -0.362  -0.350  -0.348  -0.339
 -0.339  -0.334  -0.331  -0.327  -0.324  -0.322  -0.315  -0.314
 -0.307  -0.304  -0.301  -0.293  -0.288  -0.281  -0.280  -0.266
 -0.265  -0.261  -0.245  -0.243  -0.236  -0.227  -0.225  -0.191
 -0.186  -0.167  -0.156  -0.150  -0.148  -0.144  -0.141  -0.135
 -0.129

          Ground-State Mulliken Net Atomic Charges

     Atom                 Charge (a.u.)
  ----------------------------------------
      1 O                    -0.208170
      2 C                     0.219373
      3 C                    -0.078008
      4 C                    -0.080550
      5 C                     0.215678
      6 O                    -0.172252
      7 C                    -0.052530
      8 C                    -0.050949
      9 O                    -0.172592
     10 C                     0.225949
     11 C                    -0.075073
     12 C                    -0.078626
     13 C                     0.215391
     14 O                    -0.219791
     15 O                    -0.166093
     16 O                    -0.172096
     17 O                    -0.215698
     18 C                    -0.141345
     19 C                     0.024231
     20 C                    -0.143896
     21 C                    -0.143869
     22 C                     0.023959
     23 O                    -0.189724
     24 H                     0.089483
     25 H                     0.082430
     26 H                     0.080995
     27 H                     0.076190
     28 H                     0.072668
     29 H                     0.076213
     30 H                     0.072064
     31 H                     0.088732
     32 O                    -0.212834
     33 C                    -0.129467
     34 C                     0.025646
     35 C                    -0.143560
     36 C                    -0.144364
     37 C                     0.026054
     38 O                    -0.187599
     39 H                     0.088450
     40 H                     0.083492
     41 H                     0.091409
     42 H                     0.084319
     43 H                     0.078607
     44 H                     0.074168
     45 H                     0.078169
     46 H                     0.073716
     47 H                     0.089580
     48 H                     0.094386
     49 H                     0.093918
     50 H                     0.099184
     51 H                     0.071133
     52 H                     0.089904
     53 H                     0.089422
     54 H                     0.088148
     55 H                     0.088878
     56 H                     0.107152
  ----------------------------------------
  Sum of atomic charges =    -0.000000

                    Cartesian Multipole Moments
 -----------------------------------------------------------------
    Charge (ESU x 10^10)
                -0.0000
    Dipole Moment (Debye)
         X       3.8227      Y       1.2405      Z      -2.0560
       Tot       4.5143
    Quadrupole Moments (Debye-Ang)
        XX    -164.9327     XY      -9.8192     YY    -149.0792
        XZ       0.8932     YZ       1.5834     ZZ    -153.7035

 Total job time:  119.07s(wall), 5675.75s(cpu)
        *  Thank you very much for using Q-Chem.  Have a nice day.  *
