 Q-Chem 5.0, Q-Chem, Inc., Pleasanton, CA (2017)
 Q-Chem 5.0.1 for Intel X86 EM64T Linux

User input:
--------------------------------------------------------------
$molecule
0  1
O -3.94934 -3.66094 2.70899
C -3.26408 -4.56952 2.26188
C -3.36658 -6.02376 2.66595
C -4.03945 -6.33287 4.01337
C -4.69326 -5.16829 4.72358
O -6.02003 -5.1154 4.40372
C -6.70423 -4.01857 5.0186
C -7.2422 -4.4336 6.38406
O -6.66821 -3.60635 7.4083
C -7.01098 -2.29515 7.35905
C -6.28856 -1.45909 8.3885
C -7.06075 -0.22521 8.87791
C -8.54102 -0.20073 8.55399
O -9.44484 -0.39811 9.35319
O -2.45503 -4.31154 1.20087
O -8.87446 0.17403 7.2907
O -7.55857 -1.78983 6.38815
C -10.16838 0.28742 6.82616
C -6.00153 -2.16901 9.73317
C -4.8177 -1.4949 10.42496
C -5.44308 -0.17992 10.83637
C -6.89309 -0.41973 10.40122
O -7.07648 -1.80479 10.5598
H -5.32162 -1.17152 7.91753
H -6.62859 0.74536 8.54847
H -5.80251 -3.25823 9.6466
H -4.59792 -2.08509 11.34375
H -3.89229 -1.41099 9.81548
H -5.37372 -0.09003 11.94332
H -5.01407 0.72398 10.35215
H -7.57699 0.2325 10.98835
O -4.08034 -4.32574 5.36945
C -2.28236 -3.06339 0.64014
C -4.21379 -6.85271 1.68989
C -3.80689 -8.32242 1.77185
C -4.37914 -8.69662 3.12247
C -5.06857 -7.38217 3.50746
O -5.49186 -6.85426 2.27288
H -2.31627 -6.3937 2.68512
H -3.36945 -6.82083 4.75551
H -1.86959 -2.3594 1.39409
H -4.15242 -6.49102 0.64003
H -4.3704 -8.87057 0.98315
H -2.71904 -8.51251 1.6474
H -5.13997 -9.49456 2.9705
H -3.63604 -9.02253 3.88187
H -5.86695 -7.58686 4.25474
H -3.25139 -2.6781 0.25686
H -1.56891 -3.14015 -0.20578
H -10.14657 0.60635 5.76397
H -10.72263 1.04766 7.41701
H -10.68588 -0.69337 6.89453
H -8.35296 -4.35097 6.41916
H -6.99415 -5.49658 6.59217
H -7.5946 -3.82935 4.38129
H -6.12752 -3.06802 4.96491
$end

$opt
CONSTRAINT
tors           1           2           3           4     -20.198
tors           3           4           5           6     +94.131
tors           4           5           6           7    -178.800
tors           5           6           7           8     -89.129
tors           6           7           8           9    +119.843
tors           7           8           9          10     +65.427
tors           8           9          10          11    -175.243
tors           9          10          11          12    -150.675
tors          11          12          13          14    +105.632
ENDCONSTRAINT
$end

$rem
JOBTYPE                   OPT
METHOD                    B3LYP
DFT_D                     d3_op
BASIS                     STO-3G
GEOM_OPT_MAX_CYCLES       100
GEOM_OPT_TOL_GRADIENT     300
GEOM_OPT_TOL_DISPLACEMENT 1200
GEOM_OPT_TOL_ENERGY       100
SYMMETRY                  False
THRESH                    12
SCF_CONVERGENCE           8
MAX_SUB_FILE_NUM          128
MEM_STATIC                400
MEM_TOTAL                 4000
$end
--------------------------------------------------------------

   15   -1510.1422005293      6.52E-09 Convergence criterion met
 Total energy in the final basis set = -1510.14220053
   14   -1510.2128270799      7.16E-09 Convergence criterion met
 Total energy in the final basis set = -1510.21282708
   14   -1510.2508690394      6.13E-09 Convergence criterion met
 Total energy in the final basis set = -1510.25086904
   14   -1510.2679488137      4.53E-09 Convergence criterion met
 Total energy in the final basis set = -1510.26794881
    2   -1510.2679488135      3.59E-09 Convergence criterion met
 Total energy in the final basis set = -1510.26794881
   13   -1510.2743322332      6.39E-09 Convergence criterion met
 Total energy in the final basis set = -1510.27433223
   13   -1510.2771246551      3.71E-09 Convergence criterion met
 Total energy in the final basis set = -1510.27712466
   13   -1510.2784823073      3.63E-09 Convergence criterion met
   12   -1510.2823044533      3.94E-09 Convergence criterion met
 Total energy in the final basis set = -1510.28230445
   10   -1510.2823506556      9.86E-09 Convergence criterion met
 Total energy in the final basis set = -1510.28235066
   11   -1510.2823771071      3.45E-09 Convergence criterion met
 Total energy in the final basis set = -1510.28237711
   10   -1510.2823879967      8.20E-09 Convergence criterion met
 Total energy in the final basis set = -1510.28238800
   11   -1510.2823981950      2.59E-09 Convergence criterion met
 Total energy in the final basis set = -1510.28239820
   10   -1510.2824004615      8.28E-09 Convergence criterion met
 Total energy in the final basis set = -1510.28240046

             Standard Nuclear Orientation (Angstroms)
    I     Atom           X                Y                Z
 ----------------------------------------------------------------
    1      O       2.9582778951    -1.6044417321    -0.6942004511
    2      C       4.1011429902    -1.2024422129    -1.0087632350
    3      C       4.8038176337     0.1138634484    -0.5437411743
    4      C       3.7884030074     1.2085996091    -0.0108113580
    5      C       2.2822532253     0.7497065254    -0.0482509939
    6      O       1.9225166874     0.2008994882     1.2274632816
    7      C       0.5181090492    -0.2623392852     1.2021170524
    8      C      -0.4776501289     0.8999331376     1.6189090937
    9      O      -1.4626909416     1.2444488778     0.5648470326
   10      C      -2.3444067157     0.1455794274     0.3337818332
   11      C      -3.3023444297     0.4799025085    -0.8668567685
   12      C      -4.7003072833    -0.2546684930    -0.7292606015
   13      C      -4.7396364413    -1.3848801081     0.3618191403
   14      O      -5.2861195706    -1.3418715529     1.4846235610
   15      O       5.0039915683    -1.9319147010    -1.8433733713
   16      O      -4.1833326146    -2.5707611649    -0.2265735146
   17      O      -2.3531577134    -0.8948275796     1.0309482128
   18      C      -4.1335453582    -3.6525998359     0.7807152567
   19      C      -3.7674271495     1.9939233278    -0.7898834488
   20      C      -4.5898340932     2.3616861908    -2.0882429795
   21      C      -5.9792327258     1.6892379054    -1.7773245029
   22      C      -5.6591465501     0.9690682757    -0.4104525648
   23      O      -4.7883203387     1.9460764010     0.2842114867
   24      H      -2.7920052544     0.2331927067    -1.8161077547
   25      H      -4.9701010803    -0.7230274816    -1.6926143265
   26      H      -2.9539625079     2.6956218191    -0.5236670279
   27      H      -4.6809714455     3.4544313121    -2.1917337418
   28      H      -4.1187090126     1.9600166466    -2.9997884549
   29      H      -6.7684219672     2.4450120964    -1.6367255050
   30      H      -6.2991928724     0.9829422170    -2.5601031031
   31      H      -6.5320010345     0.7116225592     0.2203192384
   32      O       1.4849852000     0.8973449059    -1.0004417528
   33      C       4.3852725498    -3.2129361414    -2.2595960372
   34      C       5.7035820161    -0.1219480213     0.7507562519
   35      C       6.6782101315     1.1112320567     0.9011303050
   36      C       5.6831541784     2.2210948066     1.4045951765
   37      C       4.3264049367     1.4133102829     1.4671011279
   38      O       4.7501399979     0.0502459832     1.8679249287
   39      H       5.4140436242     0.4967093958    -1.3808678910
   40      H       3.8665133901     2.1316553646    -0.6125259138
   41      H       3.4420507108    -3.0471915109    -2.8191049813
   42      H       6.1876589480    -1.1169512487     0.7963661062
   43      H       7.4544374132     0.8936427141     1.6518380340
   44      H       7.1687636797     1.3737202316    -0.0496968684
   45      H       5.9596195855     2.5859179128     2.4065971939
   46      H       5.6239714925     3.0823002988     0.7200128163
   47      H       3.5735787782     1.8060668178     2.1766586041
   48      H       4.1675992558    -3.8625207647    -1.3871631757
   49      H       5.1238548221    -3.7090551729    -2.9156316631
   50      H      -3.7875320628    -4.5565602653     0.2464150748
   51      H      -5.1300168590    -3.8423090579     1.2297112026
   52      H      -3.4198290799    -3.4065660748     1.5935547508
   53      H      -1.0045747865     0.6257761326     2.5578297705
   54      H       0.0970147139     1.8330676250     1.7886225296
   55      H       0.4554834192    -1.0984043968     1.9258613089
   56      H       0.2570073938    -0.6263023664     0.1857548103
 ----------------------------------------------------------------

    9   -1510.2824013047      3.51E-09 Convergence criterion met
 Total energy in the final basis set = -1510.28240130
 Final energy is   -1510.28240130469
 **  OPTIMIZATION CONVERGED  **

                    Orbital Energies (a.u.)
 --------------------------------------------------------------

 Alpha MOs
 -- Occupied --
-18.942 -18.938 -18.925 -18.915 -18.890 -18.883 -18.880 -18.878
-18.864 -18.857 -10.105 -10.101 -10.094 -10.086 -10.071 -10.069
-10.064 -10.064 -10.060 -10.053 -10.052 -10.050 -10.041 -10.037
-10.035 -10.027 -10.023 -10.021 -10.016 -10.014  -1.018  -1.016
 -1.003  -0.993  -0.972  -0.964  -0.942  -0.938  -0.928  -0.920
 -0.764  -0.757  -0.726  -0.720  -0.712  -0.703  -0.689  -0.667
 -0.650  -0.616  -0.595  -0.579  -0.548  -0.539  -0.539  -0.532
 -0.514  -0.504  -0.483  -0.474  -0.463  -0.451  -0.446  -0.445
 -0.435  -0.429  -0.425  -0.416  -0.411  -0.405  -0.401  -0.397
 -0.389  -0.378  -0.374  -0.364  -0.359  -0.357  -0.347  -0.345
 -0.340  -0.337  -0.332  -0.329  -0.326  -0.324  -0.320  -0.313
 -0.308  -0.305  -0.302  -0.301  -0.295  -0.282  -0.279  -0.271
 -0.270  -0.260  -0.253  -0.242  -0.239  -0.235  -0.228  -0.188
 -0.183  -0.163  -0.160  -0.158  -0.153  -0.147  -0.144  -0.139
 -0.137

          Ground-State Mulliken Net Atomic Charges

     Atom                 Charge (a.u.)
  ----------------------------------------
      1 O                    -0.208233
      2 C                     0.211629
      3 C                    -0.079082
      4 C                    -0.080752
      5 C                     0.212904
      6 O                    -0.169692
      7 C                    -0.049385
      8 C                    -0.049553
      9 O                    -0.166420
     10 C                     0.214951
     11 C                    -0.076191
     12 C                    -0.082093
     13 C                     0.213806
     14 O                    -0.218931
     15 O                    -0.168985
     16 O                    -0.173693
     17 O                    -0.211635
     18 C                    -0.128118
     19 C                     0.023076
     20 C                    -0.145014
     21 C                    -0.142963
     22 C                     0.023552
     23 O                    -0.191848
     24 H                     0.088407
     25 H                     0.083197
     26 H                     0.091415
     27 H                     0.077328
     28 H                     0.073214
     29 H                     0.076997
     30 H                     0.072605
     31 H                     0.087876
     32 O                    -0.220597
     33 C                    -0.128518
     34 C                     0.025796
     35 C                    -0.143297
     36 C                    -0.144732
     37 C                     0.026582
     38 O                    -0.185912
     39 H                     0.086888
     40 H                     0.083586
     41 H                     0.091642
     42 H                     0.083905
     43 H                     0.078522
     44 H                     0.074243
     45 H                     0.078101
     46 H                     0.073533
     47 H                     0.087272
     48 H                     0.090298
     49 H                     0.091709
     50 H                     0.085466
     51 H                     0.086529
     52 H                     0.091274
     53 H                     0.091836
     54 H                     0.091621
     55 H                     0.095245
     56 H                     0.100642
  ----------------------------------------
  Sum of atomic charges =    -0.000000

                    Cartesian Multipole Moments
 -----------------------------------------------------------------
    Charge (ESU x 10^10)
                 0.0000
    Dipole Moment (Debye)
         X       3.1124      Y       0.1559      Z      -2.3626
       Tot       3.9107
    Quadrupole Moments (Debye-Ang)
        XX    -149.3699     XY       2.6747     YY    -150.4446
        XZ       7.4270     YZ       3.1719     ZZ    -160.1459

 Total job time:  60.06s(wall), 2855.79s(cpu)
        *  Thank you very much for using Q-Chem.  Have a nice day.  *
