 Q-Chem 5.0, Q-Chem, Inc., Pleasanton, CA (2017)
 Q-Chem 5.0.1 for Intel X86 EM64T Linux

User input:
--------------------------------------------------------------
$molecule
0  1
O 2.4224931966 -0.7551951605 1.2267731535
C 3.6616344104 -0.9249751343 1.2705621874
C 4.7216917527 -0.5282605763 0.1905272419
C 4.090875325 -0.1284494065 -1.2076321726
C 2.524273252 -0.2729589124 -1.263408873
O 1.9217118762 0.9905118934 -0.9479402307
C 0.4811631529 0.8288456552 -0.6464045534
C -0.3961208322 0.5133473217 -1.9299887145
O -1.5144037411 -0.4263638726 -1.6638174236
C -2.3763704371 0.0733342827 -0.6435334014
C -3.4621405497 -1.0151372935 -0.3244762111
C -4.5624729289 -0.4551434919 0.658388101
C -4.1337336951 0.827109564 1.4633817554
O -4.7485041699 1.9110955729 1.5470786873
O 4.346105012 -1.5129784907 2.3787677025
O -3.0304732374 0.4529565536 2.3083614745
O -2.3041823696 1.2259613372 -0.1580506866
C -2.5727271767 1.6289698077 3.0780796142
C -4.3374297298 -1.2269473167 -1.6342691847
C -5.3930679561 -2.3789295152 -1.3949776693
C -6.4799895054 -1.6330552059 -0.5338291607
C -5.7822374009 -0.2328399584 -0.3304639463
O -5.1509458243 0.0125790483 -1.6495947889
H -2.9806116624 -1.9416597996 0.0353110132
H -4.8153371701 -1.2270869662 1.4081744951
H -3.7395399699 -1.316531686 -2.5620187376
H -5.8039880991 -2.7302265882 -2.3546566613
H -4.9494448402 -3.2382427894 -0.8665140897
H -7.4229979351 -1.5160582711 -1.0917737103
H -6.6918437099 -2.1403848243 0.4208656716
H -6.4459933696 0.6094830024 -0.0535594086
O 1.895007961 -1.3100548181 -1.5672113626
C 3.3760549841 -1.86924272 3.4411463391
C 5.4691871198 0.8237252083 0.5803930259
C 6.7629616967 0.9469793144 -0.3178744481
C 6.1318799778 1.3476764051 -1.7028039647
C 4.5932481171 1.3716195076 -1.3422007897
O 4.5724434992 1.8734826832 0.0517477913
H 5.4411579149 -1.3602426165 0.0892427082
H 4.5076537001 -0.7674784528 -2.0065924586
H 2.6175602174 -2.5908692645 3.0747604877
H 5.6335557952 0.9563995027 1.6675508017
H 7.425517703 1.737268278 0.0695499732
H 7.3278964449 0.0021962774 -0.3618247729
H 6.4669559198 2.3461229652 -2.0262723788
H 6.3593215451 0.622756613 -2.500553474
H 3.963344041 2.00933848 -1.9912765491
H 2.8508641873 -0.9731016303 3.8302303941
H 3.9684485281 -2.3324922079 4.2513863202
H -1.7763138636 1.2657865645 3.7535499376
H -3.3939667851 2.0748134347 3.6760531831
H -2.1606450608 2.4110033471 2.4075361162
H -0.7850470414 1.4601671835 -2.3636582013
H 0.223991095 -0.0056213766 -2.6864144377
H 0.1611527923 1.7849169452 -0.1896591027
H 0.3485594878 0.008593184 0.0928710323
$end

$rem
JOBTYPE                   OPT
METHOD                    B3LYP
DFT_D                     d3_op
BASIS                     STO-3G
GEOM_OPT_MAX_CYCLES       100
GEOM_OPT_TOL_GRADIENT     300
GEOM_OPT_TOL_DISPLACEMENT 1200
GEOM_OPT_TOL_ENERGY       100
SYMMETRY                  False
THRESH                    12
SCF_CONVERGENCE           8
MAX_SUB_FILE_NUM          128
MEM_STATIC                400
MEM_TOTAL                 4000
$end
--------------------------------------------------------------

   16   -1510.2820195876      6.05E-09 Convergence criterion met
 Total energy in the final basis set = -1510.28201959
   13   -1510.2838856543      9.89E-09 Convergence criterion met
 Total energy in the final basis set = -1510.28388565
   13   -1510.2847669023      4.01E-09 Convergence criterion met
 Total energy in the final basis set = -1510.28476690
   13   -1510.2856757817      7.05E-09 Convergence criterion met
 Total energy in the final basis set = -1510.28567578
   13   -1510.2861891099      3.17E-09 Convergence criterion met
 Total energy in the final basis set = -1510.28618911
   13   -1510.2866594166      2.56E-09 Convergence criterion met
 Total energy in the final basis set = -1510.28665942
   13   -1510.2871165600      4.23E-09 Convergence criterion met
 Total energy in the final basis set = -1510.28711656
   13   -1510.2875035176      5.34E-09 Convergence criterion met
   12   -1510.2880868026      2.56E-09 Convergence criterion met
 Total energy in the final basis set = -1510.28808680
    9   -1510.2880824636      7.02E-09 Convergence criterion met
 Total energy in the final basis set = -1510.28808246
    9   -1510.2880788014      8.23E-09 Convergence criterion met
 Total energy in the final basis set = -1510.28807880
   10   -1510.2880757073      5.25E-09 Convergence criterion met
 Total energy in the final basis set = -1510.28807571
   12   -1510.2880586034      3.28E-09 Convergence criterion met
 Total energy in the final basis set = -1510.28805860
   13   -1510.2880257365      3.96E-09 Convergence criterion met
 Total energy in the final basis set = -1510.28802574

             Standard Nuclear Orientation (Angstroms)
    I     Atom           X                Y                Z
 ----------------------------------------------------------------
    1      O       3.2908133965    -1.0329101053    -2.1677786495
    2      C       4.4441462466    -1.0772370177    -1.6827354610
    3      C       5.0903448408    -0.0732032094    -0.6712659121
    4      C       4.1116365913     1.0963357621    -0.2437918618
    5      C       2.7105270105     1.0599304648    -0.9623030969
    6      O       1.8158004646     0.2431950872    -0.1929382070
    7      C       0.5235858746     0.0831905138    -0.8965398686
    8      C      -0.3655765717     1.3846790723    -0.8361352006
    9      O      -1.7448004175     1.0851235585    -1.2952944098
   10      C      -2.5404735768     0.6190933607    -0.2026785714
   11      C      -3.9728442520     0.2834488767    -0.7317432326
   12      C      -4.8535130799    -0.4943336049     0.3303590324
   13      C      -4.1072668123    -0.8379909540     1.6740697217
   14      O      -4.3043070180    -0.3363345489     2.8003876787
   15      O       5.3978088920    -2.0965608251    -1.9847468387
   16      O      -3.2382547833    -1.9528211226     1.4175654524
   17      O      -2.1343545283     0.5362846099     0.9790533195
   18      C      -2.4633803242    -2.2714921881     2.6363984624
   19      C      -4.8384217897     1.6077970478    -0.9207421431
   20      C      -6.1282768281     1.2411894406    -1.7573504329
   21      C      -6.9939429175     0.4963577640    -0.6740315148
   22      C      -6.0259222459     0.5444449192     0.5713653868
   23      O      -5.3591497581     1.8619807195     0.4395375041
   24      H      -3.8801722009    -0.2699555766    -1.6831868210
   25      H      -5.2290203780    -1.4393362964    -0.1015560717
   26      H      -4.2652841317     2.4786120129    -1.2941527934
   27      H      -6.6263028942     2.1558939652    -2.1161212797
   28      H      -5.8897863575     0.6048164887    -2.6246115639
   29      H      -7.9271336547     1.0415345523    -0.4598362468
   30      H      -7.2460997032    -0.5355505307    -0.9662408780
   31      H      -6.5089376869     0.4580226967     1.5638523646
   32      O       2.3812848217     1.7173161512    -1.9740244698
   33      C       4.8095970427    -3.0807080954    -2.9240158543
   34      C       5.3746839988    -0.7615510896     0.7345175289
   35      C       6.3448370029     0.1750794808     1.5570931618
   36      C       5.3606095271     1.3234727760     1.9912481055
   37      C       4.0134647711     0.8413853145     1.3210674603
   38      O       4.0807666124    -0.6346202800     1.4395191142
   39      H       6.0230353037     0.3160544949    -1.1185074852
   40      H       4.5654193220     2.0775250316    -0.4683735830
   41      H       4.4489432926    -2.5939463559    -3.8528187707
   42      H       5.6842312013    -1.8224437640     0.6633502427
   43      H       6.7502433886    -0.3627578296     2.4287864300
   44      H       7.1849418518     0.5405445549     0.9452394719
   45      H       5.2495077081     1.3661139700     3.0864070154
   46      H       5.6752155713     2.3153670052     1.6290151730
   47      H       3.0868429950     1.2234014538     1.7903178846
   48      H       3.9624432828    -3.6266224940    -2.4602343182
   49      H       5.6196630825    -3.7927394711    -3.1666162473
   50      H      -1.8381714874    -3.1477418181     2.3837333594
   51      H      -3.1252022542    -2.5218582600     3.4908510213
   52      H      -1.8119491909    -1.4231685595     2.9307170626
   53      H      -0.3800950612     1.7735128377     0.2042224425
   54      H       0.0412289620     2.1489611793    -1.5272513207
   55      H       0.0031177774    -0.7387946962    -0.3640344669
   56      H       0.6880734789    -0.2110058407    -1.9550552638
 ----------------------------------------------------------------

   10   -1510.2880252990      7.56E-09 Convergence criterion met
 Total energy in the final basis set = -1510.28802530
 Final energy is   -1510.28802529904
 **  OPTIMIZATION CONVERGED  **

                    Orbital Energies (a.u.)
 --------------------------------------------------------------

 Alpha MOs
 -- Occupied --
-18.945 -18.937 -18.924 -18.915 -18.889 -18.888 -18.884 -18.881
-18.862 -18.858 -10.108 -10.102 -10.094 -10.087 -10.071 -10.065
-10.063 -10.062 -10.059 -10.059 -10.054 -10.051 -10.042 -10.037
-10.035 -10.030 -10.022 -10.020 -10.018 -10.017  -1.021  -1.016
 -1.001  -0.994  -0.971  -0.967  -0.945  -0.940  -0.928  -0.921
 -0.764  -0.760  -0.725  -0.721  -0.713  -0.704  -0.690  -0.668
 -0.651  -0.615  -0.596  -0.579  -0.547  -0.542  -0.538  -0.534
 -0.513  -0.507  -0.485  -0.473  -0.463  -0.454  -0.450  -0.445
 -0.435  -0.432  -0.428  -0.417  -0.410  -0.404  -0.400  -0.394
 -0.390  -0.381  -0.377  -0.362  -0.361  -0.354  -0.349  -0.344
 -0.338  -0.337  -0.335  -0.329  -0.329  -0.325  -0.322  -0.315
 -0.309  -0.307  -0.301  -0.301  -0.297  -0.282  -0.277  -0.273
 -0.270  -0.262  -0.255  -0.243  -0.240  -0.235  -0.231  -0.189
 -0.185  -0.163  -0.162  -0.160  -0.157  -0.146  -0.142  -0.142
 -0.138

          Ground-State Mulliken Net Atomic Charges

     Atom                 Charge (a.u.)
  ----------------------------------------
      1 O                    -0.207619
      2 C                     0.214844
      3 C                    -0.078358
      4 C                    -0.081801
      5 C                     0.214603
      6 O                    -0.169664
      7 C                    -0.048610
      8 C                    -0.056326
      9 O                    -0.171038
     10 C                     0.213282
     11 C                    -0.078110
     12 C                    -0.081186
     13 C                     0.216034
     14 O                    -0.215585
     15 O                    -0.168825
     16 O                    -0.178067
     17 O                    -0.207735
     18 C                    -0.128844
     19 C                     0.025365
     20 C                    -0.143633
     21 C                    -0.144066
     22 C                     0.024838
     23 O                    -0.188694
     24 H                     0.086782
     25 H                     0.083055
     26 H                     0.084657
     27 H                     0.077948
     28 H                     0.073466
     29 H                     0.077679
     30 H                     0.072967
     31 H                     0.089432
     32 O                    -0.222706
     33 C                    -0.128204
     34 C                     0.025209
     35 C                    -0.143732
     36 C                    -0.144267
     37 C                     0.026465
     38 O                    -0.187257
     39 H                     0.087125
     40 H                     0.083318
     41 H                     0.092124
     42 H                     0.086133
     43 H                     0.078363
     44 H                     0.073640
     45 H                     0.078467
     46 H                     0.073626
     47 H                     0.088190
     48 H                     0.090607
     49 H                     0.092423
     50 H                     0.085689
     51 H                     0.085949
     52 H                     0.092752
     53 H                     0.094938
     54 H                     0.099498
     55 H                     0.089989
     56 H                     0.094870
  ----------------------------------------
  Sum of atomic charges =     0.000000

                    Cartesian Multipole Moments
 -----------------------------------------------------------------
    Charge (ESU x 10^10)
                 0.0000
    Dipole Moment (Debye)
         X       2.4092      Y      -1.6590      Z      -2.0494
       Tot       3.5717
    Quadrupole Moments (Debye-Ang)
        XX    -137.1038     XY       4.3098     YY    -155.0773
        XZ      10.2924     YZ       3.3187     ZZ    -163.8800

 Total job time:  67.26s(wall), 3197.32s(cpu)
        *  Thank you very much for using Q-Chem.  Have a nice day.  *
