 Q-Chem 5.0, Q-Chem, Inc., Pleasanton, CA (2017)
 Q-Chem 5.0.1 for Intel X86 EM64T Linux

User input:
--------------------------------------------------------------
$molecule
0  1
O -3.94934 -3.66094 2.70899
C -3.26408 -4.56952 2.26188
C -3.36658 -6.02376 2.66595
C -4.19418 -6.34776 3.92052
C -4.97302 -5.20265 4.52898
O -6.24938 -5.19951 4.04285
C -6.94745 -3.97678 4.30144
C -7.30229 -3.87697 5.78139
O -7.19805 -2.51289 6.21875
C -7.96806 -1.62368 5.54381
C -7.73001 -0.19518 5.97204
C -8.70116 0.83125 5.37071
C -9.95469 0.26247 4.7368
O -11.09864 0.60892 4.99354
O -2.41585 -4.30163 1.23456
O -9.76233 -0.27396 3.4968
O -8.83888 -2.02432 4.79259
C -10.77225 -0.68228 2.64867
C -7.95425 0.05175 7.47927
C -7.14715 1.27158 7.91773
C -7.91687 2.37993 7.22926
C -9.09669 1.58114 6.65991
O -9.27407 0.52659 7.57344
H -6.67032 0.03541 5.71904
H -8.21748 1.49333 4.61883
H -7.7039 -0.82188 8.11934
H -7.28917 1.37022 9.01814
H -6.05935 1.2396 7.69291
H -8.2564 3.1032 8.00352
H -7.36619 2.91151 6.4231
H -9.97167 2.25168 6.51285
O -4.45399 -4.30827 5.18943
C -2.22522 -3.04862 0.69084
C -4.05359 -6.89217 1.60146
C -3.607 -8.34477 1.75278
C -4.33074 -8.7295 3.02557
C -5.11163 -7.43948 3.3036
O -5.39429 -6.93779 2.01888
H -2.31428 -6.35342 2.82111
H -3.6027 -6.80039 4.74699
H -1.8424 -2.34988 1.4652
H -3.87408 -6.53805 0.56272
H -4.04665 -8.91999 0.90667
H -2.50599 -8.49508 1.76805
H -5.03578 -9.55773 2.78982
H -3.67765 -9.01966 3.87669
H -5.98989 -7.66796 3.94703
H -3.18033 -2.66226 0.27503
H -1.48071 -3.11706 -0.12861
H -10.32397 -1.08471 1.71734
H -11.42688 0.17659 2.38781
H -11.37452 -1.48195 3.1307
H -8.29871 -4.32681 5.98647
H -6.58135 -4.434 6.41207
H -7.86493 -3.93098 3.67899
H -6.3 -3.12791 3.9783
$end

$opt
CONSTRAINT
tors           1           2           3           4     -12.606
tors           3           4           5           6     +94.131
tors           4           5           6           7    -165.385
tors           5           6           7           8     -72.232
tors           6           7           8           9    +143.934
tors           7           8           9          10     +57.630
tors           8           9          10          11    -175.243
tors           9          10          11          12    -172.478
tors          11          12          13          14    +127.477
ENDCONSTRAINT
$end

$rem
JOBTYPE                   OPT
METHOD                    B3LYP
DFT_D                     d3_op
BASIS                     STO-3G
GEOM_OPT_MAX_CYCLES       100
GEOM_OPT_TOL_GRADIENT     300
GEOM_OPT_TOL_DISPLACEMENT 1200
GEOM_OPT_TOL_ENERGY       100
SYMMETRY                  False
THRESH                    12
SCF_CONVERGENCE           8
MAX_SUB_FILE_NUM          128
MEM_STATIC                400
MEM_TOTAL                 4000
$end
--------------------------------------------------------------

   15   -1510.1367061559      6.55E-09 Convergence criterion met
 Total energy in the final basis set = -1510.13670616
   14   -1510.2084275437      8.58E-09 Convergence criterion met
 Total energy in the final basis set = -1510.20842754
   14   -1510.2451771796      8.51E-09 Convergence criterion met
 Total energy in the final basis set = -1510.24517718
   14   -1510.2630817122      7.58E-09 Convergence criterion met
 Total energy in the final basis set = -1510.26308171
   13   -1510.2707639541      4.77E-09 Convergence criterion met
 Total energy in the final basis set = -1510.27076395
   13   -1510.2742785817      4.11E-09 Convergence criterion met
 Total energy in the final basis set = -1510.27427858
   12   -1510.2762982594      9.80E-09 Convergence criterion met
 Total energy in the final basis set = -1510.27629826
   12   -1510.2776252413      9.36E-09 Convergence criterion met
   11   -1510.2820259972      8.01E-09 Convergence criterion met
 Total energy in the final basis set = -1510.28202600
   11   -1510.2820761631      5.94E-09 Convergence criterion met
 Total energy in the final basis set = -1510.28207616
   11   -1510.2821245962      4.47E-09 Convergence criterion met
 Total energy in the final basis set = -1510.28212460
   11   -1510.2821421434      3.25E-09 Convergence criterion met
 Total energy in the final basis set = -1510.28214214
    9   -1510.2821398921      7.52E-09 Convergence criterion met
 Total energy in the final basis set = -1510.28213989
    9   -1510.2821417631      6.97E-09 Convergence criterion met
 Total energy in the final basis set = -1510.28214176

             Standard Nuclear Orientation (Angstroms)
    I     Atom           X                Y                Z
 ----------------------------------------------------------------
    1      O       2.4224931966    -0.7551951605     1.2267731535
    2      C       3.6616344104    -0.9249751343     1.2705621874
    3      C       4.7216917527    -0.5282605763     0.1905272419
    4      C       4.0908753250    -0.1284494065    -1.2076321726
    5      C       2.5242732520    -0.2729589124    -1.2634088730
    6      O       1.9217118762     0.9905118934    -0.9479402307
    7      C       0.4811631529     0.8288456552    -0.6464045534
    8      C      -0.3961208322     0.5133473217    -1.9299887145
    9      O      -1.5144037411    -0.4263638726    -1.6638174236
   10      C      -2.3763704371     0.0733342827    -0.6435334014
   11      C      -3.4621405497    -1.0151372935    -0.3244762111
   12      C      -4.5624729289    -0.4551434919     0.6583881010
   13      C      -4.1337336951     0.8271095640     1.4633817554
   14      O      -4.7485041699     1.9110955729     1.5470786873
   15      O       4.3461050120    -1.5129784907     2.3787677025
   16      O      -3.0304732374     0.4529565536     2.3083614745
   17      O      -2.3041823696     1.2259613372    -0.1580506866
   18      C      -2.5727271767     1.6289698077     3.0780796142
   19      C      -4.3374297298    -1.2269473167    -1.6342691847
   20      C      -5.3930679561    -2.3789295152    -1.3949776693
   21      C      -6.4799895054    -1.6330552059    -0.5338291607
   22      C      -5.7822374009    -0.2328399584    -0.3304639463
   23      O      -5.1509458243     0.0125790483    -1.6495947889
   24      H      -2.9806116624    -1.9416597996     0.0353110132
   25      H      -4.8153371701    -1.2270869662     1.4081744951
   26      H      -3.7395399699    -1.3165316860    -2.5620187376
   27      H      -5.8039880991    -2.7302265882    -2.3546566613
   28      H      -4.9494448402    -3.2382427894    -0.8665140897
   29      H      -7.4229979351    -1.5160582711    -1.0917737103
   30      H      -6.6918437099    -2.1403848243     0.4208656716
   31      H      -6.4459933696     0.6094830024    -0.0535594086
   32      O       1.8950079610    -1.3100548181    -1.5672113626
   33      C       3.3760549841    -1.8692427200     3.4411463391
   34      C       5.4691871198     0.8237252083     0.5803930259
   35      C       6.7629616967     0.9469793144    -0.3178744481
   36      C       6.1318799778     1.3476764051    -1.7028039647
   37      C       4.5932481171     1.3716195076    -1.3422007897
   38      O       4.5724434992     1.8734826832     0.0517477913
   39      H       5.4411579149    -1.3602426165     0.0892427082
   40      H       4.5076537001    -0.7674784528    -2.0065924586
   41      H       2.6175602174    -2.5908692645     3.0747604877
   42      H       5.6335557952     0.9563995027     1.6675508017
   43      H       7.4255177030     1.7372682780     0.0695499732
   44      H       7.3278964449     0.0021962774    -0.3618247729
   45      H       6.4669559198     2.3461229652    -2.0262723788
   46      H       6.3593215451     0.6227566130    -2.5005534740
   47      H       3.9633440410     2.0093384800    -1.9912765491
   48      H       2.8508641873    -0.9731016303     3.8302303941
   49      H       3.9684485281    -2.3324922079     4.2513863202
   50      H      -1.7763138636     1.2657865645     3.7535499376
   51      H      -3.3939667851     2.0748134347     3.6760531831
   52      H      -2.1606450608     2.4110033471     2.4075361162
   53      H      -0.7850470414     1.4601671835    -2.3636582013
   54      H       0.2239910950    -0.0056213766    -2.6864144377
   55      H       0.1611527923     1.7849169452    -0.1896591027
   56      H       0.3485594878     0.0085931840     0.0928710323
 ----------------------------------------------------------------

    9   -1510.2821422058      3.10E-09 Convergence criterion met
 Total energy in the final basis set = -1510.28214221
 Final energy is   -1510.28214220579
 **  OPTIMIZATION CONVERGED  **

                    Orbital Energies (a.u.)
 --------------------------------------------------------------

 Alpha MOs
 -- Occupied --
-18.943 -18.937 -18.925 -18.913 -18.890 -18.886 -18.881 -18.881
-18.865 -18.856 -10.107 -10.102 -10.095 -10.086 -10.070 -10.068
-10.064 -10.064 -10.060 -10.056 -10.052 -10.050 -10.042 -10.036
-10.036 -10.028 -10.023 -10.021 -10.017 -10.015  -1.020  -1.015
 -1.002  -0.992  -0.972  -0.965  -0.944  -0.939  -0.930  -0.919
 -0.765  -0.759  -0.726  -0.721  -0.712  -0.703  -0.688  -0.668
 -0.650  -0.616  -0.596  -0.580  -0.548  -0.540  -0.539  -0.532
 -0.515  -0.504  -0.483  -0.473  -0.463  -0.451  -0.450  -0.446
 -0.435  -0.431  -0.426  -0.417  -0.411  -0.402  -0.398  -0.395
 -0.386  -0.379  -0.377  -0.367  -0.359  -0.354  -0.350  -0.345
 -0.341  -0.335  -0.332  -0.330  -0.328  -0.323  -0.319  -0.314
 -0.309  -0.306  -0.303  -0.302  -0.297  -0.282  -0.279  -0.273
 -0.270  -0.261  -0.255  -0.241  -0.239  -0.235  -0.230  -0.187
 -0.184  -0.164  -0.161  -0.159  -0.154  -0.147  -0.142  -0.141
 -0.137

          Ground-State Mulliken Net Atomic Charges

     Atom                 Charge (a.u.)
  ----------------------------------------
      1 O                    -0.210186
      2 C                     0.213383
      3 C                    -0.078627
      4 C                    -0.081295
      5 C                     0.213324
      6 O                    -0.171179
      7 C                    -0.050164
      8 C                    -0.050685
      9 O                    -0.167149
     10 C                     0.217346
     11 C                    -0.076200
     12 C                    -0.081695
     13 C                     0.216714
     14 O                    -0.219510
     15 O                    -0.168975
     16 O                    -0.178630
     17 O                    -0.208039
     18 C                    -0.128404
     19 C                     0.023795
     20 C                    -0.144884
     21 C                    -0.142548
     22 C                     0.023096
     23 O                    -0.192590
     24 H                     0.088489
     25 H                     0.082433
     26 H                     0.087274
     27 H                     0.077716
     28 H                     0.073397
     29 H                     0.077318
     30 H                     0.072689
     31 H                     0.090362
     32 O                    -0.219265
     33 C                    -0.128347
     34 C                     0.025702
     35 C                    -0.143527
     36 C                    -0.144336
     37 C                     0.026332
     38 O                    -0.186864
     39 H                     0.087468
     40 H                     0.082667
     41 H                     0.091560
     42 H                     0.084449
     43 H                     0.078487
     44 H                     0.074028
     45 H                     0.078137
     46 H                     0.073473
     47 H                     0.088488
     48 H                     0.090425
     49 H                     0.092091
     50 H                     0.084766
     51 H                     0.086175
     52 H                     0.089816
     53 H                     0.086639
     54 H                     0.098412
     55 H                     0.098627
     56 H                     0.098021
  ----------------------------------------
  Sum of atomic charges =     0.000000

                    Cartesian Multipole Moments
 -----------------------------------------------------------------
    Charge (ESU x 10^10)
                 0.0000
    Dipole Moment (Debye)
         X       3.1126      Y      -2.5030      Z       0.8617
       Tot       4.0861
    Quadrupole Moments (Debye-Ang)
        XX    -147.6354     XY      10.3649     YY    -163.4066
        XZ      -2.3696     YZ      -4.3957     ZZ    -150.5703

 Total job time:  57.77s(wall), 2744.23s(cpu)
        *  Thank you very much for using Q-Chem.  Have a nice day.  *
