 Q-Chem 5.0, Q-Chem, Inc., Pleasanton, CA (2017)
 Q-Chem 5.0.1 for Intel X86 EM64T Linux

User input:
--------------------------------------------------------------
$molecule
0  1
O 3.1761873564 -1.3584306244 1.0664807987
C 4.3999714791 -1.2164171506 0.8451917181
C 5.0736485854 -0.3446425283 -0.2650611728
C 4.051535977 0.195761785 -1.3483809232
C 2.5593125427 -0.2464511469 -1.0986078229
O 1.9217411962 0.736528314 -0.2731179434
C 0.5278447056 0.3593728188 0.0513359089
C -0.4365577005 0.3833463074 -1.2025210211
O -1.6304787291 -0.4820033972 -1.0306155965
C -2.432644727 -0.042565623 0.0663358143
C -3.6425980657 -1.032623331 0.2722869094
C -4.9957921006 -0.2541322261 0.5617536427
C -4.8090444668 1.2537281462 0.9566839545
O -5.0492389039 2.2626557897 0.2596310726
O 5.4292277476 -1.8334536749 1.6210768518
O -4.449208709 1.2944155355 2.344219289
O -2.2137864618 1.0074530181 0.7120846542
C -4.1844278575 2.691443024 2.7525791636
C -4.017487506 -1.7391700394 -1.0954230605
C -5.1444139469 -2.8205339024 -0.8481078838
C -6.4276862418 -1.9157384564 -0.7341144228
C -5.7790477463 -0.4796013585 -0.7995756449
O -4.7151516159 -0.6466092056 -1.8170325909
H -3.3954812976 -1.745855778 1.0801854295
H -5.5260005878 -0.7397327691 1.4011963833
H -3.1416918173 -2.0878792729 -1.674497873
H -5.2099330695 -3.5132663893 -1.7017730504
H -4.9576193454 -3.4068037252 0.0662494283
H -7.1029699879 -2.0697064645 -1.5910563212
H -6.9918021347 -2.0837978818 0.1972779694
H -6.4573465192 0.3495004722 -1.0797753416
O 1.9917211321 -1.2399437253 -1.6037548195
C 4.8291036532 -2.646135494 2.7053757301
C 5.6461377705 1.0222114095 0.3203772192
C 6.6489185501 1.6260083294 -0.7397364658
C 5.6490296195 2.152949639 -1.8343727062
C 4.2586244139 1.7616251678 -1.1946828781
O 4.483940586 1.9347237277 0.2602710859
H 5.8816144368 -0.9401105335 -0.7271003286
H 4.3331778885 -0.160855532 -2.3551732309
H 4.1814266047 -3.4503909699 2.3004274012
H 6.036322716 0.9485708756 1.3541949561
H 7.2290018041 2.4485748661 -0.2918585307
H 7.3497172245 0.8702457238 -1.1290364249
H 5.7218360047 3.2455435361 -1.9546104752
H 5.8041692972 1.6789392533 -2.8168303279
H 3.396870825 2.3714103125 -1.5264313538
H 4.2258446489 -2.022183993 3.3960739157
H 5.6771115483 -3.0945390832 3.2548584433
H -3.9853231817 2.6620128559 3.8395911204
H -5.0534847767 3.3503330138 2.5494615742
H -3.2981198749 3.0989676755 2.2244221437
H -0.7412725005 1.427702934 -1.428328522
H 0.0918871148 -0.0490601418 -2.0745209497
H 0.1862411427 1.0922442931 0.8076569373
H 0.5041934371 -0.6609711982 0.4946033681
$end

$rem
JOBTYPE                   OPT
METHOD                    B3LYP
DFT_D                     d3_op
BASIS                     STO-3G
GEOM_OPT_MAX_CYCLES       100
GEOM_OPT_TOL_GRADIENT     300
GEOM_OPT_TOL_DISPLACEMENT 1200
GEOM_OPT_TOL_ENERGY       100
SYMMETRY                  False
THRESH                    12
SCF_CONVERGENCE           8
MAX_SUB_FILE_NUM          128
MEM_STATIC                400
MEM_TOTAL                 4000
$end
--------------------------------------------------------------

   16   -1510.2812903926      4.08E-09 Convergence criterion met
 Total energy in the final basis set = -1510.28129039
   14   -1510.2830019859      1.32E-09 Convergence criterion met
 Total energy in the final basis set = -1510.28300199
   13   -1510.2842395078      3.31E-09 Convergence criterion met
 Total energy in the final basis set = -1510.28423951
   13   -1510.2852003962      3.83E-09 Convergence criterion met
 Total energy in the final basis set = -1510.28520040
   13   -1510.2858224762      4.02E-09 Convergence criterion met
 Total energy in the final basis set = -1510.28582248
   13   -1510.2864888586      7.80E-09 Convergence criterion met
 Total energy in the final basis set = -1510.28648886
   13   -1510.2869800857      2.98E-09 Convergence criterion met
 Total energy in the final basis set = -1510.28698009
   13   -1510.2873508874      5.19E-09 Convergence criterion met
   12   -1510.2881503543      3.01E-09 Convergence criterion met
 Total energy in the final basis set = -1510.28815035
   14   -1510.2880004744      1.91E-09 Convergence criterion met
 Total energy in the final basis set = -1510.28800047
   13   -1510.2881356893      7.40E-09 Convergence criterion met
 Total energy in the final basis set = -1510.28813569
   11   -1510.2881289263      7.51E-09 Convergence criterion met
 Total energy in the final basis set = -1510.28812893
   12   -1510.2881120851      2.67E-09 Convergence criterion met
 Total energy in the final basis set = -1510.28811209
   10   -1510.2881086805      4.78E-09 Convergence criterion met
 Total energy in the final basis set = -1510.28810868

             Standard Nuclear Orientation (Angstroms)
    I     Atom           X                Y                Z
 ----------------------------------------------------------------
    1      O      -2.9731503553     1.0693807746     1.6620220975
    2      C      -4.1163622716     0.5621512350     1.6135700189
    3      C      -4.9435441853     0.1966200416     0.3343880367
    4      C      -4.1374545310     0.4065603779    -1.0142744785
    5      C      -2.6905883824     0.9956475683    -0.8210078200
    6      O      -1.7811995554    -0.0803373808    -0.5450303848
    7      C      -0.4304433787     0.4525324994    -0.2580243701
    8      C       0.3467300393     0.8339174509    -1.5756140819
    9      O       1.6721266709     1.4200995160    -1.2549488934
   10      C       2.5994954440     0.3956193897    -0.8825446832
   11      C       3.9598822083     1.0736752787    -0.5147985202
   12      C       4.7234334415     0.3262905922     0.6558667938
   13      C       3.9340612038    -0.8986061966     1.2453251690
   14      O       4.2769383267    -2.0989512607     1.2395122401
   15      O      -4.8880769050     0.2223487336     2.7665364606
   16      O       2.7417466428    -0.3978830261     1.8687663629
   17      O       2.3394650269    -0.8284053664    -0.8847938819
   18      C       1.9140390088    -1.5277066807     2.3474790137
   19      C       5.0118930512     0.9107760897    -1.6994946101
   20      C       6.2248368735     1.8850264361    -1.4238927208
   21      C       6.9785095306     1.1152476398    -0.2754340367
   22      C       6.0418086941    -0.1413812055    -0.0874958104
   23      O       5.5764845146    -0.4352691463    -1.4637639732
   24      H       3.7716346329     2.1355058040    -0.2789808297
   25      H       4.9441506097     1.0269253629     1.4815483845
   26      H       4.5740671641     0.9782271341    -2.7145349788
   27      H       6.8513693351     1.9854550053    -2.3243979495
   28      H       5.8867041072     2.8868614537    -1.1142075287
   29      H       7.9858429407     0.8019887482    -0.5930510326
   30      H       7.0662270296     1.7087550160     0.6484884244
   31      H       6.5154870786    -1.0383059310     0.3569717288
   32      O      -2.3499026018     2.1881341873    -0.9804917887
   33      C      -4.1311869423     0.5492622990     3.9977610097
   34      C      -5.2591640190    -1.3598825892     0.2608962054
   35      C      -6.3857266251    -1.5898038370    -0.8218971763
   36      C      -5.5705242598    -1.3963378192    -2.1540337873
   37      C      -4.1315103418    -1.0755993966    -1.5871975174
   38      O      -4.0446474763    -1.9196159609    -0.3723475227
   39      H      -5.8756627845     0.7907463170     0.3464848237
   40      H      -4.6818692379     1.0973140110    -1.6822044910
   41      H      -3.9157124273     1.6351536341     4.0668314666
   42      H      -5.4426212782    -1.8298284013     1.2466317729
   43      H      -6.7925185765    -2.6104447064    -0.7415462541
   44      H      -7.2140202685    -0.8704533865    -0.7207243503
   45      H      -5.5499876868    -2.3216693607    -2.7513953957
   46      H      -5.9632686561    -0.5799745010    -2.7809671528
   47      H      -3.2919534559    -1.2986225953    -2.2728411677
   48      H      -3.1713136715    -0.0043423463     4.0443872683
   49      H      -4.7770221067     0.2451078280     4.8417890597
   50      H       1.0158463597    -1.0765678777     2.8082369126
   51      H       2.4497715297    -2.1402097412     3.1012249850
   52      H       1.6111242183    -2.1866080690     1.5077497352
   53      H       0.4537844739    -0.0636767225    -2.2211309730
   54      H      -0.2080390660     1.6260503255    -2.1169469221
   55      H       0.1093444616    -0.3623339970     0.2639258835
   56      H      -0.4910426064     1.3428183322     0.4032143654
 ----------------------------------------------------------------

   10   -1510.2881081339      4.32E-09 Convergence criterion met
 Total energy in the final basis set = -1510.28810813
 Final energy is   -1510.28810813386
 **  OPTIMIZATION CONVERGED  **

                    Orbital Energies (a.u.)
 --------------------------------------------------------------

 Alpha MOs
 -- Occupied --
-18.944 -18.934 -18.923 -18.923 -18.888 -18.887 -18.885 -18.873
-18.868 -18.862 -10.108 -10.098 -10.093 -10.092 -10.071 -10.065
-10.062 -10.061 -10.059 -10.059 -10.056 -10.054 -10.042 -10.035
-10.035 -10.033 -10.022 -10.020 -10.019 -10.017  -1.021  -1.012
 -1.002  -1.000  -0.971  -0.967  -0.945  -0.935  -0.928  -0.927
 -0.764  -0.760  -0.725  -0.721  -0.713  -0.704  -0.689  -0.668
 -0.656  -0.614  -0.596  -0.580  -0.546  -0.542  -0.538  -0.535
 -0.513  -0.507  -0.484  -0.473  -0.464  -0.456  -0.449  -0.444
 -0.435  -0.432  -0.428  -0.417  -0.410  -0.407  -0.404  -0.391
 -0.387  -0.380  -0.379  -0.363  -0.359  -0.354  -0.351  -0.346
 -0.342  -0.337  -0.334  -0.330  -0.328  -0.325  -0.323  -0.315
 -0.308  -0.306  -0.301  -0.301  -0.295  -0.282  -0.279  -0.276
 -0.270  -0.262  -0.255  -0.247  -0.240  -0.234  -0.231  -0.188
 -0.183  -0.169  -0.162  -0.159  -0.153  -0.146  -0.145  -0.142
 -0.141

          Ground-State Mulliken Net Atomic Charges

     Atom                 Charge (a.u.)
  ----------------------------------------
      1 O                    -0.207716
      2 C                     0.214760
      3 C                    -0.078101
      4 C                    -0.081731
      5 C                     0.213854
      6 O                    -0.170676
      7 C                    -0.050846
      8 C                    -0.053521
      9 O                    -0.169694
     10 C                     0.211499
     11 C                    -0.078830
     12 C                    -0.079632
     13 C                     0.214791
     14 O                    -0.209447
     15 O                    -0.169026
     16 O                    -0.177043
     17 O                    -0.214007
     18 C                    -0.129975
     19 C                     0.025748
     20 C                    -0.143720
     21 C                    -0.143964
     22 C                     0.024767
     23 O                    -0.187178
     24 H                     0.087304
     25 H                     0.083781
     26 H                     0.082617
     27 H                     0.077939
     28 H                     0.073920
     29 H                     0.077916
     30 H                     0.072950
     31 H                     0.090157
     32 O                    -0.221413
     33 C                    -0.127957
     34 C                     0.024947
     35 C                    -0.143799
     36 C                    -0.144271
     37 C                     0.026477
     38 O                    -0.187129
     39 H                     0.086793
     40 H                     0.083076
     41 H                     0.090811
     42 H                     0.087085
     43 H                     0.078411
     44 H                     0.073551
     45 H                     0.078246
     46 H                     0.073505
     47 H                     0.086777
     48 H                     0.091252
     49 H                     0.092441
     50 H                     0.087702
     51 H                     0.087550
     52 H                     0.093597
     53 H                     0.090398
     54 H                     0.095738
     55 H                     0.093032
     56 H                     0.096285
  ----------------------------------------
  Sum of atomic charges =     0.000000

                    Cartesian Multipole Moments
 -----------------------------------------------------------------
    Charge (ESU x 10^10)
                 0.0000
    Dipole Moment (Debye)
         X      -2.4759      Y       1.8488      Z       1.2497
       Tot       3.3331
    Quadrupole Moments (Debye-Ang)
        XX    -139.5722     XY      14.0514     YY    -169.7081
        XZ       1.7855     YZ      -0.6208     ZZ    -147.4657

 Total job time:  88.45s(wall), 4208.78s(cpu)
        *  Thank you very much for using Q-Chem.  Have a nice day.  *
