 Q-Chem 5.0, Q-Chem, Inc., Pleasanton, CA (2017)
 Q-Chem 5.0.1 for Intel X86 EM64T Linux

User input:
--------------------------------------------------------------
$molecule
0  1
O -3.94934 -3.66094 2.70899
C -3.26408 -4.56952 2.26188
C -3.36658 -6.02376 2.66595
C -4.22326 -6.35145 3.89987
C -5.02516 -5.21081 4.48638
O -6.25663 -5.15869 3.898
C -7.05777 -4.06779 4.36423
C -7.44279 -4.28466 5.82397
O -7.75076 -3.0249 6.44124
C -8.80241 -2.35554 5.90725
C -9.02553 -1.00506 6.54527
C -10.49416 -0.6586 6.83052
C -11.46908 -1.81761 6.77618
O -11.99465 -2.34772 7.74433
O -2.40604 -4.29929 1.24336
O -11.82691 -2.24532 5.53702
O -9.38034 -2.68033 4.88063
C -12.71221 -3.27441 5.29243
C -8.39468 -0.7854 7.93947
C -8.19473 0.7099 8.1847
C -9.62682 1.16032 8.37329
C -10.35115 -0.18744 8.29541
O -9.42855 -1.10267 8.83581
H -8.5944 -0.27191 5.82679
H -10.90586 0.15104 6.18817
H -7.42931 -1.31107 8.09793
H -7.65985 0.81705 9.1558
H -7.62784 1.24666 7.39383
H -9.72601 1.59479 9.39303
H -10.00443 1.87975 7.61481
H -11.33181 -0.11859 8.81618
O -4.53429 -4.33804 5.19543
C -2.2096 -3.04494 0.70486
C -4.02322 -6.89904 1.58753
C -3.57654 -8.3501 1.75626
C -4.33553 -8.73384 3.00902
C -5.12429 -7.44417 3.26345
O -5.37418 -6.94714 1.96992
H -2.31625 -6.347 2.8456
H -3.65033 -6.80091 4.74107
H -1.83353 -2.34856 1.48462
H -3.81762 -6.54849 0.55245
H -3.98909 -8.93025 0.89996
H -2.4758 -8.4955 1.80398
H -5.0347 -9.56149 2.75447
H -3.70646 -9.02421 3.87795
H -6.01915 -7.66764 3.88556
H -3.16057 -2.65685 0.28124
H -1.45753 -3.11163 -0.1078
H -12.81746 -3.41056 4.19661
H -13.70848 -3.03298 5.72073
H -12.33085 -4.21941 5.73512
H -8.27168 -5.02068 5.91506
H -6.59933 -4.68751 6.41622
H -7.94392 -4.00004 3.7062
H -6.48157 -3.12093 4.24298
$end

$opt
CONSTRAINT
tors           1           2           3           4     -11.104
tors           3           4           5           6     +89.799
tors           4           5           6           7    -177.646
tors           5           6           7           8     -67.828
tors           6           7           8           9    +156.760
tors           7           8           9          10     +62.053
tors           8           9          10          11    -176.655
tors           9          10          11          12    -137.485
tors          11          12          13          14    +106.448
ENDCONSTRAINT
$end

$rem
JOBTYPE                   OPT
METHOD                    B3LYP
DFT_D                     d3_op
BASIS                     STO-3G
GEOM_OPT_MAX_CYCLES       100
GEOM_OPT_TOL_GRADIENT     300
GEOM_OPT_TOL_DISPLACEMENT 1200
GEOM_OPT_TOL_ENERGY       100
SYMMETRY                  False
THRESH                    12
SCF_CONVERGENCE           8
MAX_SUB_FILE_NUM          128
MEM_STATIC                400
MEM_TOTAL                 4000
$end
--------------------------------------------------------------

   15   -1510.1475210192      6.64E-09 Convergence criterion met
 Total energy in the final basis set = -1510.14752102
   14   -1510.2175683672      6.89E-09 Convergence criterion met
 Total energy in the final basis set = -1510.21756837
   14   -1510.2545856080      6.13E-09 Convergence criterion met
 Total energy in the final basis set = -1510.25458561
   14   -1510.2704928897      6.49E-09 Convergence criterion met
 Total energy in the final basis set = -1510.27049289
   13   -1510.2757888740      4.86E-09 Convergence criterion met
 Total energy in the final basis set = -1510.27578887
   13   -1510.2778099747      4.54E-09 Convergence criterion met
 Total energy in the final basis set = -1510.27780997
   12   -1510.2785515122      7.00E-09 Convergence criterion met
 Total energy in the final basis set = -1510.27855151
   12   -1510.2788925346      8.26E-09 Convergence criterion met
   11   -1510.2814134086      3.76E-09 Convergence criterion met
 Total energy in the final basis set = -1510.28141341
   11   -1510.2814429488      6.87E-09 Convergence criterion met
 Total energy in the final basis set = -1510.28144295
   10   -1510.2814576919      5.76E-09 Convergence criterion met
 Total energy in the final basis set = -1510.28145769
   11   -1510.2814682123      2.29E-09 Convergence criterion met
 Total energy in the final basis set = -1510.28146821
   10   -1510.2814731380      8.95E-09 Convergence criterion met
 Total energy in the final basis set = -1510.28147314
    9   -1510.2814741964      3.44E-09 Convergence criterion met
 Total energy in the final basis set = -1510.28147420

             Standard Nuclear Orientation (Angstroms)
    I     Atom           X                Y                Z
 ----------------------------------------------------------------
    1      O       3.1761873564    -1.3584306244     1.0664807987
    2      C       4.3999714791    -1.2164171506     0.8451917181
    3      C       5.0736485854    -0.3446425283    -0.2650611728
    4      C       4.0515359770     0.1957617850    -1.3483809232
    5      C       2.5593125427    -0.2464511469    -1.0986078229
    6      O       1.9217411962     0.7365283140    -0.2731179434
    7      C       0.5278447056     0.3593728188     0.0513359089
    8      C      -0.4365577005     0.3833463074    -1.2025210211
    9      O      -1.6304787291    -0.4820033972    -1.0306155965
   10      C      -2.4326447270    -0.0425656230     0.0663358143
   11      C      -3.6425980657    -1.0326233310     0.2722869094
   12      C      -4.9957921006    -0.2541322261     0.5617536427
   13      C      -4.8090444668     1.2537281462     0.9566839545
   14      O      -5.0492389039     2.2626557897     0.2596310726
   15      O       5.4292277476    -1.8334536749     1.6210768518
   16      O      -4.4492087090     1.2944155355     2.3442192890
   17      O      -2.2137864618     1.0074530181     0.7120846542
   18      C      -4.1844278575     2.6914430240     2.7525791636
   19      C      -4.0174875060    -1.7391700394    -1.0954230605
   20      C      -5.1444139469    -2.8205339024    -0.8481078838
   21      C      -6.4276862418    -1.9157384564    -0.7341144228
   22      C      -5.7790477463    -0.4796013585    -0.7995756449
   23      O      -4.7151516159    -0.6466092056    -1.8170325909
   24      H      -3.3954812976    -1.7458557780     1.0801854295
   25      H      -5.5260005878    -0.7397327691     1.4011963833
   26      H      -3.1416918173    -2.0878792729    -1.6744978730
   27      H      -5.2099330695    -3.5132663893    -1.7017730504
   28      H      -4.9576193454    -3.4068037252     0.0662494283
   29      H      -7.1029699879    -2.0697064645    -1.5910563212
   30      H      -6.9918021347    -2.0837978818     0.1972779694
   31      H      -6.4573465192     0.3495004722    -1.0797753416
   32      O       1.9917211321    -1.2399437253    -1.6037548195
   33      C       4.8291036532    -2.6461354940     2.7053757301
   34      C       5.6461377705     1.0222114095     0.3203772192
   35      C       6.6489185501     1.6260083294    -0.7397364658
   36      C       5.6490296195     2.1529496390    -1.8343727062
   37      C       4.2586244139     1.7616251678    -1.1946828781
   38      O       4.4839405860     1.9347237277     0.2602710859
   39      H       5.8816144368    -0.9401105335    -0.7271003286
   40      H       4.3331778885    -0.1608555320    -2.3551732309
   41      H       4.1814266047    -3.4503909699     2.3004274012
   42      H       6.0363227160     0.9485708756     1.3541949561
   43      H       7.2290018041     2.4485748661    -0.2918585307
   44      H       7.3497172245     0.8702457238    -1.1290364249
   45      H       5.7218360047     3.2455435361    -1.9546104752
   46      H       5.8041692972     1.6789392533    -2.8168303279
   47      H       3.3968708250     2.3714103125    -1.5264313538
   48      H       4.2258446489    -2.0221839930     3.3960739157
   49      H       5.6771115483    -3.0945390832     3.2548584433
   50      H      -3.9853231817     2.6620128559     3.8395911204
   51      H      -5.0534847767     3.3503330138     2.5494615742
   52      H      -3.2981198749     3.0989676755     2.2244221437
   53      H      -0.7412725005     1.4277029340    -1.4283285220
   54      H       0.0918871148    -0.0490601418    -2.0745209497
   55      H       0.1862411427     1.0922442931     0.8076569373
   56      H       0.5041934371    -0.6609711982     0.4946033681
 ----------------------------------------------------------------

    9   -1510.2814747756      2.34E-09 Convergence criterion met
 Total energy in the final basis set = -1510.28147478
 Final energy is   -1510.28147477559
 **  OPTIMIZATION CONVERGED  **

                    Orbital Energies (a.u.)
 --------------------------------------------------------------

 Alpha MOs
 -- Occupied --
-18.943 -18.937 -18.926 -18.920 -18.889 -18.885 -18.880 -18.876
-18.863 -18.862 -10.106 -10.100 -10.095 -10.089 -10.070 -10.066
-10.063 -10.063 -10.059 -10.053 -10.053 -10.052 -10.041 -10.036
-10.035 -10.029 -10.022 -10.020 -10.016 -10.015  -1.019  -1.014
 -1.001  -0.997  -0.971  -0.964  -0.943  -0.937  -0.929  -0.924
 -0.764  -0.758  -0.725  -0.720  -0.712  -0.703  -0.688  -0.667
 -0.652  -0.615  -0.595  -0.580  -0.547  -0.540  -0.538  -0.532
 -0.514  -0.504  -0.482  -0.475  -0.463  -0.453  -0.449  -0.444
 -0.435  -0.430  -0.426  -0.416  -0.410  -0.402  -0.399  -0.394
 -0.385  -0.379  -0.376  -0.364  -0.361  -0.353  -0.351  -0.346
 -0.340  -0.336  -0.333  -0.330  -0.326  -0.326  -0.320  -0.314
 -0.307  -0.305  -0.302  -0.301  -0.294  -0.282  -0.278  -0.274
 -0.271  -0.261  -0.256  -0.243  -0.238  -0.234  -0.228  -0.186
 -0.182  -0.166  -0.162  -0.159  -0.152  -0.146  -0.142  -0.141
 -0.138

          Ground-State Mulliken Net Atomic Charges

     Atom                 Charge (a.u.)
  ----------------------------------------
      1 O                    -0.207758
      2 C                     0.213143
      3 C                    -0.078809
      4 C                    -0.081248
      5 C                     0.214564
      6 O                    -0.168433
      7 C                    -0.051515
      8 C                    -0.052543
      9 O                    -0.165331
     10 C                     0.212043
     11 C                    -0.075926
     12 C                    -0.081484
     13 C                     0.212050
     14 O                    -0.216819
     15 O                    -0.169131
     16 O                    -0.171105
     17 O                    -0.215033
     18 C                    -0.127683
     19 C                     0.022514
     20 C                    -0.145430
     21 C                    -0.142660
     22 C                     0.023181
     23 O                    -0.190973
     24 H                     0.086000
     25 H                     0.083308
     26 H                     0.093332
     27 H                     0.077553
     28 H                     0.072255
     29 H                     0.077197
     30 H                     0.072443
     31 H                     0.087921
     32 O                    -0.221752
     33 C                    -0.128362
     34 C                     0.025655
     35 C                    -0.143347
     36 C                    -0.144650
     37 C                     0.026679
     38 O                    -0.186107
     39 H                     0.086904
     40 H                     0.083127
     41 H                     0.091104
     42 H                     0.084659
     43 H                     0.078355
     44 H                     0.073927
     45 H                     0.078197
     46 H                     0.073602
     47 H                     0.087468
     48 H                     0.090847
     49 H                     0.092003
     50 H                     0.086723
     51 H                     0.086688
     52 H                     0.092291
     53 H                     0.088270
     54 H                     0.100107
     55 H                     0.100089
     56 H                     0.091906
  ----------------------------------------
  Sum of atomic charges =    -0.000000

                    Cartesian Multipole Moments
 -----------------------------------------------------------------
    Charge (ESU x 10^10)
                 0.0000
    Dipole Moment (Debye)
         X       2.5275      Y      -1.7396      Z       1.2741
       Tot       3.3223
    Quadrupole Moments (Debye-Ang)
        XX    -139.7623     XY       6.6346     YY    -157.8206
        XZ      -7.8894     YZ      -4.9356     ZZ    -155.9554

 Total job time:  62.78s(wall), 2985.49s(cpu)
        *  Thank you very much for using Q-Chem.  Have a nice day.  *
