 Q-Chem 5.0, Q-Chem, Inc., Pleasanton, CA (2017)
 Q-Chem 5.0.1 for Intel X86 EM64T Linux

User input:
--------------------------------------------------------------
$molecule
0  1
O 3.1917844757 -1.030049879 1.3731625062
C 4.4129575894 -0.9900555386 1.1009791459
C 5.0783046177 -0.4270413798 -0.1989694015
C 4.021863711 0.0356088066 -1.2857296453
C 2.5261003945 -0.2695663594 -0.901348175
O 1.953711479 0.8850445794 -0.2668374279
C 0.5625400309 0.5981364735 0.1448164639
C -0.4599837654 0.7816141616 -1.0504363008
O -1.54837784 -0.2233962232 -1.0008470453
C -2.5080703574 0.1317358024 -0.001396788
C -3.5883387165 -1.0127146322 0.1163835855
C -5.0245181966 -0.4205633101 0.4147602684
C -5.0352225243 0.9885546889 1.1083863322
O -5.6210211724 2.0222867513 0.7215914123
O 5.441897697 -1.4593970448 1.9734712425
O -4.4578877835 0.8267366796 2.4128802016
O -2.4924902867 1.2231745976 0.6106736925
C -4.4167652317 2.1307814364 3.1087275878
C -3.8437678419 -1.6005682002 -1.3352281682
C -4.9155611882 -2.7620385585 -1.2826006
C -6.2608748219 -1.9474084855 -1.1943117781
C -5.6984773532 -0.4854896989 -1.0198207452
O -4.5613192878 -0.466402529 -1.9717602606
H -3.269856583 -1.7638500338 0.8620157504
H -5.5534044738 -1.1019522863 1.1068195441
H -2.9149842368 -1.8317466515 -1.8903757934
H -4.8675170789 -3.3743180221 -2.1966744117
H -4.762659476 -3.4190059934 -0.4111219251
H -6.838222809 -2.0264089811 -2.1296598136
H -6.9005003296 -2.2615708387 -0.3541013846
H -6.402705971 0.3422960679 -1.2327653697
O 1.8867099411 -1.3059548444 -1.1851959616
C 4.8456491185 -1.9778996855 3.2273456902
C 5.8326507483 0.9443504101 0.0904888921
C 6.7593620346 1.2719001306 -1.1463592819
C 5.6954732145 1.7448644837 -2.2050717314
C 4.3550162916 1.584665411 -1.3841158319
O 4.7508169685 1.9485281732 -0.0033988975
H 5.7729187829 -1.188384876 -0.5974128982
H 4.217445879 -0.4777478566 -2.2442793593
H 4.1387669555 -2.8089371206 3.0282691222
H 6.3275939204 0.9890081662 1.080051326
H 7.4664101219 2.0783177214 -0.8947263205
H 7.3309442141 0.3911254299 -1.4796747848
H 5.8497394417 2.7979687816 -2.4891285229
H 5.6985600445 1.1277603023 -3.1174663882
H 3.5108563987 2.2150109975 -1.7226618644
H 4.3074438804 -1.1818791638 3.7813985092
H 5.6910875918 -2.3468641966 3.8365418972
H -4.0627005061 1.9214981311 4.134913949
H -5.4177588746 2.6071538436 3.1476850093
H -3.711575065 2.8261093497 2.6088393476
H -0.8779911737 1.8101451 -1.0472350369
H 0.0577413706 0.5963978723 -2.0129759009
H 0.3297790724 1.3086746469 0.9619767162
H 0.4798328888 -0.4440765162 0.5227425946
$end

$rem
JOBTYPE                   OPT
METHOD                    B3LYP
DFT_D                     d3_op
BASIS                     STO-3G
GEOM_OPT_MAX_CYCLES       100
GEOM_OPT_TOL_GRADIENT     300
GEOM_OPT_TOL_DISPLACEMENT 1200
GEOM_OPT_TOL_ENERGY       100
SYMMETRY                  False
THRESH                    12
SCF_CONVERGENCE           8
MAX_SUB_FILE_NUM          128
MEM_STATIC                400
MEM_TOTAL                 4000
$end
--------------------------------------------------------------

   16   -1510.2795709255      5.84E-09 Convergence criterion met
 Total energy in the final basis set = -1510.27957093
   13   -1510.2816866830      7.59E-09 Convergence criterion met
 Total energy in the final basis set = -1510.28168668
   13   -1510.2832698767      8.59E-09 Convergence criterion met
 Total energy in the final basis set = -1510.28326988
   14   -1510.2841760139      1.08E-09 Convergence criterion met
 Total energy in the final basis set = -1510.28417601
   13   -1510.2850123522      2.92E-09 Convergence criterion met
 Total energy in the final basis set = -1510.28501235
   13   -1510.2854784206      3.58E-09 Convergence criterion met
 Total energy in the final basis set = -1510.28547842
   13   -1510.2861855946      6.61E-09 Convergence criterion met
 Total energy in the final basis set = -1510.28618559
   13   -1510.2868260295      4.12E-09 Convergence criterion met
   13   -1510.2881318906      4.31E-09 Convergence criterion met
 Total energy in the final basis set = -1510.28813189
   12   -1510.2881574152      7.38E-09 Convergence criterion met
 Total energy in the final basis set = -1510.28815742
   13   -1510.2879275305      4.04E-09 Convergence criterion met
 Total energy in the final basis set = -1510.28792753
   12   -1510.2881650278      9.94E-09 Convergence criterion met
 Total energy in the final basis set = -1510.28816503
   12   -1510.2881731140      4.67E-09 Convergence criterion met
 Total energy in the final basis set = -1510.28817311
   11   -1510.2881756598      6.36E-09 Convergence criterion met
 Total energy in the final basis set = -1510.28817566

             Standard Nuclear Orientation (Angstroms)
    I     Atom           X                Y                Z
 ----------------------------------------------------------------
    1      O      -3.2467042493    -0.8624285321     1.9183890020
    2      C      -4.3412973126    -1.0454305253     1.3393326496
    3      C      -5.0832090927    -0.0564030286     0.3772565336
    4      C      -4.1893310261     1.1786023022    -0.0510753637
    5      C      -2.7547552788     1.2013895921     0.5953304709
    6      O      -1.8904897650     0.3338206697    -0.1557218479
    7      C      -0.5482978238     0.2849498137     0.4671951390
    8      C       0.2982041602     1.5716274852     0.1292650501
    9      O       1.6167545736     1.5400293118     0.8095489964
   10      C       2.5254504770     0.6840231829     0.1142858924
   11      C       3.8940714349     0.7067577086     0.8701517127
   12      C       4.8944046511    -0.4147452919     0.3756468841
   13      C       4.3003280706    -1.3779608974    -0.7187102958
   14      O       4.6207750777    -1.4430524394    -1.9238429475
   15      O      -5.1296243520    -2.2284428020     1.4753149082
   16      O       3.3991553745    -2.2861977352    -0.0650815513
   17      O       2.2493759813     0.0634066539    -0.9373737105
   18      C       2.7526054710    -3.1562329886    -1.0718156312
   19      C       4.7122906180     2.0207316715     0.4982582236
   20      C       5.9096686664     2.1703307502     1.5187671161
   21      C       6.8977143695     1.0627366373     0.9930718510
   22      C       6.0719282462     0.4683221403    -0.2137040565
   23      O       5.3738204218     1.6511673884    -0.7716126882
   24      H       3.6999281623     0.6464526012     1.9557030567
   25      H       5.2334642804    -1.0301138886     1.2281190882
   26      H       4.0863273446     2.9250873706     0.3677892435
   27      H       6.3524861762     3.1765281715     1.4472117129
   28      H       5.5906746221     1.9974679052     2.5590946989
   29      H       7.8433373672     1.5010857582     0.6364335755
   30      H       7.1252000274     0.2999245627     1.7545473567
   31      H       6.6619551156    -0.0355142765    -1.0036671744
   32      O      -2.3795312700     1.9328217130     1.5375354740
   33      C      -4.4493094499    -3.1945596266     2.3695318464
   34      C      -5.3937626959    -0.7148055332    -1.0356176340
   35      C      -6.4489182555     0.1909097861    -1.7843895627
   36      C      -5.5501098799     1.4073269294    -2.2193894976
   37      C      -4.1493061858     0.9784887263    -1.6273650910
   38      O      -4.1416896001    -0.4939391413    -1.7925251161
   39      H      -6.0143116812     0.2716069636     0.8751829582
   40      H      -4.6825035141     2.1269039597     0.2256723084
   41      H      -4.2870487703    -2.7699696647     3.3811699010
   42      H      -5.6400346443    -1.7931012704    -0.9839632912
   43      H      -6.8612562323    -0.3402575589    -2.6569243798
   44      H      -7.2808885708     0.4899842060    -1.1269585114
   45      H      -5.4926923474     1.4951919626    -3.3159983743
   46      H      -5.9009356936     2.3664970757    -1.8058915107
   47      H      -3.2684383372     1.4273283978    -2.1251057430
   48      H      -3.4687197276    -3.5084254788     1.9569000949
   49      H      -5.1202243871    -4.0705224109     2.4375355439
   50      H       2.1167948344    -3.8623083330    -0.5064340930
   51      H       3.4983328869    -3.7212208852    -1.6675850161
   52      H       2.1222580598    -2.5629838414    -1.7660109966
   53      H       0.4210322463     1.6603269463    -0.9710192932
   54      H      -0.2212221037     2.4658689521     0.5272502839
   55      H      -0.0502717474    -0.6084862074     0.0400488040
   56      H      -0.6296860777     0.1769096039     1.5698103434
 ----------------------------------------------------------------

   10   -1510.2881766309      3.29E-09 Convergence criterion met
 Total energy in the final basis set = -1510.28817663
 Final energy is   -1510.28817663089
 **  OPTIMIZATION CONVERGED  **

                    Orbital Energies (a.u.)
 --------------------------------------------------------------

 Alpha MOs
 -- Occupied --
-18.944 -18.938 -18.925 -18.916 -18.889 -18.887 -18.884 -18.881
-18.863 -18.859 -10.108 -10.102 -10.094 -10.087 -10.071 -10.067
-10.063 -10.061 -10.060 -10.059 -10.054 -10.051 -10.042 -10.037
-10.035 -10.030 -10.022 -10.020 -10.018 -10.017  -1.021  -1.016
 -1.002  -0.995  -0.971  -0.967  -0.945  -0.940  -0.928  -0.921
 -0.764  -0.760  -0.726  -0.721  -0.713  -0.705  -0.690  -0.668
 -0.652  -0.615  -0.596  -0.580  -0.546  -0.542  -0.538  -0.534
 -0.514  -0.507  -0.485  -0.474  -0.464  -0.455  -0.450  -0.444
 -0.434  -0.432  -0.427  -0.417  -0.410  -0.404  -0.401  -0.392
 -0.388  -0.381  -0.380  -0.363  -0.360  -0.355  -0.350  -0.345
 -0.338  -0.337  -0.333  -0.330  -0.328  -0.327  -0.322  -0.315
 -0.309  -0.307  -0.301  -0.301  -0.298  -0.284  -0.277  -0.274
 -0.270  -0.262  -0.256  -0.243  -0.240  -0.235  -0.231  -0.189
 -0.185  -0.163  -0.162  -0.160  -0.156  -0.146  -0.143  -0.142
 -0.139

          Ground-State Mulliken Net Atomic Charges

     Atom                 Charge (a.u.)
  ----------------------------------------
      1 O                    -0.207746
      2 C                     0.215243
      3 C                    -0.078098
      4 C                    -0.081796
      5 C                     0.213763
      6 O                    -0.170288
      7 C                    -0.050785
      8 C                    -0.053704
      9 O                    -0.170049
     10 C                     0.213801
     11 C                    -0.078292
     12 C                    -0.081155
     13 C                     0.215795
     14 O                    -0.215057
     15 O                    -0.168849
     16 O                    -0.177863
     17 O                    -0.208834
     18 C                    -0.129032
     19 C                     0.025440
     20 C                    -0.143636
     21 C                    -0.144095
     22 C                     0.024830
     23 O                    -0.188837
     24 H                     0.087375
     25 H                     0.083214
     26 H                     0.084266
     27 H                     0.077995
     28 H                     0.073763
     29 H                     0.077735
     30 H                     0.072960
     31 H                     0.089453
     32 O                    -0.220913
     33 C                    -0.127934
     34 C                     0.024815
     35 C                    -0.143850
     36 C                    -0.144213
     37 C                     0.026587
     38 O                    -0.186916
     39 H                     0.086630
     40 H                     0.083376
     41 H                     0.091107
     42 H                     0.088199
     43 H                     0.078412
     44 H                     0.073426
     45 H                     0.078300
     46 H                     0.073528
     47 H                     0.085933
     48 H                     0.091628
     49 H                     0.092454
     50 H                     0.085157
     51 H                     0.086883
     52 H                     0.092210
     53 H                     0.091611
     54 H                     0.097191
     55 H                     0.093163
     56 H                     0.095700
  ----------------------------------------
  Sum of atomic charges =     0.000000

                    Cartesian Multipole Moments
 -----------------------------------------------------------------
    Charge (ESU x 10^10)
                -0.0000
    Dipole Moment (Debye)
         X      -2.5793      Y      -0.6460      Z       2.1777
       Tot       3.4369
    Quadrupole Moments (Debye-Ang)
        XX    -139.5113     XY       1.3343     YY    -152.0885
        XZ      13.1290     YZ      -6.4938     ZZ    -165.1150

 Total job time:  57.26s(wall), 2722.51s(cpu)
        *  Thank you very much for using Q-Chem.  Have a nice day.  *
