 Q-Chem 5.0, Q-Chem, Inc., Pleasanton, CA (2017)
 Q-Chem 5.0.1 for Intel X86 EM64T Linux

User input:
--------------------------------------------------------------
$molecule
0  1
O -3.94934 -3.66094 2.70899
C -3.26408 -4.56952 2.26188
C -3.36658 -6.02376 2.66595
C -4.34583 -6.37075 3.79932
C -5.2431 -5.25242 4.28133
O -6.43987 -5.30217 3.62507
C -7.32948 -4.24345 3.99516
C -8.06499 -4.6008 5.28258
O -8.24257 -3.42454 6.08741
C -9.23125 -2.58739 5.68636
C -9.29363 -1.31751 6.50133
C -10.7092 -0.77594 6.74863
C -11.844 -1.74058 6.46864
O -12.72473 -2.04746 7.25903
O -2.36173 -4.28807 1.2855
O -12.03611 -2.08932 5.16996
O -9.69892 -2.64211 4.5566
C -13.06713 -2.88475 4.71339
C -8.78441 -1.41713 7.96167
C -8.34339 -0.03584 8.44366
C -9.68103 0.66285 8.56571
C -10.62814 -0.50382 8.26249
O -9.94114 -1.63866 8.73064
H -8.66616 -0.57728 5.95486
H -10.91692 0.138 6.14955
H -7.95326 -2.13778 8.11404
H -7.92102 -0.17146 9.46552
H -7.59371 0.48136 7.80702
H -9.79992 1.0117 9.61556
H -9.84219 1.50762 7.86134
H -11.625 -0.31254 8.71675
O -4.89693 -4.39266 5.08462
C -2.14492 -3.02847 0.7675
C -3.88098 -6.91924 1.52629
C -3.40867 -8.35513 1.74415
C -4.27671 -8.76044 2.91575
C -5.13314 -7.49874 3.07673
O -5.2622 -7.01171 1.7629
H -2.33132 -6.31973 2.94939
H -3.86054 -6.80031 4.70357
H -1.80559 -2.33812 1.56914
H -3.5797 -6.56456 0.51635
H -3.71732 -8.94654 0.85244
H -2.31446 -8.46953 1.90104
H -4.91317 -9.61686 2.59945
H -3.72952 -9.01949 3.84775
H -6.07991 -7.75672 3.60097
H -3.07737 -2.63896 0.3057
H -1.35754 -3.08617 -0.01173
H -12.97265 -3.00684 3.61495
H -14.04649 -2.41052 4.93751
H -13.0156 -3.88685 5.1904
H -8.98705 -5.2045 5.13038
H -7.38256 -5.23207 5.88934
H -8.06802 -4.06092 3.18735
H -6.76656 -3.28577 4.09731
$end

$opt
CONSTRAINT
tors           1           2           3           4      -4.409
tors           3           4           5           6     +94.131
tors           4           5           6           7    -177.967
tors           5           6           7           8     -82.673
tors           6           7           8           9    +143.556
tors           7           8           9          10     +77.120
tors           8           9          10          11    -175.243
tors           9          10          11          12    -144.257
tors          11          12          13          14    +125.603
ENDCONSTRAINT
$end

$rem
JOBTYPE                   OPT
METHOD                    B3LYP
DFT_D                     d3_op
BASIS                     STO-3G
GEOM_OPT_MAX_CYCLES       100
GEOM_OPT_TOL_GRADIENT     300
GEOM_OPT_TOL_DISPLACEMENT 1200
GEOM_OPT_TOL_ENERGY       100
SYMMETRY                  False
THRESH                    12
SCF_CONVERGENCE           8
MAX_SUB_FILE_NUM          128
MEM_STATIC                400
MEM_TOTAL                 4000
$end
--------------------------------------------------------------

   15   -1510.1397263550      7.09E-09 Convergence criterion met
 Total energy in the final basis set = -1510.13972636
   14   -1510.2104136361      6.48E-09 Convergence criterion met
 Total energy in the final basis set = -1510.21041364
   14   -1510.2483919659      6.15E-09 Convergence criterion met
 Total energy in the final basis set = -1510.24839197
   14   -1510.2653849486      6.01E-09 Convergence criterion met
 Total energy in the final basis set = -1510.26538495
   13   -1510.2714260148      7.17E-09 Convergence criterion met
 Total energy in the final basis set = -1510.27142601
   13   -1510.2736904482      6.06E-09 Convergence criterion met
 Total energy in the final basis set = -1510.27369045
   12   -1510.2748475795      8.61E-09 Convergence criterion met
 Total energy in the final basis set = -1510.27484758
   12   -1510.2753127705      6.19E-09 Convergence criterion met
   12   -1510.2795779748      3.13E-09 Convergence criterion met
 Total energy in the final basis set = -1510.27957797
   11   -1510.2796169078      4.31E-09 Convergence criterion met
 Total energy in the final basis set = -1510.27961691
   11   -1510.2796654339      5.26E-09 Convergence criterion met
 Total energy in the final basis set = -1510.27966543
    9   -1510.2796837633      4.84E-09 Convergence criterion met
 Total energy in the final basis set = -1510.27968376
    9   -1510.2796965903      9.83E-09 Convergence criterion met
 Total energy in the final basis set = -1510.27969659
    9   -1510.2796986845      6.01E-09 Convergence criterion met
 Total energy in the final basis set = -1510.27969868

             Standard Nuclear Orientation (Angstroms)
    I     Atom           X                Y                Z
 ----------------------------------------------------------------
    1      O       3.1917844757    -1.0300498790     1.3731625062
    2      C       4.4129575894    -0.9900555386     1.1009791459
    3      C       5.0783046177    -0.4270413798    -0.1989694015
    4      C       4.0218637110     0.0356088066    -1.2857296453
    5      C       2.5261003945    -0.2695663594    -0.9013481750
    6      O       1.9537114790     0.8850445794    -0.2668374279
    7      C       0.5625400309     0.5981364735     0.1448164639
    8      C      -0.4599837654     0.7816141616    -1.0504363008
    9      O      -1.5483778400    -0.2233962232    -1.0008470453
   10      C      -2.5080703574     0.1317358024    -0.0013967880
   11      C      -3.5883387165    -1.0127146322     0.1163835855
   12      C      -5.0245181966    -0.4205633101     0.4147602684
   13      C      -5.0352225243     0.9885546889     1.1083863322
   14      O      -5.6210211724     2.0222867513     0.7215914123
   15      O       5.4418976970    -1.4593970448     1.9734712425
   16      O      -4.4578877835     0.8267366796     2.4128802016
   17      O      -2.4924902867     1.2231745976     0.6106736925
   18      C      -4.4167652317     2.1307814364     3.1087275878
   19      C      -3.8437678419    -1.6005682002    -1.3352281682
   20      C      -4.9155611882    -2.7620385585    -1.2826006000
   21      C      -6.2608748219    -1.9474084855    -1.1943117781
   22      C      -5.6984773532    -0.4854896989    -1.0198207452
   23      O      -4.5613192878    -0.4664025290    -1.9717602606
   24      H      -3.2698565830    -1.7638500338     0.8620157504
   25      H      -5.5534044738    -1.1019522863     1.1068195441
   26      H      -2.9149842368    -1.8317466515    -1.8903757934
   27      H      -4.8675170789    -3.3743180221    -2.1966744117
   28      H      -4.7626594760    -3.4190059934    -0.4111219251
   29      H      -6.8382228090    -2.0264089811    -2.1296598136
   30      H      -6.9005003296    -2.2615708387    -0.3541013846
   31      H      -6.4027059710     0.3422960679    -1.2327653697
   32      O       1.8867099411    -1.3059548444    -1.1851959616
   33      C       4.8456491185    -1.9778996855     3.2273456902
   34      C       5.8326507483     0.9443504101     0.0904888921
   35      C       6.7593620346     1.2719001306    -1.1463592819
   36      C       5.6954732145     1.7448644837    -2.2050717314
   37      C       4.3550162916     1.5846654110    -1.3841158319
   38      O       4.7508169685     1.9485281732    -0.0033988975
   39      H       5.7729187829    -1.1883848760    -0.5974128982
   40      H       4.2174458790    -0.4777478566    -2.2442793593
   41      H       4.1387669555    -2.8089371206     3.0282691222
   42      H       6.3275939204     0.9890081662     1.0800513260
   43      H       7.4664101219     2.0783177214    -0.8947263205
   44      H       7.3309442141     0.3911254299    -1.4796747848
   45      H       5.8497394417     2.7979687816    -2.4891285229
   46      H       5.6985600445     1.1277603023    -3.1174663882
   47      H       3.5108563987     2.2150109975    -1.7226618644
   48      H       4.3074438804    -1.1818791638     3.7813985092
   49      H       5.6910875918    -2.3468641966     3.8365418972
   50      H      -4.0627005061     1.9214981311     4.1349139490
   51      H      -5.4177588746     2.6071538436     3.1476850093
   52      H      -3.7115750650     2.8261093497     2.6088393476
   53      H      -0.8779911737     1.8101451000    -1.0472350369
   54      H       0.0577413706     0.5963978723    -2.0129759009
   55      H       0.3297790724     1.3086746469     0.9619767162
   56      H       0.4798328888    -0.4440765162     0.5227425946
 ----------------------------------------------------------------

    9   -1510.2796986197      3.62E-09 Convergence criterion met
 Total energy in the final basis set = -1510.27969862
 Final energy is   -1510.27969861971
 **  OPTIMIZATION CONVERGED  **

                    Orbital Energies (a.u.)
 --------------------------------------------------------------

 Alpha MOs
 -- Occupied --
-18.944 -18.936 -18.924 -18.918 -18.889 -18.887 -18.879 -18.877
-18.862 -18.861 -10.107 -10.099 -10.093 -10.089 -10.070 -10.067
-10.063 -10.063 -10.059 -10.053 -10.052 -10.052 -10.042 -10.036
-10.035 -10.029 -10.022 -10.020 -10.016 -10.015  -1.020  -1.014
 -1.001  -0.996  -0.971  -0.964  -0.944  -0.937  -0.927  -0.923
 -0.764  -0.758  -0.725  -0.721  -0.712  -0.702  -0.687  -0.668
 -0.651  -0.614  -0.595  -0.579  -0.547  -0.540  -0.538  -0.532
 -0.514  -0.504  -0.483  -0.477  -0.463  -0.453  -0.450  -0.445
 -0.435  -0.428  -0.426  -0.417  -0.410  -0.401  -0.399  -0.397
 -0.385  -0.379  -0.378  -0.363  -0.362  -0.356  -0.348  -0.344
 -0.338  -0.336  -0.331  -0.330  -0.329  -0.325  -0.319  -0.314
 -0.308  -0.306  -0.303  -0.301  -0.296  -0.281  -0.277  -0.273
 -0.270  -0.261  -0.253  -0.243  -0.240  -0.234  -0.228  -0.187
 -0.183  -0.166  -0.161  -0.159  -0.151  -0.147  -0.142  -0.141
 -0.138

          Ground-State Mulliken Net Atomic Charges

     Atom                 Charge (a.u.)
  ----------------------------------------
      1 O                    -0.206871
      2 C                     0.214183
      3 C                    -0.078197
      4 C                    -0.081645
      5 C                     0.213457
      6 O                    -0.170853
      7 C                    -0.051211
      8 C                    -0.050018
      9 O                    -0.166696
     10 C                     0.213464
     11 C                    -0.075061
     12 C                    -0.081692
     13 C                     0.214090
     14 O                    -0.217358
     15 O                    -0.168994
     16 O                    -0.172753
     17 O                    -0.212950
     18 C                    -0.127752
     19 C                     0.022228
     20 C                    -0.145863
     21 C                    -0.141819
     22 C                     0.021824
     23 O                    -0.192966
     24 H                     0.087244
     25 H                     0.082847
     26 H                     0.093343
     27 H                     0.077695
     28 H                     0.072655
     29 H                     0.077259
     30 H                     0.072490
     31 H                     0.089515
     32 O                    -0.220765
     33 C                    -0.128229
     34 C                     0.025365
     35 C                    -0.143793
     36 C                    -0.144242
     37 C                     0.026112
     38 O                    -0.187675
     39 H                     0.087235
     40 H                     0.083070
     41 H                     0.091552
     42 H                     0.085518
     43 H                     0.078445
     44 H                     0.073887
     45 H                     0.078082
     46 H                     0.073495
     47 H                     0.088185
     48 H                     0.091062
     49 H                     0.092203
     50 H                     0.086139
     51 H                     0.087019
     52 H                     0.091245
     53 H                     0.093517
     54 H                     0.091858
     55 H                     0.093477
     56 H                     0.097642
  ----------------------------------------
  Sum of atomic charges =     0.000000

                    Cartesian Multipole Moments
 -----------------------------------------------------------------
    Charge (ESU x 10^10)
                 0.0000
    Dipole Moment (Debye)
         X       2.8200      Y      -2.0075      Z       0.9693
       Tot       3.5947
    Quadrupole Moments (Debye-Ang)
        XX    -144.0999     XY       7.5715     YY    -160.7340
        XZ      -6.0727     YZ      -3.7342     ZZ    -151.9406

 Total job time:  71.36s(wall), 3395.24s(cpu)
        *  Thank you very much for using Q-Chem.  Have a nice day.  *
