 Q-Chem 5.0, Q-Chem, Inc., Pleasanton, CA (2017)
 Q-Chem 5.0.1 for Intel X86 EM64T Linux

User input:
--------------------------------------------------------------
$molecule
0  1
O 3.0173898793 -1.4345579636 -0.9038625398
C 4.2202668944 -1.1235608072 -1.055608427
C 4.9671342248 0.1035416629 -0.4402992221
C 3.9895102696 1.2621510492 0.0227001155
C 2.4678042658 0.9410653665 -0.2229490113
O 1.9041672118 0.3726992491 0.9676802935
C 0.4801847558 0.0362174604 0.7465682817
C -0.4500517734 1.2678164369 1.1017110881
O -1.5959080014 1.4424354446 0.1735413112
C -2.4203666815 0.2775668988 0.1553607713
C -3.547434947 0.4555750317 -0.9253585923
C -4.8203189118 -0.4288132389 -0.6009116117
C -4.5971085328 -1.5228121168 0.5066214339
O -5.0266347794 -1.5155337122 1.6799725255
O 5.1571573369 -1.8961812084 -1.8099751212
O -3.954538103 -2.6451782129 -0.117883462
O -2.2689584359 -0.6995679102 0.923913287
C -3.6709085652 -3.6844133263 0.8955453092
C -4.1748119935 1.9090016857 -0.8212434891
C -5.1916215047 2.1323554234 -2.0106608629
C -6.4422892462 1.3179455367 -1.5092550664
C -5.8685144787 0.6859867837 -0.1821156115
O -5.0402664887 1.7808058797 0.3756162791
H -3.1292580163 0.2376259372 -1.9253366816
H -5.1521018429 -0.9526308317 -1.5150881423
H -3.4237286554 2.7092403306 -0.6777585838
H -5.4223949445 3.2031460165 -2.1259877892
H -4.7941616945 1.7529374862 -2.9658146652
H -7.2907161353 1.9834013908 -1.2828562729
H -6.772666601 0.5528505435 -2.2300015316
H -6.6182408276 0.3508771693 0.5608059515
O 1.8136253345 1.1989849473 -1.25723979
C 4.48973919 -3.09600101 -2.3682065622
C 5.6781892754 -0.2622872126 0.9386515115
C 6.7278469563 0.874248571 1.2596320316
C 5.7748738017 2.0490729575 1.6936814047
C 4.3580120042 1.3602540337 1.5625439725
O 4.6159536995 -0.0484777457 1.9435513146
H 5.7069074117 0.463542838 -1.1773369468
H 4.2208766038 2.1985618081 -0.515640902
H 3.6678875074 -2.8196171819 -3.0599822856
H 6.0695007836 -1.2969443898 0.9921917165
H 7.3899989486 0.5638638846 2.0836840291
H 7.3472640489 1.1268404404 0.38424641
H 5.9606001129 2.3576335465 2.7345830185
H 5.8646919045 2.9313133451 1.0401877146
H 3.5606774764 1.7910353409 2.1973634984
H 4.0740170003 -3.7412817215 -1.567601254
H 5.270363843 -3.6487032372 -2.9224532911
H -3.2645904654 -4.5518863717 0.3434224957
H -4.5876986229 -3.9854498999 1.4425990202
H -2.9205603171 -3.3291171135 1.6316714889
H -0.8136412091 1.1802283119 2.1482690661
H 0.1307516444 2.2073307805 1.0036140056
H 0.2510409852 -0.8262514597 1.4014854187
H 0.3193635376 -0.2443357419 -0.316660803
$end

$rem
JOBTYPE                   OPT
METHOD                    B3LYP
DFT_D                     d3_op
BASIS                     STO-3G
GEOM_OPT_MAX_CYCLES       100
GEOM_OPT_TOL_GRADIENT     300
GEOM_OPT_TOL_DISPLACEMENT 1200
GEOM_OPT_TOL_ENERGY       100
SYMMETRY                  False
THRESH                    12
SCF_CONVERGENCE           8
MAX_SUB_FILE_NUM          128
MEM_STATIC                400
MEM_TOTAL                 4000
$end
--------------------------------------------------------------

   16   -1510.2825641379      6.50E-09 Convergence criterion met
 Total energy in the final basis set = -1510.28256414
   13   -1510.2836949314      3.40E-09 Convergence criterion met
 Total energy in the final basis set = -1510.28369493
   13   -1510.2846959067      4.88E-09 Convergence criterion met
 Total energy in the final basis set = -1510.28469591
   13   -1510.2853817363      7.95E-09 Convergence criterion met
 Total energy in the final basis set = -1510.28538174
   13   -1510.2859858729      4.76E-09 Convergence criterion met
 Total energy in the final basis set = -1510.28598587
   13   -1510.2865233251      3.51E-09 Convergence criterion met
 Total energy in the final basis set = -1510.28652333
   13   -1510.2870476828      2.94E-09 Convergence criterion met
 Total energy in the final basis set = -1510.28704768
   13   -1510.2874638998      4.08E-09 Convergence criterion met
   13   -1510.2880926814      6.03E-09 Convergence criterion met
 Total energy in the final basis set = -1510.28809268
   13   -1510.2875147593      6.42E-09 Convergence criterion met
 Total energy in the final basis set = -1510.28751476
   13   -1510.2881515864      5.58E-09 Convergence criterion met
 Total energy in the final basis set = -1510.28815159
   12   -1510.2880846948      9.77E-09 Convergence criterion met
 Total energy in the final basis set = -1510.28808469
   12   -1510.2881681914      4.85E-09 Convergence criterion met
 Total energy in the final basis set = -1510.28816819
    9   -1510.2881703322      6.08E-09 Convergence criterion met
 Total energy in the final basis set = -1510.28817033

             Standard Nuclear Orientation (Angstroms)
    I     Atom           X                Y                Z
 ----------------------------------------------------------------
    1      O       3.3198762463    -0.9886004848    -1.9199158745
    2      C       4.4744019498    -1.0047597799    -1.4360560305
    3      C       5.1270583435     0.0643490832    -0.4975218233
    4      C       4.1335114868     1.2330825622    -0.1034225946
    5      C       2.7209411817     1.1407938918    -0.7925957540
    6      O       1.8539821753     0.3382429435     0.0234967906
    7      C       0.5502546855     0.1388174792    -0.6493303131
    8      C      -0.3520619973     1.4312378427    -0.5994619833
    9      O      -1.6874987471     1.1642717923    -1.1888166292
   10      C      -2.5490479313     0.5495048774    -0.2289437321
   11      C      -3.9379039841     0.2965819244    -0.9039972402
   12      C      -4.9334932036    -0.5204544347     0.0159170817
   13      C      -4.3229455627    -0.9831109321     1.3915395052
   14      O      -4.5815500941    -0.5302576512     2.5262442229
   15      O       5.4217891006    -2.0481894208    -1.6670753389
   16      O      -3.5094778939    -2.1404502591     1.1411130592
   17      O      -2.2232559328     0.2958652609     0.9530569316
   18      C      -2.8605292828    -2.5734087947     2.3979144387
   19      C      -4.7440528592     1.6586870147    -1.0783060549
   20      C      -5.9607531470     1.3940610211    -2.0509102677
   21      C      -6.9435382924     0.6106648414    -1.1031474233
   22      C      -6.0923171125     0.5410066588     0.2247420983
   23      O      -5.3788110971     1.8402728181     0.2447900960
   24      H      -3.7728159026    -0.1966513910    -1.8787297427
   25      H      -5.2954095370    -1.4189988772    -0.5151413828
   26      H      -4.1118734597     2.5308301488    -1.3357445186
   27      H      -6.3970524571     2.3469872035    -2.3900013889
   28      H      -5.6621387122     0.8075343139    -2.9345273099
   29      H      -7.8761418801     1.1729673045    -0.9356582648
   30      H      -7.1977380688    -0.3905165237    -1.4861896011
   31      H      -6.6674079390     0.4051003235     1.1611706932
   32      O       2.3605758484     1.7522238460    -1.8224535583
   33      C       4.8285082122    -3.0911323304    -2.5368668350
   34      C       5.4648859583    -0.5444100355     0.9324277613
   35      C       6.4275047315     0.4576326596     1.6839118584
   36      C       5.4228854455     1.6002090469     2.0846782037
   37      C       4.0738977734     1.0488293463     1.4736981707
   38      O       4.1842132402    -0.4169778176     1.6614905682
   39      H       6.0373164224     0.4502346994    -0.9918068619
   40      H       4.5648212434     2.2112813888    -0.3796416335
   41      H       4.5308172160    -2.6793475423    -3.5227427293
   42      H       5.8014249888    -1.5990801294     0.9045604616
   43      H       6.8685916443    -0.0244195003     2.5709000102
   44      H       7.2423672796     0.8144127817     1.0338177413
   45      H       5.3379412640     1.6978487219     3.1786478717
   46      H       5.6991808975     2.5792541613     1.6619835740
   47      H       3.1480243133     1.4293996282     1.9456161495
   48      H       3.9386073344    -3.5561833195    -2.0653768188
   49      H       5.6156962655    -3.8547828207    -2.6757667873
   50      H      -2.2852731232    -3.4845371411     2.1501810300
   51      H      -3.6055457733    -2.8067158547     3.1860043222
   52      H      -2.1722887638    -1.7927331050     2.7823781723
   53      H      -0.4464165153     1.7784522433     0.4512042387
   54      H       0.1066115240     2.2230511756    -1.2242567878
   55      H       0.0521653483    -0.6793800010    -0.0907760383
   56      H       0.6976524393    -0.1704607070    -1.7061287729
 ----------------------------------------------------------------

    9   -1510.2881699348      8.08E-09 Convergence criterion met
 Total energy in the final basis set = -1510.28816993
 Final energy is   -1510.28816993477
 **  OPTIMIZATION CONVERGED  **

                    Orbital Energies (a.u.)
 --------------------------------------------------------------

 Alpha MOs
 -- Occupied --
-18.945 -18.938 -18.925 -18.915 -18.889 -18.888 -18.884 -18.882
-18.862 -18.857 -10.108 -10.103 -10.094 -10.086 -10.071 -10.066
-10.063 -10.062 -10.059 -10.058 -10.053 -10.050 -10.042 -10.037
-10.035 -10.029 -10.022 -10.020 -10.018 -10.016  -1.022  -1.016
 -1.002  -0.993  -0.971  -0.967  -0.945  -0.940  -0.928  -0.920
 -0.765  -0.760  -0.726  -0.721  -0.713  -0.704  -0.690  -0.668
 -0.651  -0.615  -0.596  -0.579  -0.547  -0.541  -0.538  -0.534
 -0.514  -0.507  -0.485  -0.473  -0.464  -0.454  -0.450  -0.445
 -0.435  -0.432  -0.428  -0.417  -0.410  -0.404  -0.399  -0.393
 -0.389  -0.381  -0.378  -0.362  -0.361  -0.355  -0.350  -0.344
 -0.338  -0.335  -0.335  -0.329  -0.329  -0.326  -0.321  -0.315
 -0.310  -0.307  -0.301  -0.301  -0.297  -0.283  -0.277  -0.273
 -0.270  -0.263  -0.256  -0.243  -0.240  -0.235  -0.231  -0.189
 -0.185  -0.163  -0.162  -0.160  -0.157  -0.146  -0.142  -0.142
 -0.137

          Ground-State Mulliken Net Atomic Charges

     Atom                 Charge (a.u.)
  ----------------------------------------
      1 O                    -0.207372
      2 C                     0.215078
      3 C                    -0.078210
      4 C                    -0.081862
      5 C                     0.214493
      6 O                    -0.169735
      7 C                    -0.049589
      8 C                    -0.055292
      9 O                    -0.170603
     10 C                     0.213853
     11 C                    -0.077953
     12 C                    -0.081588
     13 C                     0.215877
     14 O                    -0.216413
     15 O                    -0.168802
     16 O                    -0.177629
     17 O                    -0.207631
     18 C                    -0.128779
     19 C                     0.025306
     20 C                    -0.143778
     21 C                    -0.143976
     22 C                     0.024848
     23 O                    -0.189026
     24 H                     0.086806
     25 H                     0.083094
     26 H                     0.085170
     27 H                     0.077950
     28 H                     0.073516
     29 H                     0.077600
     30 H                     0.072905
     31 H                     0.089041
     32 O                    -0.222574
     33 C                    -0.128015
     34 C                     0.025127
     35 C                    -0.143788
     36 C                    -0.144228
     37 C                     0.026416
     38 O                    -0.187304
     39 H                     0.087083
     40 H                     0.083291
     41 H                     0.091225
     42 H                     0.086752
     43 H                     0.078457
     44 H                     0.073627
     45 H                     0.078387
     46 H                     0.073567
     47 H                     0.087876
     48 H                     0.091533
     49 H                     0.092480
     50 H                     0.085267
     51 H                     0.086141
     52 H                     0.092342
     53 H                     0.092832
     54 H                     0.099722
     55 H                     0.091429
     56 H                     0.095055
  ----------------------------------------
  Sum of atomic charges =    -0.000000

                    Cartesian Multipole Moments
 -----------------------------------------------------------------
    Charge (ESU x 10^10)
                -0.0000
    Dipole Moment (Debye)
         X       2.6030      Y      -1.3927      Z      -2.0635
       Tot       3.6019
    Quadrupole Moments (Debye-Ang)
        XX    -138.6501     XY       4.2508     YY    -153.7450
        XZ      11.2482     YZ       3.7426     ZZ    -163.7735

 Total job time:  54.21s(wall), 2575.12s(cpu)
        *  Thank you very much for using Q-Chem.  Have a nice day.  *
