 Q-Chem 5.0, Q-Chem, Inc., Pleasanton, CA (2017)
 Q-Chem 5.0.1 for Intel X86 EM64T Linux

User input:
--------------------------------------------------------------
$molecule
0  1
O -3.94934 -3.66094 2.70899
C -3.26408 -4.56952 2.26188
C -3.36658 -6.02376 2.66595
C -4.03945 -6.33287 4.01337
C -4.69326 -5.16829 4.72358
O -6.02003 -5.1154 4.40372
C -6.70401 -4.018 5.01782
C -7.24202 -4.43193 6.38359
O -7.08876 -3.35185 7.31783
C -7.71006 -2.19505 6.97882
C -7.41848 -1.06708 7.93972
C -8.48946 0.03227 7.99157
C -9.82633 -0.31772 7.36948
O -10.85559 -0.55173 7.98627
O -2.45795 -4.31234 1.19844
O -9.92027 -0.13841 6.02354
O -8.40789 -2.09109 5.98202
C -11.07547 -0.31663 5.29058
C -7.41049 -1.49703 9.43183
C -6.56053 -0.51735 10.23942
C -7.44355 0.71042 10.208
C -8.68477 0.13109 9.519
O -8.70241 -1.21902 9.90404
H -6.39648 -0.69938 7.69673
H -8.15952 1.00385 7.56243
H -7.04409 -2.53013 9.61197
H -6.53003 -0.90549 11.28326
H -5.52042 -0.36356 9.8798
H -7.66615 1.00943 11.25632
H -7.03627 1.5751 9.64041
H -9.58411 0.72674 9.79182
O -4.07489 -4.33943 5.38224
C -2.29093 -3.06562 0.63282
C -4.2136 -6.85248 1.68956
C -3.80708 -8.32229 1.77159
C -4.38019 -8.69644 3.12181
C -5.069 -7.38164 3.50678
O -5.4918 -6.85353 2.27214
H -2.31621 -6.39352 2.6852
H -3.37058 -6.82253 4.75546
H -1.87945 -2.3572 1.38327
H -4.15179 -6.49079 0.63973
H -4.37015 -8.87036 0.98253
H -2.71915 -8.5124 1.64784
H -5.1416 -9.49371 2.96925
H -3.63771 -9.02326 3.88142
H -5.8677 -7.58624 4.25374
H -3.26219 -2.68552 0.24992
H -1.57899 -3.14291 -0.21432
H -10.86389 -0.10741 4.22199
H -11.86463 0.38166 5.6425
H -11.43049 -1.36504 5.38653
H -8.28284 -4.81844 6.32003
H -6.60914 -5.2498 6.78921
H -7.53433 -3.68679 4.35988
H -6.03651 -3.12754 5.09074
$end

$opt
CONSTRAINT
tors           1           2           3           4     -20.198
tors           3           4           5           6     +94.131
tors           4           5           6           7    -178.757
tors           5           6           7           8     -89.129
tors           6           7           8           9    +141.127
tors           7           8           9          10     +58.755
tors           8           9          10          11    -175.243
tors           9          10          11          12    -155.094
tors          11          12          13          14    +106.999
ENDCONSTRAINT
$end

$rem
JOBTYPE                   OPT
METHOD                    B3LYP
DFT_D                     d3_op
BASIS                     STO-3G
GEOM_OPT_MAX_CYCLES       100
GEOM_OPT_TOL_GRADIENT     300
GEOM_OPT_TOL_DISPLACEMENT 1200
GEOM_OPT_TOL_ENERGY       100
SYMMETRY                  False
THRESH                    12
SCF_CONVERGENCE           8
MAX_SUB_FILE_NUM          128
MEM_STATIC                400
MEM_TOTAL                 4000
$end
--------------------------------------------------------------

   15   -1510.1473274896      6.36E-09 Convergence criterion met
 Total energy in the final basis set = -1510.14732749
   14   -1510.2175708466      8.11E-09 Convergence criterion met
 Total energy in the final basis set = -1510.21757085
   14   -1510.2546526789      6.93E-09 Convergence criterion met
 Total energy in the final basis set = -1510.25465268
   14   -1510.2705110423      4.95E-09 Convergence criterion met
 Total energy in the final basis set = -1510.27051104
   13   -1510.2758647688      8.58E-09 Convergence criterion met
 Total energy in the final basis set = -1510.27586477
   13   -1510.2780846788      4.94E-09 Convergence criterion met
 Total energy in the final basis set = -1510.27808468
   12   -1510.2792473276      7.42E-09 Convergence criterion met
 Total energy in the final basis set = -1510.27924733
   12   -1510.2801952995      9.69E-09 Convergence criterion met
   12   -1510.2827963245      3.23E-09 Convergence criterion met
 Total energy in the final basis set = -1510.28279632
   12   -1510.2828984090      3.34E-09 Convergence criterion met
 Total energy in the final basis set = -1510.28289841
   11   -1510.2829503298      4.55E-09 Convergence criterion met
 Total energy in the final basis set = -1510.28295033
   11   -1510.2829777849      5.70E-09 Convergence criterion met
 Total energy in the final basis set = -1510.28297778
   11   -1510.2829899280      4.45E-09 Convergence criterion met
 Total energy in the final basis set = -1510.28298993
   11   -1510.2829951801      2.50E-09 Convergence criterion met
 Total energy in the final basis set = -1510.28299518

             Standard Nuclear Orientation (Angstroms)
    I     Atom           X                Y                Z
 ----------------------------------------------------------------
    1      O       3.0173898793    -1.4345579636    -0.9038625398
    2      C       4.2202668944    -1.1235608072    -1.0556084270
    3      C       4.9671342248     0.1035416629    -0.4402992221
    4      C       3.9895102696     1.2621510492     0.0227001155
    5      C       2.4678042658     0.9410653665    -0.2229490113
    6      O       1.9041672118     0.3726992491     0.9676802935
    7      C       0.4801847558     0.0362174604     0.7465682817
    8      C      -0.4500517734     1.2678164369     1.1017110881
    9      O      -1.5959080014     1.4424354446     0.1735413112
   10      C      -2.4203666815     0.2775668988     0.1553607713
   11      C      -3.5474349470     0.4555750317    -0.9253585923
   12      C      -4.8203189118    -0.4288132389    -0.6009116117
   13      C      -4.5971085328    -1.5228121168     0.5066214339
   14      O      -5.0266347794    -1.5155337122     1.6799725255
   15      O       5.1571573369    -1.8961812084    -1.8099751212
   16      O      -3.9545381030    -2.6451782129    -0.1178834620
   17      O      -2.2689584359    -0.6995679102     0.9239132870
   18      C      -3.6709085652    -3.6844133263     0.8955453092
   19      C      -4.1748119935     1.9090016857    -0.8212434891
   20      C      -5.1916215047     2.1323554234    -2.0106608629
   21      C      -6.4422892462     1.3179455367    -1.5092550664
   22      C      -5.8685144787     0.6859867837    -0.1821156115
   23      O      -5.0402664887     1.7808058797     0.3756162791
   24      H      -3.1292580163     0.2376259372    -1.9253366816
   25      H      -5.1521018429    -0.9526308317    -1.5150881423
   26      H      -3.4237286554     2.7092403306    -0.6777585838
   27      H      -5.4223949445     3.2031460165    -2.1259877892
   28      H      -4.7941616945     1.7529374862    -2.9658146652
   29      H      -7.2907161353     1.9834013908    -1.2828562729
   30      H      -6.7726666010     0.5528505435    -2.2300015316
   31      H      -6.6182408276     0.3508771693     0.5608059515
   32      O       1.8136253345     1.1989849473    -1.2572397900
   33      C       4.4897391900    -3.0960010100    -2.3682065622
   34      C       5.6781892754    -0.2622872126     0.9386515115
   35      C       6.7278469563     0.8742485710     1.2596320316
   36      C       5.7748738017     2.0490729575     1.6936814047
   37      C       4.3580120042     1.3602540337     1.5625439725
   38      O       4.6159536995    -0.0484777457     1.9435513146
   39      H       5.7069074117     0.4635428380    -1.1773369468
   40      H       4.2208766038     2.1985618081    -0.5156409020
   41      H       3.6678875074    -2.8196171819    -3.0599822856
   42      H       6.0695007836    -1.2969443898     0.9921917165
   43      H       7.3899989486     0.5638638846     2.0836840291
   44      H       7.3472640489     1.1268404404     0.3842464100
   45      H       5.9606001129     2.3576335465     2.7345830185
   46      H       5.8646919045     2.9313133451     1.0401877146
   47      H       3.5606774764     1.7910353409     2.1973634984
   48      H       4.0740170003    -3.7412817215    -1.5676012540
   49      H       5.2703638430    -3.6487032372    -2.9224532911
   50      H      -3.2645904654    -4.5518863717     0.3434224957
   51      H      -4.5876986229    -3.9854498999     1.4425990202
   52      H      -2.9205603171    -3.3291171135     1.6316714889
   53      H      -0.8136412091     1.1802283119     2.1482690661
   54      H       0.1307516444     2.2073307805     1.0036140056
   55      H       0.2510409852    -0.8262514597     1.4014854187
   56      H       0.3193635376    -0.2443357419    -0.3166608030
 ----------------------------------------------------------------

    9   -1510.2829956491      7.78E-09 Convergence criterion met
 Total energy in the final basis set = -1510.28299565
 Final energy is   -1510.28299564912
 **  OPTIMIZATION CONVERGED  **

                    Orbital Energies (a.u.)
 --------------------------------------------------------------

 Alpha MOs
 -- Occupied --
-18.942 -18.939 -18.926 -18.915 -18.890 -18.883 -18.881 -18.881
-18.864 -18.856 -10.105 -10.103 -10.095 -10.086 -10.071 -10.069
-10.064 -10.064 -10.060 -10.054 -10.052 -10.050 -10.041 -10.037
-10.037 -10.028 -10.022 -10.021 -10.017 -10.015  -1.018  -1.016
 -1.003  -0.993  -0.972  -0.965  -0.942  -0.940  -0.929  -0.920
 -0.765  -0.758  -0.726  -0.721  -0.712  -0.703  -0.689  -0.667
 -0.650  -0.616  -0.595  -0.580  -0.548  -0.540  -0.539  -0.533
 -0.514  -0.505  -0.483  -0.474  -0.463  -0.452  -0.449  -0.445
 -0.435  -0.432  -0.426  -0.416  -0.410  -0.402  -0.400  -0.397
 -0.389  -0.378  -0.376  -0.364  -0.359  -0.357  -0.348  -0.344
 -0.341  -0.337  -0.332  -0.330  -0.327  -0.324  -0.320  -0.313
 -0.309  -0.305  -0.302  -0.301  -0.296  -0.284  -0.279  -0.271
 -0.271  -0.260  -0.256  -0.241  -0.239  -0.235  -0.229  -0.188
 -0.183  -0.164  -0.160  -0.158  -0.155  -0.148  -0.144  -0.140
 -0.137

          Ground-State Mulliken Net Atomic Charges

     Atom                 Charge (a.u.)
  ----------------------------------------
      1 O                    -0.208061
      2 C                     0.211642
      3 C                    -0.079087
      4 C                    -0.080666
      5 C                     0.212707
      6 O                    -0.169034
      7 C                    -0.050756
      8 C                    -0.049107
      9 O                    -0.167169
     10 C                     0.215380
     11 C                    -0.076295
     12 C                    -0.082199
     13 C                     0.214386
     14 O                    -0.219112
     15 O                    -0.168976
     16 O                    -0.174604
     17 O                    -0.209599
     18 C                    -0.128116
     19 C                     0.023108
     20 C                    -0.144979
     21 C                    -0.142945
     22 C                     0.023658
     23 O                    -0.191776
     24 H                     0.087581
     25 H                     0.083102
     26 H                     0.090578
     27 H                     0.077535
     28 H                     0.073066
     29 H                     0.077157
     30 H                     0.072658
     31 H                     0.088371
     32 O                    -0.220984
     33 C                    -0.128500
     34 C                     0.026030
     35 C                    -0.143205
     36 C                    -0.144714
     37 C                     0.026587
     38 O                    -0.185782
     39 H                     0.086906
     40 H                     0.083513
     41 H                     0.091146
     42 H                     0.084061
     43 H                     0.078502
     44 H                     0.074115
     45 H                     0.078227
     46 H                     0.073399
     47 H                     0.087522
     48 H                     0.090816
     49 H                     0.091696
     50 H                     0.085371
     51 H                     0.086577
     52 H                     0.091010
     53 H                     0.089938
     54 H                     0.091159
     55 H                     0.099283
     56 H                     0.098877
  ----------------------------------------
  Sum of atomic charges =     0.000000

                    Cartesian Multipole Moments
 -----------------------------------------------------------------
    Charge (ESU x 10^10)
                 0.0000
    Dipole Moment (Debye)
         X       2.9419      Y       0.0911      Z      -2.3345
       Tot       3.7567
    Quadrupole Moments (Debye-Ang)
        XX    -145.0651     XY       2.0065     YY    -150.7895
        XZ       9.4340     YZ       4.5291     ZZ    -161.8933

 Total job time:  53.33s(wall), 2532.81s(cpu)
        *  Thank you very much for using Q-Chem.  Have a nice day.  *
