 Q-Chem 5.0, Q-Chem, Inc., Pleasanton, CA (2017)
 Q-Chem 5.0.1 for Intel X86 EM64T Linux

User input:
--------------------------------------------------------------
$molecule
0  1
O -2.8862157182 0.7309118119 1.4224081329
C -4.0602665377 1.0375678758 1.1153631736
C -4.9034883523 0.4875384968 -0.0819540986
C -4.017169872 -0.1511634811 -1.2319302046
C -2.4703665036 0.0079771563 -0.9855918125
O -1.9355020922 -1.2251805142 -0.4852359029
C -0.5189013297 -1.0452237281 -0.0986076845
C 0.4567057897 -1.0204889972 -1.3490169915
O 1.4600648409 0.0678031689 -1.2629492123
C 2.4150008444 -0.2157646072 -0.2393735799
C 3.3915065376 1.0060623131 -0.0872498109
C 4.7965563597 0.5637286851 0.4927140236
C 4.8182923703 -0.8715022103 1.1352802746
O 5.3848010212 -1.8925032904 0.6906571814
O -4.8770513591 1.9365484722 1.8688212684
O 4.2249187394 -0.7740694417 2.439820893
O 2.4604281858 -1.2985806315 0.387967844
C 4.1615318299 -2.1161512513 3.0579809871
C 3.826072672 1.5130297379 -1.5265317322
C 4.7044254454 2.8195936912 -1.3913109436
C 6.0926519846 2.2183933982 -0.9534208272
C 5.7153238828 0.6953999227 -0.7944909111
O 4.7933287148 0.4646608225 -1.9317686311
H 2.9075632007 1.7902394842 0.5232903478
H 5.1152742241 1.2745308341 1.2765931951
H 2.9881844394 1.5712887424 -2.2475827102
H 4.773062628 3.3404429245 -2.3593363951
H 4.2906429646 3.5167121585 -0.6449504315
H 6.851803436 2.3453145549 -1.7417878329
H 6.4751220801 2.6573165826 -0.0181581305
H 6.5577001789 -0.0225844489 -0.8272665381
O -1.7850914297 1.0243649723 -1.2324611818
C -4.129367308 2.4326137785 3.0485193084
C -5.7658842368 -0.7752966221 0.3631922159
C -6.8435557378 -1.0567312378 -0.7571948737
C -5.9520440688 -1.7070398423 -1.8791633237
C -4.5248435256 -1.6552720903 -1.2022588727
O -4.8139921637 -1.8990263252 0.2303932766
H -5.5502474491 1.2986933569 -0.4607080549
H -4.2488779911 0.3311614622 -2.1985725031
H -3.2040685791 2.9655695241 2.7491612917
H -6.1627283144 -0.7173321402 1.3955153999
H -7.608558631 -1.7586246737 -0.3884941224
H -7.3429189509 -0.1332642221 -1.0911326941
H -6.2466062487 -2.7503382044 -2.0748581712
H -5.982208259 -1.1469006582 -2.8273342836
H -3.7920689604 -2.3935988174 -1.5795441914
H -3.8533832221 1.6045799328 3.7330341701
H -4.8095140034 3.1319911149 3.5683280353
H 3.7696252463 -1.9670890702 4.0809327677
H 5.1615711342 -2.5937025403 3.1068035023
H 3.4784017869 -2.7829655694 2.4926981785
H 0.9611410102 -2.0039053029 -1.4584395776
H -0.1202775449 -0.8033312974 -2.2699628878
H -0.2783221542 -1.9021744389 0.5604317262
H -0.3954203982 -0.0983796589 0.4709521529
$end

$rem
JOBTYPE                   OPT
METHOD                    B3LYP
DFT_D                     d3_op
BASIS                     STO-3G
GEOM_OPT_MAX_CYCLES       100
GEOM_OPT_TOL_GRADIENT     300
GEOM_OPT_TOL_DISPLACEMENT 1200
GEOM_OPT_TOL_ENERGY       100
SYMMETRY                  False
THRESH                    12
SCF_CONVERGENCE           8
MAX_SUB_FILE_NUM          128
MEM_STATIC                400
MEM_TOTAL                 4000
$end
--------------------------------------------------------------

   16   -1510.2823982703      5.75E-09 Convergence criterion met
 Total energy in the final basis set = -1510.28239827
   14   -1510.2835278170      1.55E-09 Convergence criterion met
 Total energy in the final basis set = -1510.28352782
   14   -1510.2842745563      3.19E-09 Convergence criterion met
 Total energy in the final basis set = -1510.28427456
   13   -1510.2847991063      5.68E-09 Convergence criterion met
 Total energy in the final basis set = -1510.28479911
   13   -1510.2853701089      2.80E-09 Convergence criterion met
 Total energy in the final basis set = -1510.28537011
   13   -1510.2858003732      4.92E-09 Convergence criterion met
 Total energy in the final basis set = -1510.28580037
   13   -1510.2862636936      4.80E-09 Convergence criterion met
 Total energy in the final basis set = -1510.28626369
   13   -1510.2866958662      4.23E-09 Convergence criterion met
   13   -1510.2881102719      2.28E-09 Convergence criterion met
 Total energy in the final basis set = -1510.28811027
   13   -1510.2881753520      2.78E-09 Convergence criterion met
 Total energy in the final basis set = -1510.28817535
   12   -1510.2881969028      2.29E-09 Convergence criterion met
 Total energy in the final basis set = -1510.28819690
   12   -1510.2881847595      1.83E-09 Convergence criterion met
 Total energy in the final basis set = -1510.28818476
   10   -1510.2881986448      9.95E-09 Convergence criterion met
 Total energy in the final basis set = -1510.28819864
   10   -1510.2881975277      9.77E-09 Convergence criterion met
 Total energy in the final basis set = -1510.28819753

             Standard Nuclear Orientation (Angstroms)
    I     Atom           X                Y                Z
 ----------------------------------------------------------------
    1      O       3.2508668058    -0.4651603583    -2.1670302153
    2      C       4.3630420845    -0.7481116023    -1.6671780952
    3      C       5.0992152230    -0.0020914131    -0.5049393380
    4      C       4.2198027576     1.1353224207     0.1604281287
    5      C       2.7861573584     1.2969048664    -0.4681123338
    6      O       1.9138511629     0.3126160339     0.1100392497
    7      C       0.5786116396     0.3706770893    -0.5262545854
    8      C      -0.2792205087     1.5829725239     0.0031425000
    9      O      -1.6149333867     1.5988628585    -0.6435668701
   10      C      -2.5034316118     0.6885317987     0.0076466786
   11      C      -3.8803098725     0.7334275024    -0.7338132386
   12      C      -4.8822707406    -0.3950188900    -0.2574596557
   13      C      -4.2982350107    -1.3651432250     0.8365464687
   14      O      -4.5984464703    -1.4079231505     2.0479618761
   15      O       5.1767109877    -1.8404880743    -2.0970303068
   16      O      -3.4431949499    -2.3112517721     0.1751220453
   17      O      -2.2065355007     0.0073563098     1.0152019892
   18      C      -2.8156448922    -3.1994054759     1.1779696007
   19      C      -4.6976196868     2.0428660603    -0.3425389557
   20      C      -5.8847682176     2.2143401791    -1.3713378816
   21      C      -6.8766762308     1.0943381533    -0.8802757211
   22      C      -6.0670778645     0.4807557804     0.3282387305
   23      O      -5.3740017641     1.6532753724     0.9133264047
   24      H      -3.6936422357     0.6905059158    -1.8216362337
   25      H      -5.2110918137    -1.0052760254    -1.1175091808
   26      H      -4.0703412694     2.9427572055    -0.1897404510
   27      H      -6.3296793890     3.2180848592    -1.2808019895
   28      H      -5.5559945419     2.0660482732    -2.4124009992
   29      H      -7.8293305444     1.5229355451    -0.5306554664
   30      H      -7.0893807591     0.3445103062    -1.6587289850
   31      H      -6.6692175080    -0.0332006254     1.1023191907
   32      O       2.4166580663     2.1938430936    -1.2572021903
   33      C       4.4975010651    -2.5839295663    -3.1843366309
   34      C       5.3673409151    -0.9546883764     0.7405011319
   35      C       6.4439419527    -0.2634194123     1.6663226720
   36      C       5.5869895908     0.8831737002     2.3194808506
   37      C       4.1727700178     0.6230473398     1.6631105311
   38      O       4.1173122107    -0.8512656558     1.5250346675
   39      H       6.0489315345     0.4013399759    -0.9019735960
   40      H       4.7240763301     2.1142284862     0.0782139313
   41      H       4.2681008975    -1.9266278991    -4.0475792831
   42      H       5.5770127482    -2.0068353819     0.4662669677
   43      H       6.8123824705    -0.9746102921     2.4228644990
   44      H       7.3032284593     0.1178497446     1.0916799673
   45      H       5.5308030342     0.7727445256     3.4140105770
   46      H       5.9721633660     1.8882973717     2.0848521574
   47      H       3.3062417854     0.9891510834     2.2461877525
   48      H       3.5524663105    -3.0451347630    -2.8311350798
   49      H       5.2018342311    -3.3767134237    -3.4968124520
   50      H      -2.2021453795    -3.9220511583     0.6089396804
   51      H      -3.5739782847    -3.7449641635     1.7761677422
   52      H      -2.1662573028    -2.6247150828     1.8700560649
   53      H      -0.3751428554     1.5205721642     1.1077571251
   54      H       0.2101456905     2.5342114510    -0.2855954186
   55      H       0.0781105491    -0.5809696345    -0.2559498970
   56      H       0.6713676865     0.4412070433    -1.6310387730
 ----------------------------------------------------------------

   10   -1510.2881975549      8.90E-09 Convergence criterion met
 Total energy in the final basis set = -1510.28819755
 Final energy is   -1510.28819755487
 **  OPTIMIZATION CONVERGED  **

                    Orbital Energies (a.u.)
 --------------------------------------------------------------

 Alpha MOs
 -- Occupied --
-18.945 -18.937 -18.924 -18.915 -18.889 -18.888 -18.884 -18.882
-18.863 -18.858 -10.108 -10.102 -10.094 -10.086 -10.071 -10.066
-10.063 -10.062 -10.060 -10.058 -10.054 -10.051 -10.042 -10.037
-10.036 -10.030 -10.022 -10.020 -10.018 -10.017  -1.021  -1.016
 -1.002  -0.994  -0.971  -0.967  -0.945  -0.940  -0.928  -0.921
 -0.765  -0.760  -0.726  -0.721  -0.713  -0.705  -0.690  -0.668
 -0.651  -0.615  -0.596  -0.579  -0.547  -0.541  -0.538  -0.534
 -0.514  -0.507  -0.485  -0.473  -0.464  -0.454  -0.450  -0.444
 -0.435  -0.432  -0.427  -0.417  -0.410  -0.404  -0.400  -0.393
 -0.389  -0.381  -0.379  -0.363  -0.360  -0.354  -0.350  -0.344
 -0.338  -0.336  -0.334  -0.329  -0.329  -0.327  -0.322  -0.316
 -0.309  -0.307  -0.301  -0.301  -0.298  -0.283  -0.277  -0.274
 -0.271  -0.262  -0.255  -0.242  -0.240  -0.235  -0.231  -0.189
 -0.185  -0.163  -0.162  -0.160  -0.156  -0.146  -0.143  -0.142
 -0.138

          Ground-State Mulliken Net Atomic Charges

     Atom                 Charge (a.u.)
  ----------------------------------------
      1 O                    -0.207714
      2 C                     0.215041
      3 C                    -0.078371
      4 C                    -0.081530
      5 C                     0.214086
      6 O                    -0.170057
      7 C                    -0.050095
      8 C                    -0.054515
      9 O                    -0.170491
     10 C                     0.213497
     11 C                    -0.078322
     12 C                    -0.081310
     13 C                     0.215734
     14 O                    -0.215666
     15 O                    -0.168904
     16 O                    -0.177615
     17 O                    -0.208068
     18 C                    -0.128831
     19 C                     0.025459
     20 C                    -0.143556
     21 C                    -0.144225
     22 C                     0.024972
     23 O                    -0.188671
     24 H                     0.086941
     25 H                     0.083111
     26 H                     0.084743
     27 H                     0.077977
     28 H                     0.073623
     29 H                     0.077679
     30 H                     0.072906
     31 H                     0.089013
     32 O                    -0.221270
     33 C                    -0.128061
     34 C                     0.025069
     35 C                    -0.143552
     36 C                    -0.144445
     37 C                     0.026698
     38 O                    -0.186363
     39 H                     0.086824
     40 H                     0.083400
     41 H                     0.091677
     42 H                     0.087443
     43 H                     0.078492
     44 H                     0.073539
     45 H                     0.078319
     46 H                     0.073555
     47 H                     0.086310
     48 H                     0.091065
     49 H                     0.092434
     50 H                     0.085175
     51 H                     0.086237
     52 H                     0.092651
     53 H                     0.092915
     54 H                     0.097971
     55 H                     0.091622
     56 H                     0.095456
  ----------------------------------------
  Sum of atomic charges =     0.000000

                    Cartesian Multipole Moments
 -----------------------------------------------------------------
    Charge (ESU x 10^10)
                 0.0000
    Dipole Moment (Debye)
         X       2.6457      Y      -0.6829      Z      -2.3919
       Tot       3.6314
    Quadrupole Moments (Debye-Ang)
        XX    -139.2928     XY      -1.4163     YY    -155.4947
        XZ      12.6269     YZ       6.8650     ZZ    -162.0189

 Total job time:  59.88s(wall), 2848.06s(cpu)
        *  Thank you very much for using Q-Chem.  Have a nice day.  *
