 Q-Chem 5.0, Q-Chem, Inc., Pleasanton, CA (2017)
 Q-Chem 5.0.1 for Intel X86 EM64T Linux

User input:
--------------------------------------------------------------
$molecule
0  1
O -3.94934 -3.66094 2.70899
C -3.26408 -4.56952 2.26188
C -3.36658 -6.02376 2.66595
C -4.03945 -6.33287 4.01337
C -4.69326 -5.16829 4.72358
O -6.04506 -5.20809 4.53265
C -6.72057 -4.05547 5.04686
C -6.84729 -4.15356 6.56359
O -6.50573 -2.89509 7.16564
C -7.39806 -1.89308 6.96845
C -6.92992 -0.57009 7.52631
C -8.05287 0.40748 7.90264
C -9.44166 -0.19005 8.00715
O -10.07079 -0.34417 9.04397
O -2.45618 -4.31185 1.19991
O -10.08144 -0.43869 6.83409
O -8.2293 -1.9447 6.0725
C -11.36554 -0.93279 6.73343
C -6.1739 -0.66044 8.87416
C -5.26887 0.55991 9.03385
C -6.29814 1.64626 9.25997
C -7.57682 0.80224 9.31699
O -7.15632 -0.42852 9.85085
H -6.24547 -0.13996 6.76059
H -8.12087 1.29172 7.23135
H -5.57119 -1.58461 9.00246
H -4.69412 0.41464 9.97696
H -4.55834 0.74497 8.19972
H -6.09265 2.12447 10.24342
H -6.35723 2.41936 8.46345
H -8.36149 1.34104 9.89285
O -4.07519 -4.27915 5.29957
C -2.28557 -3.06421 0.63742
C -4.21449 -6.85285 1.69012
C -3.79755 -8.3196 1.76282
C -4.35182 -8.70093 3.11859
C -5.05648 -7.39567 3.5097
O -5.49014 -6.8673 2.27936
H -2.31638 -6.3944 2.68375
H -3.35879 -6.8072 4.75457
H -1.87318 -2.35864 1.3901
H -4.16162 -6.48642 0.64142
H -4.36874 -8.8663 0.97858
H -2.71081 -8.50619 1.62421
H -5.09913 -9.51289 2.9742
H -3.59646 -9.01144 3.87236
H -5.84885 -7.61825 4.25794
H -3.25544 -2.68075 0.25439
H -1.57275 -3.14115 -0.209
H -11.63057 -1.04032 5.6617
H -12.0842 -0.23329 7.21144
H -11.43014 -1.92969 7.21965
H -7.82974 -4.55757 6.89449
H -6.0818 -4.86092 6.94523
H -7.7358 -3.98157 4.60343
H -6.17818 -3.13479 4.72539
$end

$opt
CONSTRAINT
tors           1           2           3           4     -20.198
tors           3           4           5           6    +101.305
tors           4           5           6           7    -173.342
tors           5           6           7           8     -77.249
tors           6           7           8           9    +135.216
tors           7           8           9          10     +70.455
tors           8           9          10          11    -175.243
tors           9          10          11          12    -154.155
tors          11          12          13          14    +110.026
ENDCONSTRAINT
$end

$rem
JOBTYPE                   OPT
METHOD                    B3LYP
DFT_D                     d3_op
BASIS                     STO-3G
GEOM_OPT_MAX_CYCLES       100
GEOM_OPT_TOL_GRADIENT     300
GEOM_OPT_TOL_DISPLACEMENT 1200
GEOM_OPT_TOL_ENERGY       100
SYMMETRY                  False
THRESH                    12
SCF_CONVERGENCE           8
MAX_SUB_FILE_NUM          128
MEM_STATIC                400
MEM_TOTAL                 4000
$end
--------------------------------------------------------------

   15   -1510.1399087978      6.48E-09 Convergence criterion met
 Total energy in the final basis set = -1510.13990880
   14   -1510.2108442996      7.21E-09 Convergence criterion met
 Total energy in the final basis set = -1510.21084430
   13   -1510.2490958084      9.20E-09 Convergence criterion met
 Total energy in the final basis set = -1510.24909581
   14   -1510.2664488141      6.62E-09 Convergence criterion met
 Total energy in the final basis set = -1510.26644881
    2   -1510.2664488140      1.92E-09 Convergence criterion met
 Total energy in the final basis set = -1510.26644881
   13   -1510.2730014996      4.01E-09 Convergence criterion met
 Total energy in the final basis set = -1510.27300150
    2   -1510.2730014996      1.77E-09 Convergence criterion met
 Total energy in the final basis set = -1510.27300150
   13   -1510.2759632671      3.91E-09 Convergence criterion met
   11   -1510.2825398225      7.58E-09 Convergence criterion met
 Total energy in the final basis set = -1510.28253982
   11   -1510.2825958549      6.31E-09 Convergence criterion met
 Total energy in the final basis set = -1510.28259585
   10   -1510.2826204020      8.94E-09 Convergence criterion met
 Total energy in the final basis set = -1510.28262040
   11   -1510.2826475095      2.32E-09 Convergence criterion met
 Total energy in the final basis set = -1510.28264751
   11   -1510.2826605882      2.75E-09 Convergence criterion met
 Total energy in the final basis set = -1510.28266059
    9   -1510.2826650649      9.43E-09 Convergence criterion met
 Total energy in the final basis set = -1510.28266506

             Standard Nuclear Orientation (Angstroms)
    I     Atom           X                Y                Z
 ----------------------------------------------------------------
    1      O      -2.8862157182     0.7309118119     1.4224081329
    2      C      -4.0602665377     1.0375678758     1.1153631736
    3      C      -4.9034883523     0.4875384968    -0.0819540986
    4      C      -4.0171698720    -0.1511634811    -1.2319302046
    5      C      -2.4703665036     0.0079771563    -0.9855918125
    6      O      -1.9355020922    -1.2251805142    -0.4852359029
    7      C      -0.5189013297    -1.0452237281    -0.0986076845
    8      C       0.4567057897    -1.0204889972    -1.3490169915
    9      O       1.4600648409     0.0678031689    -1.2629492123
   10      C       2.4150008444    -0.2157646072    -0.2393735799
   11      C       3.3915065376     1.0060623131    -0.0872498109
   12      C       4.7965563597     0.5637286851     0.4927140236
   13      C       4.8182923703    -0.8715022103     1.1352802746
   14      O       5.3848010212    -1.8925032904     0.6906571814
   15      O      -4.8770513591     1.9365484722     1.8688212684
   16      O       4.2249187394    -0.7740694417     2.4398208930
   17      O       2.4604281858    -1.2985806315     0.3879678440
   18      C       4.1615318299    -2.1161512513     3.0579809871
   19      C       3.8260726720     1.5130297379    -1.5265317322
   20      C       4.7044254454     2.8195936912    -1.3913109436
   21      C       6.0926519846     2.2183933982    -0.9534208272
   22      C       5.7153238828     0.6953999227    -0.7944909111
   23      O       4.7933287148     0.4646608225    -1.9317686311
   24      H       2.9075632007     1.7902394842     0.5232903478
   25      H       5.1152742241     1.2745308341     1.2765931951
   26      H       2.9881844394     1.5712887424    -2.2475827102
   27      H       4.7730626280     3.3404429245    -2.3593363951
   28      H       4.2906429646     3.5167121585    -0.6449504315
   29      H       6.8518034360     2.3453145549    -1.7417878329
   30      H       6.4751220801     2.6573165826    -0.0181581305
   31      H       6.5577001789    -0.0225844489    -0.8272665381
   32      O      -1.7850914297     1.0243649723    -1.2324611818
   33      C      -4.1293673080     2.4326137785     3.0485193084
   34      C      -5.7658842368    -0.7752966221     0.3631922159
   35      C      -6.8435557378    -1.0567312378    -0.7571948737
   36      C      -5.9520440688    -1.7070398423    -1.8791633237
   37      C      -4.5248435256    -1.6552720903    -1.2022588727
   38      O      -4.8139921637    -1.8990263252     0.2303932766
   39      H      -5.5502474491     1.2986933569    -0.4607080549
   40      H      -4.2488779911     0.3311614622    -2.1985725031
   41      H      -3.2040685791     2.9655695241     2.7491612917
   42      H      -6.1627283144    -0.7173321402     1.3955153999
   43      H      -7.6085586310    -1.7586246737    -0.3884941224
   44      H      -7.3429189509    -0.1332642221    -1.0911326941
   45      H      -6.2466062487    -2.7503382044    -2.0748581712
   46      H      -5.9822082590    -1.1469006582    -2.8273342836
   47      H      -3.7920689604    -2.3935988174    -1.5795441914
   48      H      -3.8533832221     1.6045799328     3.7330341701
   49      H      -4.8095140034     3.1319911149     3.5683280353
   50      H       3.7696252463    -1.9670890702     4.0809327677
   51      H       5.1615711342    -2.5937025403     3.1068035023
   52      H       3.4784017869    -2.7829655694     2.4926981785
   53      H       0.9611410102    -2.0039053029    -1.4584395776
   54      H      -0.1202775449    -0.8033312974    -2.2699628878
   55      H      -0.2783221542    -1.9021744389     0.5604317262
   56      H      -0.3954203982    -0.0983796589     0.4709521529
 ----------------------------------------------------------------

    9   -1510.2826652528      2.94E-09 Convergence criterion met
 Total energy in the final basis set = -1510.28266525
 Final energy is   -1510.28266525281
 **  OPTIMIZATION CONVERGED  **

                    Orbital Energies (a.u.)
 --------------------------------------------------------------

 Alpha MOs
 -- Occupied --
-18.942 -18.938 -18.928 -18.915 -18.890 -18.883 -18.880 -18.880
-18.865 -18.857 -10.105 -10.102 -10.095 -10.086 -10.070 -10.069
-10.066 -10.063 -10.059 -10.054 -10.052 -10.050 -10.041 -10.036
-10.036 -10.028 -10.022 -10.021 -10.016 -10.015  -1.019  -1.016
 -1.004  -0.993  -0.972  -0.964  -0.942  -0.939  -0.930  -0.920
 -0.764  -0.758  -0.726  -0.721  -0.712  -0.703  -0.689  -0.667
 -0.650  -0.616  -0.595  -0.580  -0.547  -0.540  -0.539  -0.532
 -0.514  -0.504  -0.483  -0.476  -0.463  -0.452  -0.449  -0.446
 -0.435  -0.429  -0.426  -0.416  -0.410  -0.402  -0.399  -0.397
 -0.387  -0.379  -0.376  -0.365  -0.360  -0.356  -0.349  -0.345
 -0.342  -0.336  -0.332  -0.329  -0.327  -0.324  -0.320  -0.313
 -0.309  -0.305  -0.303  -0.301  -0.295  -0.281  -0.279  -0.272
 -0.271  -0.260  -0.254  -0.243  -0.240  -0.235  -0.229  -0.188
 -0.183  -0.165  -0.160  -0.159  -0.154  -0.148  -0.143  -0.140
 -0.137

          Ground-State Mulliken Net Atomic Charges

     Atom                 Charge (a.u.)
  ----------------------------------------
      1 O                    -0.209678
      2 C                     0.212272
      3 C                    -0.078634
      4 C                    -0.080881
      5 C                     0.212496
      6 O                    -0.169238
      7 C                    -0.049299
      8 C                    -0.048980
      9 O                    -0.165568
     10 C                     0.214773
     11 C                    -0.076169
     12 C                    -0.082139
     13 C                     0.214331
     14 O                    -0.219153
     15 O                    -0.168832
     16 O                    -0.174744
     17 O                    -0.210641
     18 C                    -0.128077
     19 C                     0.023019
     20 C                    -0.145110
     21 C                    -0.142812
     22 C                     0.023284
     23 O                    -0.192215
     24 H                     0.087438
     25 H                     0.082841
     26 H                     0.091736
     27 H                     0.077659
     28 H                     0.072963
     29 H                     0.077202
     30 H                     0.072574
     31 H                     0.088726
     32 O                    -0.219836
     33 C                    -0.128529
     34 C                     0.025681
     35 C                    -0.143649
     36 C                    -0.144246
     37 C                     0.025788
     38 O                    -0.187106
     39 H                     0.087233
     40 H                     0.083016
     41 H                     0.091499
     42 H                     0.083673
     43 H                     0.078424
     44 H                     0.074121
     45 H                     0.078161
     46 H                     0.073363
     47 H                     0.089493
     48 H                     0.090198
     49 H                     0.091811
     50 H                     0.085351
     51 H                     0.086386
     52 H                     0.091252
     53 H                     0.091952
     54 H                     0.093589
     55 H                     0.095961
     56 H                     0.097270
  ----------------------------------------
  Sum of atomic charges =     0.000000

                    Cartesian Multipole Moments
 -----------------------------------------------------------------
    Charge (ESU x 10^10)
                 0.0000
    Dipole Moment (Debye)
         X      -3.0396      Y       2.2493      Z       0.7391
       Tot       3.8529
    Quadrupole Moments (Debye-Ang)
        XX    -148.5442     XY       7.7885     YY    -158.9186
        XZ       7.1656     YZ       4.0952     ZZ    -153.0070

 Total job time:  63.65s(wall), 3025.43s(cpu)
        *  Thank you very much for using Q-Chem.  Have a nice day.  *
