 Q-Chem 5.0, Q-Chem, Inc., Pleasanton, CA (2017)
 Q-Chem 5.0.1 for Intel X86 EM64T Linux

User input:
--------------------------------------------------------------
$molecule
0  1
O -3.0801307722 0.4138647947 1.6824774897
C -4.2514306288 0.7106413792 1.356767038
C -4.9466696737 0.4698631137 -0.0234555378
C -3.9237219536 0.2528283341 -1.2157743608
C -2.4144032774 0.330455025 -0.7750462384
O -1.9306211343 -0.9910696515 -0.4930810362
C -0.5213374777 -0.9264724552 -0.0491042955
C 0.4756480181 -1.0139419056 -1.278309739
O 1.513675035 0.0442164374 -1.249006555
C 2.443203637 -0.1999718102 -0.1920330375
C 3.4590722337 0.9971809512 -0.1056032575
C 4.8596432693 0.5317908178 0.4660652578
C 4.8329730561 -0.8465952585 1.222452175
O 5.3941109262 -1.9109591267 0.8862891141
O -5.2044052181 1.3020498331 2.2434104129
O 4.2113619982 -0.6234481498 2.4981479955
O 2.4455893608 -1.2426187764 0.5013030137
C 4.1085323204 -1.9028582854 3.2328672564
C 3.884381642 1.4205280343 -1.573874707
C 4.8291109299 2.6861603467 -1.518195554
C 6.1992751972 2.0353722782 -1.094994004
C 5.7495010444 0.543931593 -0.8470123392
O 4.7882744653 0.3056482249 -1.9497349312
H 3.0119253659 1.8220748865 0.4786097237
H 5.2276558552 1.2816169165 1.1898747032
H 3.0342555885 1.4869242726 -2.2795180494
H 4.8938245368 3.1640948726 -2.5083785295
H 4.4722618266 3.4325431314 -0.7899833772
H 6.935201595 2.0822776178 -1.9137670354
H 6.6367156583 2.5001284684 -0.1969121794
H 6.553417617 -0.2177503189 -0.8608578161
O -1.7076989565 1.3612784039 -0.7330246004
C -4.5974336668 1.5016525507 3.5806597826
C -5.7441257159 -0.9090055488 -0.0554335237
C -6.7279225654 -0.8709672506 -1.2909531659
C -5.7221796293 -1.0785248787 -2.4834331668
C -4.3489345344 -1.1943240345 -1.7107997455
O -4.7157343874 -1.8928254875 -0.4560413286
H -5.6263043436 1.3181617173 -0.2197730117
H -4.0782936778 1.0165620133 -1.9986235106
H -3.7158034575 2.172674412 3.5311458733
H -6.2064551718 -1.1945653939 0.9094655372
H -7.4576145097 -1.693983076 -1.2278139204
H -7.2749677975 0.0830597406 -1.3559985771
H -5.9328388221 -2.0101901318 -3.0323609202
H -5.7281133553 -0.2391030707 -3.1970275967
H -3.551630616 -1.7484145341 -2.2415942598
H -4.2825698309 0.5391537094 4.0331198896
H -5.3826371479 1.965788787 4.2051793298
H 3.7067733039 -1.6536194639 4.2322612574
H 5.0963641062 -2.3960668403 3.3392282424
H 3.4169873718 -2.6019867167 2.71927047
H 0.9474680998 -2.0185112442 -1.3182220032
H -0.084204153 -0.8392544747 -2.2195542438
H -0.3691547356 -1.7849648653 0.6336351726
H -0.3403442725 0.025163768 0.4956720232
$end

$rem
JOBTYPE                   OPT
METHOD                    B3LYP
DFT_D                     d3_op
BASIS                     STO-3G
GEOM_OPT_MAX_CYCLES       100
GEOM_OPT_TOL_GRADIENT     300
GEOM_OPT_TOL_DISPLACEMENT 1200
GEOM_OPT_TOL_ENERGY       100
SYMMETRY                  False
THRESH                    12
SCF_CONVERGENCE           8
MAX_SUB_FILE_NUM          128
MEM_STATIC                400
MEM_TOTAL                 4000
$end
--------------------------------------------------------------

   16   -1510.2818644972      6.55E-09 Convergence criterion met
 Total energy in the final basis set = -1510.28186450
   13   -1510.2830335483      4.51E-09 Convergence criterion met
 Total energy in the final basis set = -1510.28303355
   13   -1510.2838827996      6.63E-09 Convergence criterion met
 Total energy in the final basis set = -1510.28388280
   13   -1510.2844478643      5.90E-09 Convergence criterion met
 Total energy in the final basis set = -1510.28444786
   13   -1510.2849133159      4.66E-09 Convergence criterion met
 Total energy in the final basis set = -1510.28491332
   13   -1510.2852602067      5.03E-09 Convergence criterion met
 Total energy in the final basis set = -1510.28526021
   13   -1510.2855564889      2.95E-09 Convergence criterion met
 Total energy in the final basis set = -1510.28555649
   13   -1510.2857899750      3.23E-09 Convergence criterion met
   13   -1510.2879579026      7.65E-09 Convergence criterion met
 Total energy in the final basis set = -1510.28795790
   13   -1510.2880120215      8.64E-09 Convergence criterion met
 Total energy in the final basis set = -1510.28801202
   12   -1510.2880865115      3.63E-09 Convergence criterion met
 Total energy in the final basis set = -1510.28808651
   12   -1510.2880591388      9.63E-09 Convergence criterion met
 Total energy in the final basis set = -1510.28805914
   11   -1510.2881001304      9.66E-09 Convergence criterion met
 Total energy in the final basis set = -1510.28810013
   11   -1510.2881027475      9.34E-09 Convergence criterion met
 Total energy in the final basis set = -1510.28810275

             Standard Nuclear Orientation (Angstroms)
    I     Atom           X                Y                Z
 ----------------------------------------------------------------
    1      O       3.2046600318    -1.0130249558    -1.9726089094
    2      C       4.2527079205    -1.2083423807    -1.3163015313
    3      C       5.0041167170    -0.1849065450    -0.3996502354
    4      C       4.1903954377     1.1535925928    -0.1637669359
    5      C       2.7933420017     1.1932393479    -0.8875513523
    6      O       1.8469778718     0.4607700745    -0.0943240987
    7      C       0.5557263633     0.3397868912    -0.8062967581
    8      C      -0.2769506968     1.6794617269    -0.7885404850
    9      O      -1.6381625074     1.4446603671    -1.3327202475
   10      C      -2.4844096265     0.8827989038    -0.3268504931
   11      C      -3.8839425284     0.5827940629    -0.9567450683
   12      C      -4.7321369958    -0.4398366375    -0.0952444577
   13      C      -3.9797462700    -1.0023191169     1.1681853707
   14      O      -4.2506847683    -0.7920908050     2.3687334628
   15      O       4.9667014403    -2.4453091269    -1.3045452816
   16      O      -2.9824191789    -1.9277723669     0.7069940625
   17      O      -2.1376775883     0.6910847264     0.8609322537
   18      C      -2.1985167964    -2.4305330890     1.8566150421
   19      C      -4.8265010050     1.8653329568    -0.8991202919
   20      C      -6.0812995409     1.6005437600    -1.8230506907
   21      C      -6.9188927576     0.6152098002    -0.9255692023
   22      C      -5.9669859295     0.4611425063     0.3234318074
   23      O      -5.3761220771     1.8131016472     0.4726400768
   24      H      -3.7373448061     0.2362204380    -1.9949803342
   25      H      -5.0446536405    -1.2986035133    -0.7163551363
   26      H      -4.3035442142     2.8253794229    -1.0768824286
   27      H      -6.6257405708     2.5393560164    -2.0126256087
   28      H      -5.7943613595     1.1569537630    -2.7897160703
   29      H      -7.8793438172     1.0627298697    -0.6243768610
   30      H      -7.1177392036    -0.3486898449    -1.4205437305
   31      H      -6.4516604519     0.1479499074     1.2683149775
   32      O       2.5082219514     1.8356661721    -1.9217374571
   33      C       4.2746971006    -3.4397046341    -2.1581892841
   34      C       5.1612598489    -0.7181803415     1.0897795658
   35      C       6.2518540179     0.1610439836     1.8181910255
   36      C       5.4556304901     1.4984355239     2.0489684606
   37      C       4.0527828012     1.1333806854     1.4196779519
   38      O       3.8950972098    -0.3059849541     1.7341026465
   39      H       5.9924642607     0.0172078414    -0.8521289057
   40      H       4.7666918133     2.0273697813    -0.5152853372
   41      H       4.2549194414    -3.1205297958    -3.2203276264
   42      H       5.3034605138    -1.8139769186     1.1624569481
   43      H       6.5437144495    -0.3053089138     2.7726172134
   44      H       7.1551214353     0.3002342945     1.2026107998
   45      H       5.3477543291     1.7242674407     3.1216847183
   46      H       5.9220371537     2.3634985759     1.5509017302
   47      H       3.1937078064     1.7101370530     1.8127203621
   48      H       3.2317605380    -3.6094229889    -1.8214436975
   49      H       4.8532856447    -4.3769521306    -2.0637144373
   50      H      -1.4739780580    -3.1559259577     1.4427625741
   51      H      -2.8435513669    -2.9349396226     2.6048911982
   52      H      -1.6522364080    -1.6061523706     2.3596781064
   53      H      -0.3295537016     2.0694772964     0.2501059079
   54      H       0.1997191026     2.4264157628    -1.4534430404
   55      H      -0.0070910190    -0.4440142654    -0.2595854661
   56      H       0.7162855740     0.0145814339    -1.8561895077
 ----------------------------------------------------------------

   10   -1510.2881029610      9.93E-09 Convergence criterion met
 Total energy in the final basis set = -1510.28810296
 Final energy is   -1510.28810296105
 **  OPTIMIZATION CONVERGED  **

                    Orbital Energies (a.u.)
 --------------------------------------------------------------

 Alpha MOs
 -- Occupied --
-18.945 -18.937 -18.923 -18.917 -18.889 -18.887 -18.884 -18.879
-18.863 -18.860 -10.109 -10.101 -10.094 -10.088 -10.071 -10.065
-10.063 -10.062 -10.060 -10.059 -10.054 -10.052 -10.042 -10.036
-10.035 -10.030 -10.021 -10.020 -10.018 -10.017  -1.022  -1.015
 -1.001  -0.995  -0.971  -0.967  -0.945  -0.939  -0.928  -0.922
 -0.764  -0.760  -0.726  -0.721  -0.713  -0.704  -0.690  -0.668
 -0.652  -0.615  -0.596  -0.580  -0.546  -0.542  -0.538  -0.534
 -0.514  -0.507  -0.485  -0.473  -0.464  -0.454  -0.450  -0.444
 -0.434  -0.432  -0.428  -0.418  -0.410  -0.405  -0.401  -0.392
 -0.390  -0.381  -0.377  -0.363  -0.361  -0.354  -0.350  -0.345
 -0.339  -0.337  -0.333  -0.330  -0.328  -0.326  -0.322  -0.315
 -0.309  -0.306  -0.301  -0.301  -0.297  -0.283  -0.277  -0.275
 -0.271  -0.262  -0.255  -0.243  -0.240  -0.235  -0.231  -0.189
 -0.185  -0.164  -0.162  -0.160  -0.155  -0.145  -0.143  -0.142
 -0.139

          Ground-State Mulliken Net Atomic Charges

     Atom                 Charge (a.u.)
  ----------------------------------------
      1 O                    -0.208443
      2 C                     0.215167
      3 C                    -0.078302
      4 C                    -0.081605
      5 C                     0.214316
      6 O                    -0.170639
      7 C                    -0.049784
      8 C                    -0.055258
      9 O                    -0.170409
     10 C                     0.212817
     11 C                    -0.078423
     12 C                    -0.080888
     13 C                     0.215926
     14 O                    -0.214026
     15 O                    -0.168756
     16 O                    -0.178842
     17 O                    -0.208964
     18 C                    -0.129377
     19 C                     0.025574
     20 C                    -0.143689
     21 C                    -0.143997
     22 C                     0.024667
     23 O                    -0.188267
     24 H                     0.086870
     25 H                     0.083037
     26 H                     0.083703
     27 H                     0.077936
     28 H                     0.073689
     29 H                     0.077860
     30 H                     0.073011
     31 H                     0.089879
     32 O                    -0.220907
     33 C                    -0.127955
     34 C                     0.024940
     35 C                    -0.143640
     36 C                    -0.144412
     37 C                     0.026819
     38 O                    -0.186561
     39 H                     0.086706
     40 H                     0.083314
     41 H                     0.090463
     42 H                     0.087671
     43 H                     0.078415
     44 H                     0.073439
     45 H                     0.078423
     46 H                     0.073638
     47 H                     0.086403
     48 H                     0.092136
     49 H                     0.092523
     50 H                     0.085528
     51 H                     0.086605
     52 H                     0.093197
     53 H                     0.093163
     54 H                     0.099284
     55 H                     0.091180
     56 H                     0.094848
  ----------------------------------------
  Sum of atomic charges =     0.000000

                    Cartesian Multipole Moments
 -----------------------------------------------------------------
    Charge (ESU x 10^10)
                 0.0000
    Dipole Moment (Debye)
         X       2.4366      Y      -1.5814      Z      -2.0161
       Tot       3.5359
    Quadrupole Moments (Debye-Ang)
        XX    -138.4816     XY       1.6222     YY    -152.2302
        XZ      13.2890     YZ       3.8389     ZZ    -166.4061

 Total job time:  68.61s(wall), 3262.28s(cpu)
        *  Thank you very much for using Q-Chem.  Have a nice day.  *
