 Q-Chem 5.0, Q-Chem, Inc., Pleasanton, CA (2017)
 Q-Chem 5.0.1 for Intel X86 EM64T Linux

User input:
--------------------------------------------------------------
$molecule
0  1
O -3.94934 -3.66094 2.70899
C -3.26408 -4.56952 2.26188
C -3.36658 -6.02376 2.66595
C -4.03945 -6.33287 4.01337
C -4.69326 -5.16829 4.72358
O -6.02003 -5.1154 4.40372
C -6.70401 -4.018 5.01782
C -7.24202 -4.43193 6.38359
O -6.87933 -3.45274 7.36976
C -7.51888 -2.26096 7.27086
C -7.01393 -1.23834 8.26078
C -8.0481 -0.18745 8.69022
C -9.49241 -0.50958 8.36328
O -10.37446 -0.72127 9.18288
O -2.45621 -4.31187 1.19987
O -9.86092 -0.38105 7.06164
O -8.08072 -1.92005 6.23878
C -11.1427 -0.57177 6.58826
C -6.60155 -1.80188 9.64295
C -5.59756 -0.85626 10.30008
C -6.49197 0.31895 10.63197
C -7.85449 -0.25011 10.21937
O -7.7379 -1.63199 10.45196
H -6.12318 -0.76843 7.78569
H -7.83869 0.82638 8.28341
H -6.17508 -2.82702 9.61427
H -5.27706 -1.33721 11.25237
H -4.69776 -0.61243 9.69527
H -6.44867 0.49322 11.73006
H -6.26361 1.25989 10.08593
H -8.66676 0.27149 10.77208
O -4.0766 -4.33538 5.37858
C -2.28584 -3.06431 0.63713
C -4.21362 -6.85255 1.68965
C -3.80698 -8.32234 1.77168
C -4.37988 -8.69649 3.12201
C -5.06887 -7.38179 3.50696
O -5.49179 -6.85375 2.27232
H -2.31623 -6.39357 2.68523
H -3.37028 -6.82205 4.75549
H -1.87358 -2.3585 1.38966
H -4.1519 -6.49086 0.63981
H -4.37014 -8.87045 0.98271
H -2.71906 -8.51242 1.64777
H -5.14113 -9.49394 2.9696
H -3.63725 -9.02306 3.88157
H -5.86749 -7.58641 4.254
H -3.25578 -2.68113 0.25401
H -1.573 -3.14129 -0.20927
H -11.15357 -0.40521 5.49165
H -11.83962 0.14916 7.06662
H -11.47529 -1.61139 6.79549
H -8.32972 -4.66667 6.37261
H -6.71981 -5.3618 6.69542
H -7.55577 -3.71003 4.37522
H -6.05844 -3.11011 5.06738
$end

$opt
CONSTRAINT
tors           1           2           3           4     -20.198
tors           3           4           5           6     +94.131
tors           4           5           6           7    -178.757
tors           5           6           7           8     -89.129
tors           6           7           8           9    +131.007
tors           7           8           9          10     +70.455
tors           8           9          10          11    -175.243
tors           9          10          11          12    -151.555
tors          11          12          13          14    +114.328
ENDCONSTRAINT
$end

$rem
JOBTYPE                   OPT
METHOD                    B3LYP
DFT_D                     d3_op
BASIS                     STO-3G
GEOM_OPT_MAX_CYCLES       100
GEOM_OPT_TOL_GRADIENT     300
GEOM_OPT_TOL_DISPLACEMENT 1200
GEOM_OPT_TOL_ENERGY       100
SYMMETRY                  False
THRESH                    12
SCF_CONVERGENCE           8
MAX_SUB_FILE_NUM          128
MEM_STATIC                400
MEM_TOTAL                 4000
$end
--------------------------------------------------------------

   15   -1510.1403724055      6.54E-09 Convergence criterion met
 Total energy in the final basis set = -1510.14037241
   14   -1510.2111691559      7.42E-09 Convergence criterion met
 Total energy in the final basis set = -1510.21116916
   14   -1510.2493283322      6.51E-09 Convergence criterion met
 Total energy in the final basis set = -1510.24932833
   14   -1510.2666182926      5.89E-09 Convergence criterion met
 Total energy in the final basis set = -1510.26661829
   13   -1510.2730089110      5.94E-09 Convergence criterion met
 Total energy in the final basis set = -1510.27300891
    2   -1510.2730089110      6.89E-09 Convergence criterion met
 Total energy in the final basis set = -1510.27300891
   13   -1510.2755712308      4.52E-09 Convergence criterion met
 Total energy in the final basis set = -1510.27557123
   13   -1510.2766370766      3.43E-09 Convergence criterion met
   11   -1510.2818257082      7.85E-09 Convergence criterion met
 Total energy in the final basis set = -1510.28182571
   11   -1510.2818745884      7.19E-09 Convergence criterion met
 Total energy in the final basis set = -1510.28187459
   11   -1510.2818935911      3.34E-09 Convergence criterion met
 Total energy in the final basis set = -1510.28189359
   11   -1510.2819152536      3.07E-09 Convergence criterion met
 Total energy in the final basis set = -1510.28191525
   10   -1510.2819270904      9.82E-09 Convergence criterion met
 Total energy in the final basis set = -1510.28192709
    9   -1510.2819304778      6.05E-09 Convergence criterion met
 Total energy in the final basis set = -1510.28193048

             Standard Nuclear Orientation (Angstroms)
    I     Atom           X                Y                Z
 ----------------------------------------------------------------
    1      O      -3.0801307722     0.4138647947     1.6824774897
    2      C      -4.2514306288     0.7106413792     1.3567670380
    3      C      -4.9466696737     0.4698631137    -0.0234555378
    4      C      -3.9237219536     0.2528283341    -1.2157743608
    5      C      -2.4144032774     0.3304550250    -0.7750462384
    6      O      -1.9306211343    -0.9910696515    -0.4930810362
    7      C      -0.5213374777    -0.9264724552    -0.0491042955
    8      C       0.4756480181    -1.0139419056    -1.2783097390
    9      O       1.5136750350     0.0442164374    -1.2490065550
   10      C       2.4432036370    -0.1999718102    -0.1920330375
   11      C       3.4590722337     0.9971809512    -0.1056032575
   12      C       4.8596432693     0.5317908178     0.4660652578
   13      C       4.8329730561    -0.8465952585     1.2224521750
   14      O       5.3941109262    -1.9109591267     0.8862891141
   15      O      -5.2044052181     1.3020498331     2.2434104129
   16      O       4.2113619982    -0.6234481498     2.4981479955
   17      O       2.4455893608    -1.2426187764     0.5013030137
   18      C       4.1085323204    -1.9028582854     3.2328672564
   19      C       3.8843816420     1.4205280343    -1.5738747070
   20      C       4.8291109299     2.6861603467    -1.5181955540
   21      C       6.1992751972     2.0353722782    -1.0949940040
   22      C       5.7495010444     0.5439315930    -0.8470123392
   23      O       4.7882744653     0.3056482249    -1.9497349312
   24      H       3.0119253659     1.8220748865     0.4786097237
   25      H       5.2276558552     1.2816169165     1.1898747032
   26      H       3.0342555885     1.4869242726    -2.2795180494
   27      H       4.8938245368     3.1640948726    -2.5083785295
   28      H       4.4722618266     3.4325431314    -0.7899833772
   29      H       6.9352015950     2.0822776178    -1.9137670354
   30      H       6.6367156583     2.5001284684    -0.1969121794
   31      H       6.5534176170    -0.2177503189    -0.8608578161
   32      O      -1.7076989565     1.3612784039    -0.7330246004
   33      C      -4.5974336668     1.5016525507     3.5806597826
   34      C      -5.7441257159    -0.9090055488    -0.0554335237
   35      C      -6.7279225654    -0.8709672506    -1.2909531659
   36      C      -5.7221796293    -1.0785248787    -2.4834331668
   37      C      -4.3489345344    -1.1943240345    -1.7107997455
   38      O      -4.7157343874    -1.8928254875    -0.4560413286
   39      H      -5.6263043436     1.3181617173    -0.2197730117
   40      H      -4.0782936778     1.0165620133    -1.9986235106
   41      H      -3.7158034575     2.1726744120     3.5311458733
   42      H      -6.2064551718    -1.1945653939     0.9094655372
   43      H      -7.4576145097    -1.6939830760    -1.2278139204
   44      H      -7.2749677975     0.0830597406    -1.3559985771
   45      H      -5.9328388221    -2.0101901318    -3.0323609202
   46      H      -5.7281133553    -0.2391030707    -3.1970275967
   47      H      -3.5516306160    -1.7484145341    -2.2415942598
   48      H      -4.2825698309     0.5391537094     4.0331198896
   49      H      -5.3826371479     1.9657887870     4.2051793298
   50      H       3.7067733039    -1.6536194639     4.2322612574
   51      H       5.0963641062    -2.3960668403     3.3392282424
   52      H       3.4169873718    -2.6019867167     2.7192704700
   53      H       0.9474680998    -2.0185112442    -1.3182220032
   54      H      -0.0842041530    -0.8392544747    -2.2195542438
   55      H      -0.3691547356    -1.7849648653     0.6336351726
   56      H      -0.3403442725     0.0251637680     0.4956720232
 ----------------------------------------------------------------

    9   -1510.2819312473      3.46E-09 Convergence criterion met
 Total energy in the final basis set = -1510.28193125
 Final energy is   -1510.28193124729
 **  OPTIMIZATION CONVERGED  **

                    Orbital Energies (a.u.)
 --------------------------------------------------------------

 Alpha MOs
 -- Occupied --
-18.941 -18.938 -18.926 -18.915 -18.890 -18.883 -18.880 -18.880
-18.865 -18.858 -10.105 -10.102 -10.095 -10.087 -10.070 -10.069
-10.064 -10.064 -10.060 -10.054 -10.052 -10.050 -10.041 -10.037
-10.036 -10.028 -10.022 -10.021 -10.016 -10.015  -1.018  -1.016
 -1.003  -0.994  -0.972  -0.964  -0.942  -0.939  -0.929  -0.920
 -0.765  -0.758  -0.726  -0.721  -0.712  -0.703  -0.689  -0.667
 -0.650  -0.616  -0.595  -0.579  -0.548  -0.540  -0.539  -0.532
 -0.514  -0.504  -0.483  -0.476  -0.463  -0.452  -0.449  -0.445
 -0.435  -0.429  -0.426  -0.416  -0.411  -0.403  -0.400  -0.397
 -0.388  -0.378  -0.376  -0.364  -0.360  -0.357  -0.348  -0.345
 -0.340  -0.337  -0.332  -0.330  -0.327  -0.325  -0.320  -0.313
 -0.309  -0.305  -0.302  -0.301  -0.295  -0.282  -0.279  -0.272
 -0.271  -0.260  -0.254  -0.242  -0.240  -0.235  -0.229  -0.188
 -0.183  -0.165  -0.161  -0.158  -0.153  -0.148  -0.144  -0.140
 -0.138

          Ground-State Mulliken Net Atomic Charges

     Atom                 Charge (a.u.)
  ----------------------------------------
      1 O                    -0.208408
      2 C                     0.211585
      3 C                    -0.078874
      4 C                    -0.080773
      5 C                     0.212669
      6 O                    -0.168658
      7 C                    -0.050924
      8 C                    -0.049496
      9 O                    -0.167064
     10 C                     0.215026
     11 C                    -0.075913
     12 C                    -0.082071
     13 C                     0.214422
     14 O                    -0.218733
     15 O                    -0.169141
     16 O                    -0.174476
     17 O                    -0.210717
     18 C                    -0.128088
     19 C                     0.022809
     20 C                    -0.145297
     21 C                    -0.142492
     22 C                     0.022929
     23 O                    -0.192684
     24 H                     0.088042
     25 H                     0.082978
     26 H                     0.091634
     27 H                     0.077524
     28 H                     0.073123
     29 H                     0.077163
     30 H                     0.072634
     31 H                     0.088902
     32 O                    -0.219777
     33 C                    -0.128586
     34 C                     0.025817
     35 C                    -0.143322
     36 C                    -0.144519
     37 C                     0.026496
     38 O                    -0.185994
     39 H                     0.086881
     40 H                     0.083688
     41 H                     0.091295
     42 H                     0.084062
     43 H                     0.078434
     44 H                     0.074116
     45 H                     0.078214
     46 H                     0.073485
     47 H                     0.087509
     48 H                     0.090435
     49 H                     0.091722
     50 H                     0.085460
     51 H                     0.086503
     52 H                     0.091219
     53 H                     0.092934
     54 H                     0.091012
     55 H                     0.095545
     56 H                     0.099743
  ----------------------------------------
  Sum of atomic charges =    -0.000000

                    Cartesian Multipole Moments
 -----------------------------------------------------------------
    Charge (ESU x 10^10)
                 0.0000
    Dipole Moment (Debye)
         X      -3.0367      Y       2.2561      Z       0.5761
       Tot       3.8267
    Quadrupole Moments (Debye-Ang)
        XX    -147.2262     XY       7.6224     YY    -162.0663
        XZ       4.9305     YZ       1.1937     ZZ    -149.8754

 Total job time:  64.27s(wall), 3056.11s(cpu)
        *  Thank you very much for using Q-Chem.  Have a nice day.  *
