 Q-Chem 5.0, Q-Chem, Inc., Pleasanton, CA (2017)
 Q-Chem 5.0.1 for Intel X86 EM64T Linux

User input:
--------------------------------------------------------------
$molecule
0  1
O -3.0786996009 0.6387034559 1.6261125547
C -4.2645603856 0.8609951951 1.293299116
C -4.9545345109 0.4999881386 -0.0633269317
C -3.9238482496 0.1412117127 -1.2136477255
C -2.4140993785 0.25912155 -0.7816301654
O -1.9413452112 -1.0252481673 -0.3475752707
C -0.5241020714 -0.9268153638 0.0609504739
C 0.4472012622 -1.1788752671 -1.166308795
O 1.5011379439 -0.1411182274 -1.265500046
C 2.494517823 -0.3410360574 -0.2568152858
C 3.4186714529 0.9259243692 -0.1908973579
C 4.8211983132 0.6109559372 0.4731454697
C 4.9093234524 -0.7915056697 1.1791036147
O 5.5044486353 -1.8110404593 0.770210929
O -5.2379371785 1.4636979198 2.1487833774
O 4.3190800843 -0.6618863371 2.4822404491
O 2.5817347346 -1.3752000105 0.4433970741
C 4.3087672828 -1.9786202263 3.1559640236
C 3.8763572572 1.3398320872 -1.6533423448
C 4.6422263754 2.7207209952 -1.5947993616
C 6.0424537409 2.2752082745 -1.0303404386
C 5.7861299541 0.738271453 -0.7806142311
O 4.9407514816 0.3481975958 -1.9339328857
H 2.8765056939 1.7355195839 0.3315946258
H 5.0569069876 1.3773771187 1.2329274269
H 3.0686517267 1.2730042969 -2.4075436248
H 4.7291766473 3.1566531825 -2.6025926638
H 4.1319972806 3.4454252969 -0.9403555415
H 6.8406170385 2.4161808747 -1.776520744
H 6.3203449206 2.8087214207 -0.107560045
H 6.6875555511 0.0973261348 -0.7293480867
O -1.6959736515 1.2785183045 -0.8747735083
C -4.6333684608 1.774666165 3.4658012973
C -5.7779260737 -0.859814947 0.0376028197
C -6.7387285342 -0.9449403675 -1.2130456585
C -5.7178246638 -1.3050584291 -2.3547694532
C -4.3596627618 -1.3482439211 -1.5486328085
O -4.7583225394 -1.8966364611 -0.2304559927
H -5.6145546897 1.3375978542 -0.3516541124
H -4.0662479973 0.8127376199 -2.0790894138
H -3.7901496648 2.4884588496 3.3683342458
H -6.2632034323 -1.0289485541 1.0185755636
H -7.4838534526 -1.7435367671 -1.070103374
H -7.267634167 0.0040275177 -1.395924604
H -5.9347874685 -2.2922242899 -2.7927361
H -5.7001828881 -0.5564709078 -3.1632013425
H -3.5609577047 -1.9681921747 -1.9982209666
H -4.2631109282 0.8589674724 3.9704332193
H -5.4384664377 2.2317030856 4.0698959394
H 3.915276785 -1.8020056814 4.1739119502
H 5.326243647 -2.4159238828 3.219348198
H 3.6493884902 -2.693403545 2.6219467594
H 0.9003478519 -2.1903836986 -1.0992691468
H -0.1276182935 -1.0999181926 -2.111411944
H -0.3690843791 -1.6950376243 0.8434509882
H -0.3178740064 0.0830747793 0.4766229753
$end

$rem
JOBTYPE                   OPT
METHOD                    B3LYP
DFT_D                     d3_op
BASIS                     STO-3G
GEOM_OPT_MAX_CYCLES       100
GEOM_OPT_TOL_GRADIENT     300
GEOM_OPT_TOL_DISPLACEMENT 1200
GEOM_OPT_TOL_ENERGY       100
SYMMETRY                  False
THRESH                    12
SCF_CONVERGENCE           8
MAX_SUB_FILE_NUM          128
MEM_STATIC                400
MEM_TOTAL                 4000
$end
--------------------------------------------------------------

   16   -1510.2830403565      6.39E-09 Convergence criterion met
 Total energy in the final basis set = -1510.28304036
   13   -1510.2841024888      8.04E-09 Convergence criterion met
 Total energy in the final basis set = -1510.28410249
   14   -1510.2846388014      2.56E-09 Convergence criterion met
 Total energy in the final basis set = -1510.28463880
   13   -1510.2851454408      3.27E-09 Convergence criterion met
 Total energy in the final basis set = -1510.28514544
   13   -1510.2854707892      5.09E-09 Convergence criterion met
 Total energy in the final basis set = -1510.28547079
   13   -1510.2857096046      3.42E-09 Convergence criterion met
 Total energy in the final basis set = -1510.28570960
   13   -1510.2861392456      4.83E-09 Convergence criterion met
 Total energy in the final basis set = -1510.28613925
   13   -1510.2865781727      5.66E-09 Convergence criterion met
   12   -1510.2881222739      5.39E-09 Convergence criterion met
 Total energy in the final basis set = -1510.28812227
   12   -1510.2881473887      4.36E-09 Convergence criterion met
 Total energy in the final basis set = -1510.28814739
   12   -1510.2881390283      3.34E-09 Convergence criterion met
 Total energy in the final basis set = -1510.28813903
   13   -1510.2881171542      1.97E-09 Convergence criterion met
 Total energy in the final basis set = -1510.28811715
   12   -1510.2881448595      4.37E-09 Convergence criterion met
 Total energy in the final basis set = -1510.28814486
   11   -1510.2881470403      7.04E-09 Convergence criterion met
 Total energy in the final basis set = -1510.28814704

             Standard Nuclear Orientation (Angstroms)
    I     Atom           X                Y                Z
 ----------------------------------------------------------------
    1      O       3.4097708210    -0.8048030934    -2.0235778777
    2      C       4.4962776758    -0.9578467081    -1.4207861217
    3      C       5.1350279341    -0.0049114361    -0.3555827666
    4      C       4.1848944321     1.1926401314     0.0586278986
    5      C       2.8018503694     1.2088430367    -0.6932032175
    6      O       1.8960473109     0.3271700599    -0.0118486856
    7      C       0.6213008018     0.2177878985    -0.7562170120
    8      C      -0.2804980209     1.5018252844    -0.5974427549
    9      O      -1.6114500818     1.2803552899    -1.2151634327
   10      C      -2.4901464565     0.6320149637    -0.2932961600
   11      C      -3.8682494579     0.4050937395    -0.9982366222
   12      C      -4.8774479251    -0.4433140889    -0.1226535948
   13      C      -4.2867595833    -0.9569617166     1.2435663793
   14      O      -4.5621372078    -0.5475376238     2.3907757693
   15      O       5.3682092848    -2.0713615501    -1.6188752638
   16      O      -3.4715774702    -2.1058260171     0.9609921144
   17      O      -2.1841222805     0.3345737677     0.8838826146
   18      C      -2.8381619501    -2.5855157402     2.2086619499
   19      C      -4.6723810745     1.7723700921    -1.1375618203
   20      C      -5.8745500861     1.5406025896    -2.1363912309
   21      C      -6.8714188913     0.7267521504    -1.2298353983
   22      C      -6.0389431451     0.6109615814     0.1067462859
   23      O      -5.3262437466     1.9085874420     0.1815736918
   24      H      -3.6881593216    -0.0543248714    -1.9867225771
   25      H      -5.2315845190    -1.3221484583    -0.6907167852
   26      H      -4.0370439778     2.6529312134    -1.3557519913
   27      H      -6.3057399875     2.5043463100    -2.4505189523
   28      H      -5.5626425214     0.9832042019    -3.0340927260
   29      H      -7.8056897921     1.2844512790    -1.0563351722
   30      H      -7.1210816505    -0.2604554014    -1.6501794745
   31      H      -6.6271313373     0.4431395335     1.0298356468
   32      O       2.4890357343     1.9431144009    -1.6558454522
   33      C       4.7859724408    -3.0025595164    -2.6140569882
   34      C       5.3400450486    -0.7320044740     1.0439693842
   35      C       6.3225991852     0.1440222263     1.9157507954
   36      C       5.3784010462     1.3316916263     2.3333818809
   37      C       4.0320196228     0.9191491454     1.6166730227
   38      O       4.0308861864    -0.5598156588     1.7104610311
   39      H       6.0988220935     0.3605499624    -0.7551864332
   40      H       4.6739889960     2.1623445148    -0.1411163164
   41      H       4.6537165403    -2.5135297071    -3.6007740190
   42      H       5.6032071059    -1.8042631954     0.9595212050
   43      H       6.6682039749    -0.4256535906     2.7928581210
   44      H       7.2013900997     0.4778973638     1.3415257367
   45      H       5.2349224087     1.3676771726     3.4250053193
   46      H       5.7495445956     2.3120594725     1.9938457620
   47      H       3.1099233825     1.3343604096     2.0665388164
   48      H       3.8033231171    -3.3932540919    -2.2793696281
   49      H       5.5050445039    -3.8370256144    -2.7070125347
   50      H      -2.2740027249    -3.4970206181     1.9379663935
   51      H      -3.5922772798    -2.8307285132     2.9842897417
   52      H      -2.1415895118    -1.8264794803     2.6205405181
   53      H      -0.3853896658     1.7502871207     0.4798496686
   54      H       0.1808864366     2.3481121541    -1.1438932788
   55      H       0.0981632444    -0.6548303343    -0.3149733675
   56      H       0.8125520012     0.0278558412    -1.8339939896
 ----------------------------------------------------------------

   10   -1510.2881474457      5.30E-09 Convergence criterion met
 Total energy in the final basis set = -1510.28814745
 Final energy is   -1510.28814744567
 **  OPTIMIZATION CONVERGED  **

                    Orbital Energies (a.u.)
 --------------------------------------------------------------

 Alpha MOs
 -- Occupied --
-18.945 -18.938 -18.924 -18.915 -18.889 -18.888 -18.884 -18.882
-18.863 -18.857 -10.109 -10.103 -10.094 -10.086 -10.071 -10.065
-10.064 -10.062 -10.060 -10.058 -10.054 -10.050 -10.042 -10.037
-10.035 -10.029 -10.022 -10.020 -10.018 -10.016  -1.022  -1.016
 -1.002  -0.993  -0.971  -0.967  -0.945  -0.940  -0.928  -0.920
 -0.764  -0.760  -0.726  -0.721  -0.713  -0.704  -0.690  -0.668
 -0.650  -0.615  -0.596  -0.579  -0.547  -0.541  -0.538  -0.534
 -0.514  -0.507  -0.486  -0.473  -0.464  -0.454  -0.450  -0.444
 -0.435  -0.432  -0.428  -0.418  -0.410  -0.404  -0.399  -0.393
 -0.390  -0.381  -0.378  -0.362  -0.361  -0.355  -0.350  -0.344
 -0.338  -0.336  -0.334  -0.329  -0.329  -0.326  -0.321  -0.315
 -0.310  -0.307  -0.301  -0.301  -0.298  -0.283  -0.277  -0.273
 -0.270  -0.263  -0.255  -0.242  -0.240  -0.235  -0.231  -0.189
 -0.185  -0.163  -0.162  -0.160  -0.157  -0.146  -0.143  -0.142
 -0.137

          Ground-State Mulliken Net Atomic Charges

     Atom                 Charge (a.u.)
  ----------------------------------------
      1 O                    -0.207953
      2 C                     0.215114
      3 C                    -0.078314
      4 C                    -0.081696
      5 C                     0.214458
      6 O                    -0.170061
      7 C                    -0.049306
      8 C                    -0.055722
      9 O                    -0.170805
     10 C                     0.213758
     11 C                    -0.077949
     12 C                    -0.081598
     13 C                     0.215926
     14 O                    -0.216481
     15 O                    -0.168778
     16 O                    -0.177830
     17 O                    -0.207317
     18 C                    -0.128867
     19 C                     0.025345
     20 C                    -0.143790
     21 C                    -0.143970
     22 C                     0.024868
     23 O                    -0.188987
     24 H                     0.086709
     25 H                     0.083069
     26 H                     0.085259
     27 H                     0.077973
     28 H                     0.073488
     29 H                     0.077616
     30 H                     0.072912
     31 H                     0.089055
     32 O                    -0.221610
     33 C                    -0.127999
     34 C                     0.025043
     35 C                    -0.143771
     36 C                    -0.144330
     37 C                     0.026727
     38 O                    -0.186796
     39 H                     0.086864
     40 H                     0.083395
     41 H                     0.090923
     42 H                     0.087205
     43 H                     0.078418
     44 H                     0.073569
     45 H                     0.078464
     46 H                     0.073684
     47 H                     0.086992
     48 H                     0.091777
     49 H                     0.092530
     50 H                     0.085192
     51 H                     0.086389
     52 H                     0.092262
     53 H                     0.094074
     54 H                     0.099626
     55 H                     0.090326
     56 H                     0.094919
  ----------------------------------------
  Sum of atomic charges =     0.000000

                    Cartesian Multipole Moments
 -----------------------------------------------------------------
    Charge (ESU x 10^10)
                 0.0000
    Dipole Moment (Debye)
         X       2.6182      Y      -1.5132      Z      -2.0243
       Tot       3.6391
    Quadrupole Moments (Debye-Ang)
        XX    -138.9193     XY       3.0755     YY    -154.9524
        XZ      12.3331     YZ       4.3634     ZZ    -162.4939

 Total job time:  59.96s(wall), 2851.51s(cpu)
        *  Thank you very much for using Q-Chem.  Have a nice day.  *
