 Q-Chem 5.0, Q-Chem, Inc., Pleasanton, CA (2017)
 Q-Chem 5.0.1 for Intel X86 EM64T Linux

User input:
--------------------------------------------------------------
$molecule
0  1
O -3.94934 -3.66094 2.70899
C -3.26408 -4.56952 2.26188
C -3.36658 -6.02376 2.66595
C -4.13491 -6.34116 3.95931
C -4.86628 -5.18777 4.6096
O -6.16516 -5.16513 4.18793
C -6.92513 -4.09657 4.76229
C -7.55579 -4.547 6.07588
O -7.31011 -3.56806 7.09774
C -8.04928 -2.43452 7.00911
C -7.55673 -1.33794 7.92321
C -8.59583 -0.25738 8.25628
C -10.03593 -0.60456 7.93648
O -10.89301 -0.89918 8.75696
O -2.43495 -4.30656 1.21775
O -10.41683 -0.45586 6.64003
O -8.69268 -2.17854 5.99991
C -11.69468 -0.68007 6.17121
C -7.17749 -1.81402 9.34567
C -6.1822 -0.83314 9.96272
C -7.07761 0.36389 10.19919
C -8.43306 -0.22609 9.79198
O -8.32927 -1.5898 10.1165
H -6.64999 -0.9133 7.43608
H -8.37978 0.73757 7.80856
H -6.75885 -2.84223 9.38755
H -5.88415 -1.2537 10.95023
H -5.26907 -0.63191 9.36224
H -7.05894 0.60631 11.28499
H -6.83207 1.2679 9.60081
H -9.2554 0.33206 10.29215
O -4.32484 -4.35026 5.32279
C -2.25628 -3.05679 0.66257
C -4.11519 -6.8775 1.63241
C -3.68412 -8.33723 1.75802
C -4.35505 -8.71629 3.06094
C -5.0994 -7.41449 3.38091
O -5.43493 -6.90311 2.11283
H -2.31248 -6.36728 2.7709
H -3.51605 -6.81371 4.75404
H -1.86128 -2.35225 1.42543
H -3.97897 -6.52149 0.58772
H -4.16949 -8.90315 0.93087
H -2.58569 -8.5025 1.72334
H -5.08587 -9.5297 2.8537
H -3.66894 -9.0243 3.87915
H -5.94988 -7.63223 4.0643
H -3.21928 -2.67496 0.26099
H -1.52627 -3.12934 -0.16948
H -11.72063 -0.48558 5.07945
H -12.41265 0.00287 6.67362
H -11.98862 -1.73587 6.35362
H -8.62263 -4.84989 5.98325
H -7.00797 -5.45059 6.41939
H -7.73068 -3.79123 4.06187
H -6.31102 -3.17395 4.88526
$end

$opt
CONSTRAINT
tors           1           2           3           4     -15.587
tors           3           4           5           6     +94.131
tors           4           5           6           7    -179.992
tors           5           6           7           8     -89.129
tors           6           7           8           9    +131.602
tors           7           8           9          10     +74.679
tors           8           9          10          11    -168.165
tors           9          10          11          12    -158.781
tors          11          12          13          14    +105.632
ENDCONSTRAINT
$end

$rem
JOBTYPE                   OPT
METHOD                    B3LYP
DFT_D                     d3_op
BASIS                     STO-3G
GEOM_OPT_MAX_CYCLES       100
GEOM_OPT_TOL_GRADIENT     300
GEOM_OPT_TOL_DISPLACEMENT 1200
GEOM_OPT_TOL_ENERGY       100
SYMMETRY                  False
THRESH                    12
SCF_CONVERGENCE           8
MAX_SUB_FILE_NUM          128
MEM_STATIC                400
MEM_TOTAL                 4000
$end
--------------------------------------------------------------

   15   -1510.1412589305      6.27E-09 Convergence criterion met
 Total energy in the final basis set = -1510.14125893
   14   -1510.2119521288      7.20E-09 Convergence criterion met
 Total energy in the final basis set = -1510.21195213
   14   -1510.2501167039      6.91E-09 Convergence criterion met
 Total energy in the final basis set = -1510.25011670
   14   -1510.2675792578      6.10E-09 Convergence criterion met
 Total energy in the final basis set = -1510.26757926
   13   -1510.2743113437      4.64E-09 Convergence criterion met
 Total energy in the final basis set = -1510.27431134
    2   -1510.2743113437      3.98E-09 Convergence criterion met
 Total energy in the final basis set = -1510.27431134
   13   -1510.2772523300      4.38E-09 Convergence criterion met
 Total energy in the final basis set = -1510.27725233
   13   -1510.2787326423      2.64E-09 Convergence criterion met
   12   -1510.2828867513      5.80E-09 Convergence criterion met
 Total energy in the final basis set = -1510.28288675
   11   -1510.2829662003      6.53E-09 Convergence criterion met
 Total energy in the final basis set = -1510.28296620
   11   -1510.2830125118      8.56E-09 Convergence criterion met
 Total energy in the final basis set = -1510.28301251
    9   -1510.2830284221      8.40E-09 Convergence criterion met
 Total energy in the final basis set = -1510.28302842
   10   -1510.2830496197      8.08E-09 Convergence criterion met
 Total energy in the final basis set = -1510.28304962
    9   -1510.2830594520      7.42E-09 Convergence criterion met
 Total energy in the final basis set = -1510.28305945

             Standard Nuclear Orientation (Angstroms)
    I     Atom           X                Y                Z
 ----------------------------------------------------------------
    1      O      -3.0786996009     0.6387034559     1.6261125547
    2      C      -4.2645603856     0.8609951951     1.2932991160
    3      C      -4.9545345109     0.4999881386    -0.0633269317
    4      C      -3.9238482496     0.1412117127    -1.2136477255
    5      C      -2.4140993785     0.2591215500    -0.7816301654
    6      O      -1.9413452112    -1.0252481673    -0.3475752707
    7      C      -0.5241020714    -0.9268153638     0.0609504739
    8      C       0.4472012622    -1.1788752671    -1.1663087950
    9      O       1.5011379439    -0.1411182274    -1.2655000460
   10      C       2.4945178230    -0.3410360574    -0.2568152858
   11      C       3.4186714529     0.9259243692    -0.1908973579
   12      C       4.8211983132     0.6109559372     0.4731454697
   13      C       4.9093234524    -0.7915056697     1.1791036147
   14      O       5.5044486353    -1.8110404593     0.7702109290
   15      O      -5.2379371785     1.4636979198     2.1487833774
   16      O       4.3190800843    -0.6618863371     2.4822404491
   17      O       2.5817347346    -1.3752000105     0.4433970741
   18      C       4.3087672828    -1.9786202263     3.1559640236
   19      C       3.8763572572     1.3398320872    -1.6533423448
   20      C       4.6422263754     2.7207209952    -1.5947993616
   21      C       6.0424537409     2.2752082745    -1.0303404386
   22      C       5.7861299541     0.7382714530    -0.7806142311
   23      O       4.9407514816     0.3481975958    -1.9339328857
   24      H       2.8765056939     1.7355195839     0.3315946258
   25      H       5.0569069876     1.3773771187     1.2329274269
   26      H       3.0686517267     1.2730042969    -2.4075436248
   27      H       4.7291766473     3.1566531825    -2.6025926638
   28      H       4.1319972806     3.4454252969    -0.9403555415
   29      H       6.8406170385     2.4161808747    -1.7765207440
   30      H       6.3203449206     2.8087214207    -0.1075600450
   31      H       6.6875555511     0.0973261348    -0.7293480867
   32      O      -1.6959736515     1.2785183045    -0.8747735083
   33      C      -4.6333684608     1.7746661650     3.4658012973
   34      C      -5.7779260737    -0.8598149470     0.0376028197
   35      C      -6.7387285342    -0.9449403675    -1.2130456585
   36      C      -5.7178246638    -1.3050584291    -2.3547694532
   37      C      -4.3596627618    -1.3482439211    -1.5486328085
   38      O      -4.7583225394    -1.8966364611    -0.2304559927
   39      H      -5.6145546897     1.3375978542    -0.3516541124
   40      H      -4.0662479973     0.8127376199    -2.0790894138
   41      H      -3.7901496648     2.4884588496     3.3683342458
   42      H      -6.2632034323    -1.0289485541     1.0185755636
   43      H      -7.4838534526    -1.7435367671    -1.0701033740
   44      H      -7.2676341670     0.0040275177    -1.3959246040
   45      H      -5.9347874685    -2.2922242899    -2.7927361000
   46      H      -5.7001828881    -0.5564709078    -3.1632013425
   47      H      -3.5609577047    -1.9681921747    -1.9982209666
   48      H      -4.2631109282     0.8589674724     3.9704332193
   49      H      -5.4384664377     2.2317030856     4.0698959394
   50      H       3.9152767850    -1.8020056814     4.1739119502
   51      H       5.3262436470    -2.4159238828     3.2193481980
   52      H       3.6493884902    -2.6934035450     2.6219467594
   53      H       0.9003478519    -2.1903836986    -1.0992691468
   54      H      -0.1276182935    -1.0999181926    -2.1114119440
   55      H      -0.3690843791    -1.6950376243     0.8434509882
   56      H      -0.3178740064     0.0830747793     0.4766229753
 ----------------------------------------------------------------

    9   -1510.2830620890      5.60E-09 Convergence criterion met
 Total energy in the final basis set = -1510.28306209
 Final energy is   -1510.28306208901
 **  OPTIMIZATION CONVERGED  **

                    Orbital Energies (a.u.)
 --------------------------------------------------------------

 Alpha MOs
 -- Occupied --
-18.943 -18.937 -18.926 -18.915 -18.890 -18.885 -18.882 -18.881
-18.865 -18.856 -10.106 -10.103 -10.095 -10.086 -10.070 -10.070
-10.065 -10.064 -10.060 -10.054 -10.052 -10.050 -10.042 -10.037
-10.036 -10.028 -10.023 -10.021 -10.016 -10.015  -1.019  -1.016
 -1.004  -0.993  -0.972  -0.964  -0.943  -0.940  -0.929  -0.920
 -0.765  -0.758  -0.726  -0.721  -0.713  -0.703  -0.689  -0.668
 -0.650  -0.616  -0.596  -0.579  -0.548  -0.540  -0.539  -0.532
 -0.514  -0.505  -0.484  -0.476  -0.463  -0.452  -0.449  -0.446
 -0.436  -0.429  -0.426  -0.416  -0.411  -0.404  -0.400  -0.397
 -0.387  -0.380  -0.378  -0.364  -0.360  -0.357  -0.347  -0.346
 -0.340  -0.338  -0.332  -0.330  -0.326  -0.325  -0.320  -0.314
 -0.310  -0.306  -0.302  -0.301  -0.295  -0.282  -0.279  -0.272
 -0.271  -0.261  -0.253  -0.243  -0.239  -0.235  -0.229  -0.188
 -0.184  -0.164  -0.160  -0.158  -0.155  -0.148  -0.144  -0.140
 -0.137

          Ground-State Mulliken Net Atomic Charges

     Atom                 Charge (a.u.)
  ----------------------------------------
      1 O                    -0.207719
      2 C                     0.212473
      3 C                    -0.078631
      4 C                    -0.081052
      5 C                     0.213297
      6 O                    -0.169217
      7 C                    -0.051680
      8 C                    -0.050446
      9 O                    -0.168216
     10 C                     0.215126
     11 C                    -0.076562
     12 C                    -0.082202
     13 C                     0.214304
     14 O                    -0.218749
     15 O                    -0.169032
     16 O                    -0.174830
     17 O                    -0.208955
     18 C                    -0.128207
     19 C                     0.023647
     20 C                    -0.144813
     21 C                    -0.143233
     22 C                     0.023820
     23 O                    -0.191428
     24 H                     0.087913
     25 H                     0.083044
     26 H                     0.090670
     27 H                     0.077624
     28 H                     0.073296
     29 H                     0.077154
     30 H                     0.072661
     31 H                     0.088193
     32 O                    -0.219891
     33 C                    -0.128480
     34 C                     0.025720
     35 C                    -0.143490
     36 C                    -0.144475
     37 C                     0.026369
     38 O                    -0.186522
     39 H                     0.087018
     40 H                     0.083630
     41 H                     0.091168
     42 H                     0.084421
     43 H                     0.078514
     44 H                     0.074162
     45 H                     0.078265
     46 H                     0.073572
     47 H                     0.087538
     48 H                     0.090864
     49 H                     0.091981
     50 H                     0.085221
     51 H                     0.086400
     52 H                     0.091380
     53 H                     0.094043
     54 H                     0.090761
     55 H                     0.094031
     56 H                     0.099550
  ----------------------------------------
  Sum of atomic charges =     0.000000

                    Cartesian Multipole Moments
 -----------------------------------------------------------------
    Charge (ESU x 10^10)
                 0.0000
    Dipole Moment (Debye)
         X      -3.3737      Y       2.2322      Z       0.6679
       Tot       4.1001
    Quadrupole Moments (Debye-Ang)
        XX    -149.7069     XY       7.6847     YY    -160.7581
        XZ       5.9909     YZ       1.9754     ZZ    -150.7177

 Total job time:  55.75s(wall), 2652.10s(cpu)
        *  Thank you very much for using Q-Chem.  Have a nice day.  *
