 Q-Chem 5.0, Q-Chem, Inc., Pleasanton, CA (2017)
 Q-Chem 5.0.1 for Intel X86 EM64T Linux

User input:
--------------------------------------------------------------
$molecule
0  1
O -3.1903954954 0.7168879548 1.5572940539
C -4.3674452295 0.9183831319 1.1821762045
C -5.0249439123 0.4599082271 -0.1606957256
C -3.9633927809 0.065249441 -1.270850186
C -2.4685192099 0.2790145592 -0.822844822
O -1.9214411105 -0.9677004891 -0.3693640523
C -0.5263375962 -0.7713276009 0.0818815751
C 0.4951774899 -0.9588250897 -1.1146727876
O 1.5546241817 0.0791629199 -1.1271285844
C 2.4534412073 -0.1150490605 -0.0344180853
C 3.5428796168 1.0176652495 -0.0393784829
C 4.9434389065 0.5013723834 0.4975032552
C 4.8982699254 -0.9264555487 1.1516526608
O 5.2212272034 -2.0140667139 0.6279775874
O -5.3569435278 1.5865461083 1.9675102939
O 4.5421730798 -0.7642033803 2.5322457407
O 2.3763884075 -1.0757695139 0.7649070727
C 4.3947062921 -2.0921317689 3.1678244442
C 3.9306764276 1.4163015391 -1.5240655273
C 4.8671268446 2.688678146 -1.4981593577
C 6.2410968998 2.0539127073 -1.0643277191
C 5.8133447555 0.553188685 -0.8294161897
O 4.8358967546 0.309786402 -1.9155406106
H 3.1681237442 1.8761597126 0.5481011848
H 5.3340368749 1.2003138672 1.2584439277
H 3.0629994792 1.4708593704 -2.2090109844
H 4.927870918 3.1432023213 -2.499639738
H 4.5084166976 3.4501755699 -0.7868605375
H 6.9870770712 2.118340438 -1.8726238996
H 6.6601861861 2.5175599209 -0.1570156147
H 6.6291913728 -0.194352977 -0.8696901646
O -1.8141610125 1.3400818415 -0.9222747279
C -4.7804991662 1.9924250892 3.2712047631
C -5.8028163894 -0.9190129218 0.0138273432
C -6.7369207579 -1.1177098189 -1.2444650451
C -5.6830606466 -1.5146651557 -2.3433497644
C -4.3390970412 -1.4571419824 -1.5142321416
O -4.7435225659 -1.9338125764 -0.1701252538
H -5.7068619988 1.2564820889 -0.5077627044
H -4.1182663558 0.6735666728 -2.1802197166
H -3.9328200135 2.69544161 3.139868748
H -6.3000437299 -1.0427591199 0.9955719535
H -7.4574578405 -1.9308182114 -1.062607552
H -7.2937685914 -0.2010958348 -1.4964085722
H -5.857774633 -2.5355786754 -2.7184525373
H -5.6767432806 -0.8205693387 -3.1988954785
H -3.5110139128 -2.0754604329 -1.9094472985
H -4.4245926237 1.1156420171 3.8497883736
H -5.5969857976 2.4942941769 3.8221235204
H 4.1988003192 -1.9016368546 4.2390619071
H 5.3134909196 -2.7039589661 3.0583819097
H 3.5427135743 -2.6499455127 2.7278125385
H 0.9454440469 -1.9734246063 -1.0814027198
H -0.0389486674 -0.8298271611 -2.0778890487
H -0.3409935698 -1.524512759 0.8720567799
H -0.4045105432 0.2514659759 0.4991194271
$end

$rem
JOBTYPE                   OPT
METHOD                    B3LYP
DFT_D                     d3_op
BASIS                     STO-3G
GEOM_OPT_MAX_CYCLES       100
GEOM_OPT_TOL_GRADIENT     300
GEOM_OPT_TOL_DISPLACEMENT 1200
GEOM_OPT_TOL_ENERGY       100
SYMMETRY                  False
THRESH                    12
SCF_CONVERGENCE           8
MAX_SUB_FILE_NUM          128
MEM_STATIC                400
MEM_TOTAL                 4000
$end
--------------------------------------------------------------

   15   -1510.2830806239      9.82E-09 Convergence criterion met
 Total energy in the final basis set = -1510.28308062
   13   -1510.2837375327      6.50E-09 Convergence criterion met
 Total energy in the final basis set = -1510.28373753
   13   -1510.2843673505      3.76E-09 Convergence criterion met
 Total energy in the final basis set = -1510.28436735
   13   -1510.2850002783      4.16E-09 Convergence criterion met
 Total energy in the final basis set = -1510.28500028
   13   -1510.2854537356      4.09E-09 Convergence criterion met
 Total energy in the final basis set = -1510.28545374
   13   -1510.2859142235      4.35E-09 Convergence criterion met
 Total energy in the final basis set = -1510.28591422
   13   -1510.2863325844      3.69E-09 Convergence criterion met
 Total energy in the final basis set = -1510.28633258
   13   -1510.2867700777      4.09E-09 Convergence criterion met
   11   -1510.2880757219      7.85E-09 Convergence criterion met
 Total energy in the final basis set = -1510.28807572
   12   -1510.2880811684      2.11E-09 Convergence criterion met
 Total energy in the final basis set = -1510.28808117
   13   -1510.2880100836      3.34E-09 Convergence criterion met
 Total energy in the final basis set = -1510.28801008
   13   -1510.2880944663      2.16E-09 Convergence criterion met
 Total energy in the final basis set = -1510.28809447
   10   -1510.2880915760      7.41E-09 Convergence criterion met
 Total energy in the final basis set = -1510.28809158
    9   -1510.2880957165      8.87E-09 Convergence criterion met
 Total energy in the final basis set = -1510.28809572

             Standard Nuclear Orientation (Angstroms)
    I     Atom           X                Y                Z
 ----------------------------------------------------------------
    1      O       3.4287011370    -0.6736919190    -2.0855129256
    2      C       4.5074623363    -0.8519516921    -1.4757360130
    3      C       5.1186149499     0.0400380342    -0.3435799451
    4      C       4.1495526861     1.2014331256     0.1265467338
    5      C       2.7743983127     1.2441010076    -0.6382523979
    6      O       1.8778922312     0.3062151650    -0.0225054031
    7      C       0.6069244562     0.2292798309    -0.7776089574
    8      C      -0.3056360300     1.4952798029    -0.5508823724
    9      O      -1.6399331683     1.2866633735    -1.1657343857
   10      C      -2.5141573222     0.6214864736    -0.2514691869
   11      C      -3.8948163425     0.4041305047    -0.9545113647
   12      C      -4.9068656460    -0.4427103336    -0.0805397214
   13      C      -4.3173964037    -0.9640103206     1.2833602186
   14      O      -4.5838398813    -0.5523062741     2.4318709623
   15      O       5.3944574046    -1.9427190254    -1.7267606288
   16      O      -3.5172984571    -2.1224679096     0.9969053874
   17      O      -2.2028433829     0.3048442477     0.9193297469
   18      C      -2.8870373642    -2.6123752837     2.2421851323
   19      C      -4.6926552943     1.7754954941    -1.0884849822
   20      C      -5.8965610245     1.5526146203    -2.0871649688
   21      C      -6.8963597959     0.7400992706    -1.1826821499
   22      C      -6.0634892405     0.6161172785     0.1530325605
   23      O      -5.3448706092     1.9101838585     0.2316905636
   24      H      -3.7184164919    -0.0531585090    -1.9446942839
   25      H      -5.2652368682    -1.3182240314    -0.6510214305
   26      H      -4.0532461444     2.6537392868    -1.3040598998
   27      H      -6.3236497715     2.5193621108    -2.3976511619
   28      H      -5.5877303778     0.9968952562    -2.9869477081
   29      H      -7.8281035761     1.3012485843    -1.0067518499
   30      H      -7.1505131052    -0.2446047366    -1.6061555156
   31      H      -6.6520108548     0.4480516517     1.0758595743
   32      O       2.4566507179     2.0328076442    -1.5551719710
   33      C       4.8363858315    -2.8187803235    -2.7840461474
   34      C       5.3091929541    -0.7687325219     1.0125007350
   35      C       6.2726787563     0.0603769382     1.9484247608
   36      C       5.3145075088     1.2165819683     2.4199856058
   37      C       3.9799772421     0.8353872880     1.6643271323
   38      O       3.9902829387    -0.6462341017     1.6700581830
   39      H       6.0849701531     0.4388883425    -0.7033021594
   40      H       4.6290128781     2.1867948030    -0.0102189561
   41      H       4.7188011522    -2.2750181364    -3.7436137979
   42      H       5.5815791572    -1.8322280334     0.8678764938
   43      H       6.6088045704    -0.5572083897     2.7963758201
   44      H       7.1581247063     0.4315180031     1.4082198564
   45      H       5.1580624270     1.1912686448     3.5101023454
   46      H       5.6815901435     2.2166920615     2.1390518079
   47      H       3.0489357371     1.2161513635     2.1260973696
   48      H       3.8503878327    -3.2329447181    -2.4900917598
   49      H       5.5622859471    -3.6427555402    -2.9111333181
   50      H      -2.3294609058    -3.5266032760     1.9670562677
   51      H      -3.6427557809    -2.8561365119     3.0167536146
   52      H      -2.1850679449    -1.8603087186     2.6575471425
   53      H      -0.4047717022     1.6902648582     0.5379273241
   54      H       0.1434141093     2.3708529845    -1.0601747999
   55      H       0.0893640774    -0.6708213518    -0.3879676526
   56      H       0.8036154207     0.1006766576    -1.8634547527
 ----------------------------------------------------------------

    9   -1510.2880957638      4.18E-09 Convergence criterion met
 Total energy in the final basis set = -1510.28809576
 Final energy is   -1510.28809576378
 **  OPTIMIZATION CONVERGED  **

                    Orbital Energies (a.u.)
 --------------------------------------------------------------

 Alpha MOs
 -- Occupied --
-18.945 -18.938 -18.924 -18.915 -18.889 -18.888 -18.884 -18.883
-18.863 -18.857 -10.109 -10.103 -10.094 -10.086 -10.071 -10.065
-10.064 -10.062 -10.060 -10.058 -10.054 -10.050 -10.042 -10.037
-10.035 -10.029 -10.022 -10.020 -10.018 -10.016  -1.022  -1.016
 -1.001  -0.993  -0.971  -0.967  -0.945  -0.940  -0.928  -0.920
 -0.764  -0.760  -0.726  -0.721  -0.713  -0.704  -0.690  -0.668
 -0.650  -0.615  -0.596  -0.579  -0.547  -0.541  -0.538  -0.534
 -0.514  -0.507  -0.486  -0.473  -0.464  -0.454  -0.450  -0.444
 -0.435  -0.432  -0.428  -0.418  -0.410  -0.404  -0.399  -0.394
 -0.389  -0.381  -0.378  -0.362  -0.361  -0.355  -0.350  -0.344
 -0.338  -0.336  -0.334  -0.329  -0.329  -0.326  -0.321  -0.315
 -0.310  -0.307  -0.301  -0.301  -0.298  -0.283  -0.277  -0.273
 -0.271  -0.263  -0.255  -0.242  -0.240  -0.235  -0.231  -0.189
 -0.185  -0.163  -0.162  -0.160  -0.157  -0.145  -0.143  -0.142
 -0.137

          Ground-State Mulliken Net Atomic Charges

     Atom                 Charge (a.u.)
  ----------------------------------------
      1 O                    -0.207920
      2 C                     0.215038
      3 C                    -0.078310
      4 C                    -0.081647
      5 C                     0.214419
      6 O                    -0.170024
      7 C                    -0.049125
      8 C                    -0.056145
      9 O                    -0.170992
     10 C                     0.213772
     11 C                    -0.077904
     12 C                    -0.081627
     13 C                     0.215907
     14 O                    -0.216604
     15 O                    -0.168780
     16 O                    -0.177716
     17 O                    -0.207189
     18 C                    -0.128786
     19 C                     0.025323
     20 C                    -0.143796
     21 C                    -0.143974
     22 C                     0.024883
     23 O                    -0.188993
     24 H                     0.086650
     25 H                     0.083070
     26 H                     0.085437
     27 H                     0.077981
     28 H                     0.073464
     29 H                     0.077617
     30 H                     0.072913
     31 H                     0.088979
     32 O                    -0.221520
     33 C                    -0.128030
     34 C                     0.025128
     35 C                    -0.143722
     36 C                    -0.144405
     37 C                     0.026843
     38 O                    -0.186734
     39 H                     0.086842
     40 H                     0.083403
     41 H                     0.090867
     42 H                     0.087216
     43 H                     0.078402
     44 H                     0.073565
     45 H                     0.078470
     46 H                     0.073710
     47 H                     0.086966
     48 H                     0.091823
     49 H                     0.092525
     50 H                     0.085242
     51 H                     0.086199
     52 H                     0.092324
     53 H                     0.094611
     54 H                     0.099824
     55 H                     0.089851
     56 H                     0.094677
  ----------------------------------------
  Sum of atomic charges =     0.000000

                    Cartesian Multipole Moments
 -----------------------------------------------------------------
    Charge (ESU x 10^10)
                 0.0000
    Dipole Moment (Debye)
         X       2.6167      Y      -1.5074      Z      -2.0441
       Tot       3.6466
    Quadrupole Moments (Debye-Ang)
        XX    -138.8681     XY       3.0826     YY    -155.9282
        XZ      12.3009     YZ       4.5175     ZZ    -161.7332

 Total job time:  70.25s(wall), 3342.09s(cpu)
        *  Thank you very much for using Q-Chem.  Have a nice day.  *
