 Q-Chem 5.0, Q-Chem, Inc., Pleasanton, CA (2017)
 Q-Chem 5.0.1 for Intel X86 EM64T Linux

User input:
--------------------------------------------------------------
$molecule
0  1
O -3.94934 -3.66094 2.70899
C -3.26408 -4.56952 2.26188
C -3.36658 -6.02376 2.66595
C -4.09246 -6.33714 3.98457
C -4.78949 -5.17846 4.66258
O -6.11887 -5.1892 4.34944
C -6.84382 -4.10181 4.93363
C -7.35785 -4.49456 6.31481
O -7.14603 -3.41701 7.24049
C -7.92882 -2.32545 7.05371
C -7.63134 -1.2138 8.03166
C -8.84553 -0.36467 8.43539
C -10.20244 -0.95093 8.10104
O -10.93223 -1.54093 8.88454
O -2.44198 -4.30826 1.21178
O -10.62902 -0.7805 6.82204
O -8.53498 -2.11842 6.0105
C -11.83399 -1.24206 6.33488
C -7.11474 -1.66323 9.41851
C -6.33099 -0.52363 10.06853
C -7.45231 0.43532 10.40284
C -8.66275 -0.39859 9.97002
O -8.26942 -1.72672 10.21407
H -6.85566 -0.58527 7.53901
H -8.82733 0.68328 8.06268
H -6.48314 -2.57654 9.40263
H -5.90642 -0.91685 11.02026
H -5.51088 -0.09917 9.45031
H -7.46202 0.59277 11.50443
H -7.415 1.41452 9.87822
H -9.57208 -0.0536 10.5106
O -4.20993 -4.32573 5.32628
C -2.25976 -3.0577 0.65954
C -4.15871 -6.86655 1.65631
C -3.73342 -8.32944 1.75867
C -4.35488 -8.70919 3.08548
C -5.08153 -7.40521 3.43717
O -5.46027 -6.88627 2.18465
H -2.31301 -6.37838 2.73363
H -3.44795 -6.8135 4.75626
H -1.85387 -2.35873 1.42189
H -4.0585 -6.50593 0.60909
H -4.25603 -8.88721 0.94882
H -2.63871 -8.50375 1.67943
H -5.09473 -9.52076 2.90478
H -3.63861 -9.01992 3.87638
H -5.90739 -7.6254 4.14924
H -3.2233 -2.66787 0.26718
H -1.53666 -3.1319 -0.17838
H -11.92342 -0.9651 5.26449
H -12.67539 -0.7815 6.89549
H -11.88341 -2.34846 6.42341
H -8.39859 -4.88723 6.30464
H -6.71195 -5.31391 6.69655
H -7.69816 -3.82176 4.28239
H -6.21853 -3.17916 4.97536
$end

$opt
CONSTRAINT
tors           1           2           3           4     -17.664
tors           3           4           5           6     +97.716
tors           4           5           6           7    -178.757
tors           5           6           7           8     -89.129
tors           6           7           8           9    +136.557
tors           7           8           9          10     +70.455
tors           8           9          10          11    -178.337
tors           9          10          11          12    -147.073
tors          11          12          13          14     +99.485
ENDCONSTRAINT
$end

$rem
JOBTYPE                   OPT
METHOD                    B3LYP
DFT_D                     d3_op
BASIS                     STO-3G
GEOM_OPT_MAX_CYCLES       100
GEOM_OPT_TOL_GRADIENT     300
GEOM_OPT_TOL_DISPLACEMENT 1200
GEOM_OPT_TOL_ENERGY       100
SYMMETRY                  False
THRESH                    12
SCF_CONVERGENCE           8
MAX_SUB_FILE_NUM          128
MEM_STATIC                400
MEM_TOTAL                 4000
$end
--------------------------------------------------------------

   15   -1510.1460283017      6.37E-09 Convergence criterion met
 Total energy in the final basis set = -1510.14602830
   14   -1510.2159629356      6.16E-09 Convergence criterion met
 Total energy in the final basis set = -1510.21596294
   13   -1510.2533585873      7.66E-09 Convergence criterion met
 Total energy in the final basis set = -1510.25335859
   14   -1510.2699616510      5.87E-09 Convergence criterion met
 Total energy in the final basis set = -1510.26996165
   13   -1510.2760937784      5.87E-09 Convergence criterion met
 Total energy in the final basis set = -1510.27609378
    2   -1510.2760937784      6.10E-09 Convergence criterion met
 Total energy in the final basis set = -1510.27609378
   13   -1510.2787536998      3.70E-09 Convergence criterion met
 Total energy in the final basis set = -1510.27875370
   13   -1510.2800893025      4.79E-09 Convergence criterion met
   12   -1510.2829736973      2.63E-09 Convergence criterion met
 Total energy in the final basis set = -1510.28297370
   11   -1510.2830269393      8.39E-09 Convergence criterion met
 Total energy in the final basis set = -1510.28302694
   11   -1510.2830567473      4.50E-09 Convergence criterion met
 Total energy in the final basis set = -1510.28305675
   11   -1510.2830749687      3.26E-09 Convergence criterion met
 Total energy in the final basis set = -1510.28307497
   11   -1510.2830890156      3.95E-09 Convergence criterion met
 Total energy in the final basis set = -1510.28308902
   10   -1510.2830920366      9.63E-09 Convergence criterion met
 Total energy in the final basis set = -1510.28309204

             Standard Nuclear Orientation (Angstroms)
    I     Atom           X                Y                Z
 ----------------------------------------------------------------
    1      O      -3.1903954954     0.7168879548     1.5572940539
    2      C      -4.3674452295     0.9183831319     1.1821762045
    3      C      -5.0249439123     0.4599082271    -0.1606957256
    4      C      -3.9633927809     0.0652494410    -1.2708501860
    5      C      -2.4685192099     0.2790145592    -0.8228448220
    6      O      -1.9214411105    -0.9677004891    -0.3693640523
    7      C      -0.5263375962    -0.7713276009     0.0818815751
    8      C       0.4951774899    -0.9588250897    -1.1146727876
    9      O       1.5546241817     0.0791629199    -1.1271285844
   10      C       2.4534412073    -0.1150490605    -0.0344180853
   11      C       3.5428796168     1.0176652495    -0.0393784829
   12      C       4.9434389065     0.5013723834     0.4975032552
   13      C       4.8982699254    -0.9264555487     1.1516526608
   14      O       5.2212272034    -2.0140667139     0.6279775874
   15      O      -5.3569435278     1.5865461083     1.9675102939
   16      O       4.5421730798    -0.7642033803     2.5322457407
   17      O       2.3763884075    -1.0757695139     0.7649070727
   18      C       4.3947062921    -2.0921317689     3.1678244442
   19      C       3.9306764276     1.4163015391    -1.5240655273
   20      C       4.8671268446     2.6886781460    -1.4981593577
   21      C       6.2410968998     2.0539127073    -1.0643277191
   22      C       5.8133447555     0.5531886850    -0.8294161897
   23      O       4.8358967546     0.3097864020    -1.9155406106
   24      H       3.1681237442     1.8761597126     0.5481011848
   25      H       5.3340368749     1.2003138672     1.2584439277
   26      H       3.0629994792     1.4708593704    -2.2090109844
   27      H       4.9278709180     3.1432023213    -2.4996397380
   28      H       4.5084166976     3.4501755699    -0.7868605375
   29      H       6.9870770712     2.1183404380    -1.8726238996
   30      H       6.6601861861     2.5175599209    -0.1570156147
   31      H       6.6291913728    -0.1943529770    -0.8696901646
   32      O      -1.8141610125     1.3400818415    -0.9222747279
   33      C      -4.7804991662     1.9924250892     3.2712047631
   34      C      -5.8028163894    -0.9190129218     0.0138273432
   35      C      -6.7369207579    -1.1177098189    -1.2444650451
   36      C      -5.6830606466    -1.5146651557    -2.3433497644
   37      C      -4.3390970412    -1.4571419824    -1.5142321416
   38      O      -4.7435225659    -1.9338125764    -0.1701252538
   39      H      -5.7068619988     1.2564820889    -0.5077627044
   40      H      -4.1182663558     0.6735666728    -2.1802197166
   41      H      -3.9328200135     2.6954416100     3.1398687480
   42      H      -6.3000437299    -1.0427591199     0.9955719535
   43      H      -7.4574578405    -1.9308182114    -1.0626075520
   44      H      -7.2937685914    -0.2010958348    -1.4964085722
   45      H      -5.8577746330    -2.5355786754    -2.7184525373
   46      H      -5.6767432806    -0.8205693387    -3.1988954785
   47      H      -3.5110139128    -2.0754604329    -1.9094472985
   48      H      -4.4245926237     1.1156420171     3.8497883736
   49      H      -5.5969857976     2.4942941769     3.8221235204
   50      H       4.1988003192    -1.9016368546     4.2390619071
   51      H       5.3134909196    -2.7039589661     3.0583819097
   52      H       3.5427135743    -2.6499455127     2.7278125385
   53      H       0.9454440469    -1.9734246063    -1.0814027198
   54      H      -0.0389486674    -0.8298271611    -2.0778890487
   55      H      -0.3409935698    -1.5245127590     0.8720567799
   56      H      -0.4045105432     0.2514659759     0.4991194271
 ----------------------------------------------------------------

    9   -1510.2830922681      3.53E-09 Convergence criterion met
 Total energy in the final basis set = -1510.28309227
 Final energy is   -1510.28309226808
 **  OPTIMIZATION CONVERGED  **

                    Orbital Energies (a.u.)
 --------------------------------------------------------------

 Alpha MOs
 -- Occupied --
-18.942 -18.938 -18.926 -18.918 -18.889 -18.884 -18.881 -18.878
-18.863 -18.858 -10.105 -10.101 -10.094 -10.087 -10.070 -10.069
-10.063 -10.063 -10.059 -10.053 -10.053 -10.051 -10.041 -10.036
-10.036 -10.029 -10.022 -10.021 -10.016 -10.015  -1.019  -1.016
 -1.003  -0.995  -0.971  -0.965  -0.942  -0.939  -0.928  -0.921
 -0.764  -0.758  -0.725  -0.721  -0.712  -0.703  -0.689  -0.667
 -0.651  -0.615  -0.595  -0.579  -0.547  -0.540  -0.538  -0.532
 -0.513  -0.505  -0.482  -0.475  -0.463  -0.453  -0.448  -0.445
 -0.435  -0.430  -0.426  -0.416  -0.410  -0.403  -0.400  -0.398
 -0.389  -0.378  -0.376  -0.363  -0.360  -0.357  -0.348  -0.345
 -0.341  -0.337  -0.332  -0.331  -0.326  -0.324  -0.320  -0.313
 -0.308  -0.305  -0.302  -0.301  -0.295  -0.282  -0.279  -0.273
 -0.271  -0.260  -0.255  -0.242  -0.240  -0.234  -0.229  -0.188
 -0.183  -0.164  -0.161  -0.158  -0.154  -0.148  -0.143  -0.140
 -0.138

          Ground-State Mulliken Net Atomic Charges

     Atom                 Charge (a.u.)
  ----------------------------------------
      1 O                    -0.207848
      2 C                     0.212399
      3 C                    -0.078705
      4 C                    -0.080848
      5 C                     0.213131
      6 O                    -0.169576
      7 C                    -0.051222
      8 C                    -0.049056
      9 O                    -0.166553
     10 C                     0.213352
     11 C                    -0.076654
     12 C                    -0.081748
     13 C                     0.212683
     14 O                    -0.218157
     15 O                    -0.168902
     16 O                    -0.172409
     17 O                    -0.212798
     18 C                    -0.128022
     19 C                     0.022888
     20 C                    -0.144937
     21 C                    -0.143181
     22 C                     0.024114
     23 O                    -0.191059
     24 H                     0.086804
     25 H                     0.083456
     26 H                     0.092547
     27 H                     0.077569
     28 H                     0.072907
     29 H                     0.077173
     30 H                     0.072665
     31 H                     0.087186
     32 O                    -0.220967
     33 C                    -0.128477
     34 C                     0.025739
     35 C                    -0.143554
     36 C                    -0.144460
     37 C                     0.026086
     38 O                    -0.186733
     39 H                     0.087007
     40 H                     0.083393
     41 H                     0.091265
     42 H                     0.084032
     43 H                     0.078395
     44 H                     0.074066
     45 H                     0.078184
     46 H                     0.073478
     47 H                     0.088480
     48 H                     0.090814
     49 H                     0.091853
     50 H                     0.086023
     51 H                     0.086677
     52 H                     0.092039
     53 H                     0.092670
     54 H                     0.091214
     55 H                     0.096271
     56 H                     0.099308
  ----------------------------------------
  Sum of atomic charges =     0.000000

                    Cartesian Multipole Moments
 -----------------------------------------------------------------
    Charge (ESU x 10^10)
                 0.0000
    Dipole Moment (Debye)
         X      -2.7367      Y       2.1216      Z       0.5792
       Tot       3.5108
    Quadrupole Moments (Debye-Ang)
        XX    -144.0618     XY       6.9272     YY    -160.7079
        XZ       6.2576     YZ       2.3147     ZZ    -151.7596

 Total job time:  56.88s(wall), 2704.08s(cpu)
        *  Thank you very much for using Q-Chem.  Have a nice day.  *
