 Q-Chem 5.0, Q-Chem, Inc., Pleasanton, CA (2017)
 Q-Chem 5.0.1 for Intel X86 EM64T Linux

User input:
--------------------------------------------------------------
$molecule
0  1
O -3.2912072696 0.9979456156 1.3778973612
C -4.4366883319 1.1505948597 0.8971154797
C -5.0739576 0.367827791 -0.2978549883
C -3.9952232062 -0.3296081744 -1.2270121321
C -2.5104705631 0.0166919635 -0.8327652128
O -1.928763589 -1.0860163473 -0.1219774209
C -0.5436575093 -0.7521118404 0.2758667041
C 0.4836729388 -0.9973972288 -0.9038792857
O 1.5573188203 0.0236900728 -0.9030645319
C 2.5356080122 -0.2733959158 0.0984343967
C 3.5160945436 0.9509992614 0.2476554654
C 5.0253133169 0.4998776931 0.4361266113
C 5.2111805205 -1.0134212451 0.8086315012
O 5.6668312631 -1.925660544 0.0863411593
O -5.4067406324 2.0667433643 1.4088372186
O 4.9111184119 -1.1580105029 2.2032141009
O 2.5814984804 -1.3574580309 0.7213498045
C 4.9986452412 -2.5832731025 2.590726427
C 3.6287436486 1.7274410669 -1.1307453346
C 4.491660471 3.0365973501 -0.9348544316
C 5.9522906566 2.4502586224 -0.9204680093
C 5.6462341109 0.9032652787 -0.9672505971
O 4.507328777 0.8233160764 -1.9120747279
H 3.1660027575 1.5882885117 1.0806261313
H 5.4857532486 1.0885638821 1.2502833906
H 2.6578467876 1.8637284429 -1.6438697534
H 4.3392459114 3.7304623622 -1.7763826739
H 4.2361227 3.5568196758 0.0021773423
H 6.5156088265 2.7551187029 -1.8169943969
H 6.5243460462 2.742428494 -0.0254960469
H 6.4758310757 0.2513033075 -1.3034767543
O -1.8876505451 1.0542550358 -1.1481960691
C -4.8512544104 2.7957037081 2.5733396776
C -5.8847450037 -0.9017993081 0.2190414846
C -6.7717011645 -1.442456184 -0.971394537
C -5.6859952635 -2.1508406068 -1.862862301
C -4.3735316364 -1.8582738948 -1.0341735663
O -4.833320234 -1.9306434894 0.373396268
H -5.7267512279 1.0568149839 -0.8628122806
H -4.1347772063 -0.008014181 -2.2748191289
H -3.9583210906 3.3905490776 2.2921040569
H -6.4223796507 -0.7429001505 1.1741836024
H -7.5207843596 -2.158862576 -0.5978104381
H -7.294705055 -0.6290788163 -1.4997100057
H -5.8643832509 -3.2359516408 -1.9280002129
H -5.6353652178 -1.7386323316 -2.8832480948
H -3.5363515601 -2.5615861946 -1.2033867913
H -4.5690514867 2.1025401468 3.3918997843
H -5.6533782385 3.4728570714 2.9199214233
H 4.8668472476 -2.6132401104 3.6879242627
H 5.9800420736 -3.0224123523 2.3184926683
H 4.1964601662 -3.1761336412 2.105218365
H 0.9137717212 -2.0187341053 -0.8376218322
H -0.0327512125 -0.8758443702 -1.8772204586
H -0.3054044791 -1.4049283108 1.1383680868
H -0.4785270267 0.3138822813 0.5838821293
$end

$rem
JOBTYPE                   OPT
METHOD                    B3LYP
DFT_D                     d3_op
BASIS                     STO-3G
GEOM_OPT_MAX_CYCLES       100
GEOM_OPT_TOL_GRADIENT     300
GEOM_OPT_TOL_DISPLACEMENT 1200
GEOM_OPT_TOL_ENERGY       100
SYMMETRY                  False
THRESH                    12
SCF_CONVERGENCE           8
MAX_SUB_FILE_NUM          128
MEM_STATIC                400
MEM_TOTAL                 4000
$end
--------------------------------------------------------------

   16   -1510.2805573242      5.21E-09 Convergence criterion met
 Total energy in the final basis set = -1510.28055732
   14   -1510.2821373613      1.64E-09 Convergence criterion met
 Total energy in the final basis set = -1510.28213736
   14   -1510.2833579330      2.88E-09 Convergence criterion met
 Total energy in the final basis set = -1510.28335793
   14   -1510.2840641890      2.62E-09 Convergence criterion met
 Total energy in the final basis set = -1510.28406419
   13   -1510.2848308820      4.13E-09 Convergence criterion met
 Total energy in the final basis set = -1510.28483088
   13   -1510.2855976330      6.13E-09 Convergence criterion met
 Total energy in the final basis set = -1510.28559763
   13   -1510.2861080880      3.82E-09 Convergence criterion met
 Total energy in the final basis set = -1510.28610809
   13   -1510.2866300252      3.78E-09 Convergence criterion met
   11   -1510.2881317667      4.50E-09 Convergence criterion met
 Total energy in the final basis set = -1510.28813177
    9   -1510.2881375221      6.46E-09 Convergence criterion met
 Total energy in the final basis set = -1510.28813752
   10   -1510.2881332869      8.35E-09 Convergence criterion met
 Total energy in the final basis set = -1510.28813329
   10   -1510.2881301500      5.92E-09 Convergence criterion met
 Total energy in the final basis set = -1510.28813015
    9   -1510.2881290281      5.70E-09 Convergence criterion met
 Total energy in the final basis set = -1510.28812903
    9   -1510.2881303870      5.14E-09 Convergence criterion met
 Total energy in the final basis set = -1510.28813039

             Standard Nuclear Orientation (Angstroms)
    I     Atom           X                Y                Z
 ----------------------------------------------------------------
    1      O      -3.0614156847     1.2603184106     1.5306534160
    2      C      -4.2058117017     0.7533677045     1.5474122668
    3      C      -4.9868615469     0.1254025112     0.3442644863
    4      C      -4.1620565662     0.1306321852    -1.0087776051
    5      C      -2.7495495391     0.8180052521    -0.9059809766
    6      O      -1.7834143022    -0.1545204055    -0.4806549163
    7      C      -0.4643753121     0.4890396928    -0.2882384798
    8      C       0.2841632997     0.7276002996    -1.6558435370
    9      O       1.5954880270     1.3823992420    -1.4224648147
   10      C       2.5619207498     0.4230913278    -0.9835774207
   11      C       3.9008991527     1.1697663607    -0.6778901709
   12      C       4.7249551342     0.4866250095     0.4913894213
   13      C       4.0007350823    -0.7488400476     1.1399422714
   14      O       4.3835075725    -1.9371556997     1.1454494194
   15      O      -5.0207544392     0.6597662772     2.7167529650
   16      O       2.8265862487    -0.2702039856     1.8142043777
   17      O       2.3442536003    -0.8057715452    -0.8877018936
   18      C       2.0561687135    -1.4142804166     2.3506005963
   19      C       4.9280668738     1.0170629008    -1.8856694017
   20      C       6.1096065765     2.0421705335    -1.6656406741
   21      C       6.9246432714     1.3279327791    -0.5237296517
   22      C       6.0383427749     0.0448251713    -0.2764897597
   23      O       5.5479946207    -0.3009724582    -1.6320628808
   24      H       3.6749643396     2.2293977842    -0.4663239698
   25      H       4.9419809627     1.2198436798     1.2891763542
   26      H       4.4621349635     1.0432371289    -2.8900802164
   27      H       6.7060195581     2.1459050125    -2.5860268183
   28      H       5.7423711873     3.0374210948    -1.3681734151
   29      H       7.9319633973     1.0413668339    -0.8656609516
   30      H       7.0203713745     1.9471665222     0.3823433280
   31      H       6.5546895210    -0.8232548366     0.1775106278
   32      O      -2.4720848450     1.9911226702    -1.2390138165
   33      C      -4.3041340305     1.2309287227     3.8813414990
   34      C      -5.2282531350    -1.4343246343     0.5477103326
   35      C      -6.3212895331    -1.9073438939    -0.4895962446
   36      C      -5.4899919538    -1.9086985279    -1.8259824211
   37      C      -4.0772178469    -1.4279070364    -1.3071339363
   38      O      -3.9774352302    -2.0383334556     0.0390067797
   39      H      -5.9469132485     0.6629922475     0.2376188966
   40      H      -4.7237718793     0.6628670733    -1.7966761783
   41      H      -4.0275605547     2.2911307151     3.7098222359
   42      H      -5.4104762942    -1.7300050058     1.5991876592
   43      H      -6.6798678700    -2.9173028253    -0.2344834637
   44      H      -7.1845658028    -1.2237509905    -0.5230181165
   45      H      -5.4178835501    -2.9209188100    -2.2546932652
   46      H      -5.9058592954    -1.2309070589    -2.5884197879
   47      H      -3.2151126017    -1.7293691659    -1.9321579912
   48      H      -3.3821714250     0.6585982868     4.1113124480
   49      H      -5.0049651183     1.1622996685     4.7334949703
   50      H       1.1800105344    -0.9800663805     2.8667852265
   51      H       2.6528469968    -2.0116085201     3.0699166732
   52      H       1.7136255518    -2.0836652422     1.5346297389
   53      H       0.4110212534    -0.2398226620    -2.1865708434
   54      H      -0.3002624250     1.4317321027    -2.2807801225
   55      H       0.1246280208    -0.2128345553     0.3350919326
   56      H      -0.5737306464     1.4579654049     0.2435487972
 ----------------------------------------------------------------

    8   -1510.2881301308      9.02E-09 Convergence criterion met
 Total energy in the final basis set = -1510.28813013
 Final energy is   -1510.28813013080
 **  OPTIMIZATION CONVERGED  **

                    Orbital Energies (a.u.)
 --------------------------------------------------------------

 Alpha MOs
 -- Occupied --
-18.944 -18.934 -18.924 -18.921 -18.889 -18.887 -18.885 -18.874
-18.866 -18.861 -10.108 -10.098 -10.093 -10.091 -10.071 -10.065
-10.062 -10.061 -10.059 -10.059 -10.055 -10.054 -10.042 -10.035
-10.035 -10.032 -10.022 -10.020 -10.019 -10.017  -1.021  -1.013
 -1.001  -0.999  -0.971  -0.967  -0.945  -0.936  -0.927  -0.926
 -0.764  -0.760  -0.725  -0.721  -0.713  -0.704  -0.689  -0.668
 -0.655  -0.615  -0.596  -0.580  -0.547  -0.542  -0.538  -0.535
 -0.513  -0.507  -0.484  -0.473  -0.464  -0.456  -0.449  -0.445
 -0.435  -0.432  -0.428  -0.417  -0.410  -0.406  -0.404  -0.392
 -0.388  -0.380  -0.378  -0.363  -0.359  -0.354  -0.351  -0.346
 -0.342  -0.337  -0.335  -0.330  -0.329  -0.324  -0.323  -0.315
 -0.308  -0.307  -0.301  -0.301  -0.295  -0.282  -0.278  -0.276
 -0.270  -0.262  -0.255  -0.246  -0.240  -0.235  -0.231  -0.188
 -0.183  -0.167  -0.162  -0.159  -0.154  -0.146  -0.144  -0.142
 -0.141

          Ground-State Mulliken Net Atomic Charges

     Atom                 Charge (a.u.)
  ----------------------------------------
      1 O                    -0.207351
      2 C                     0.214499
      3 C                    -0.078203
      4 C                    -0.081764
      5 C                     0.213944
      6 O                    -0.170173
      7 C                    -0.050365
      8 C                    -0.054039
      9 O                    -0.169763
     10 C                     0.211778
     11 C                    -0.078739
     12 C                    -0.079908
     13 C                     0.215004
     14 O                    -0.210253
     15 O                    -0.168999
     16 O                    -0.177821
     17 O                    -0.213050
     18 C                    -0.130049
     19 C                     0.025776
     20 C                    -0.143766
     21 C                    -0.143913
     22 C                     0.024748
     23 O                    -0.187403
     24 H                     0.087215
     25 H                     0.083641
     26 H                     0.082771
     27 H                     0.077934
     28 H                     0.073906
     29 H                     0.077904
     30 H                     0.072941
     31 H                     0.090239
     32 O                    -0.222186
     33 C                    -0.128112
     34 C                     0.025149
     35 C                    -0.143731
     36 C                    -0.144327
     37 C                     0.026591
     38 O                    -0.187170
     39 H                     0.086892
     40 H                     0.083130
     41 H                     0.091694
     42 H                     0.086400
     43 H                     0.078472
     44 H                     0.073685
     45 H                     0.078250
     46 H                     0.073517
     47 H                     0.087318
     48 H                     0.090647
     49 H                     0.092379
     50 H                     0.087289
     51 H                     0.087681
     52 H                     0.093434
     53 H                     0.091383
     54 H                     0.096270
     55 H                     0.092429
     56 H                     0.096175
  ----------------------------------------
  Sum of atomic charges =     0.000000

                    Cartesian Multipole Moments
 -----------------------------------------------------------------
    Charge (ESU x 10^10)
                -0.0000
    Dipole Moment (Debye)
         X      -2.5764      Y       1.9182      Z       1.1916
       Tot       3.4260
    Quadrupole Moments (Debye-Ang)
        XX    -140.4537     XY      14.9059     YY    -167.5901
        XZ       0.9948     YZ       1.8951     ZZ    -148.6122

 Total job time:  95.09s(wall), 4522.61s(cpu)
        *  Thank you very much for using Q-Chem.  Have a nice day.  *
