 Q-Chem 5.0, Q-Chem, Inc., Pleasanton, CA (2017)
 Q-Chem 5.0.1 for Intel X86 EM64T Linux

User input:
--------------------------------------------------------------
$molecule
0  1
O -3.94934 -3.66094 2.70899
C -3.26408 -4.56952 2.26188
C -3.36658 -6.02376 2.66595
C -4.03945 -6.33287 4.01337
C -4.69326 -5.16829 4.72358
O -6.04778 -5.22498 4.55784
C -6.73734 -4.13581 5.18032
C -6.94314 -4.42318 6.66396
O -6.81904 -3.2081 7.41964
C -7.9028 -2.39322 7.39563
C -7.63244 -1.03662 8.00159
C -8.77086 -0.47523 8.86596
C -9.83341 -1.47048 9.28688
O -9.99237 -1.90082 10.42006
O -2.45363 -4.3112 1.20202
O -10.71301 -1.8542 8.32501
O -8.86416 -2.59361 6.66378
C -11.75363 -2.73681 8.52666
C -6.4492 -0.95179 8.99543
C -5.93472 0.48582 9.06045
C -7.06976 1.15993 9.79994
C -7.95494 -0.05255 10.10698
O -7.04365 -1.11387 10.25797
H -7.42857 -0.36424 7.1378
H -9.29637 0.39225 8.40906
H -5.60048 -1.62958 8.76381
H -5.0364 0.48284 9.71906
H -5.6682 0.9407 8.08221
H -6.66507 1.59694 10.73992
H -7.6192 1.93604 9.22434
H -8.60147 0.16449 10.98586
O -4.07541 -4.28936 5.31504
C -2.2782 -3.0624 0.64358
C -4.21422 -6.8524 1.68957
C -3.79638 -8.31884 1.7609
C -4.34927 -8.70121 3.11681
C -5.05534 -7.39687 3.50883
O -5.48975 -6.86803 2.27908
H -2.31634 -6.39433 2.68392
H -3.35883 -6.80741 4.75451
H -1.86481 -2.36051 1.39917
H -4.16183 -6.4851 0.64114
H -4.36806 -8.86515 0.97673
H -2.7097 -8.50497 1.62122
H -5.09537 -9.51432 2.97261
H -3.59301 -9.01073 3.8701
H -5.84734 -7.62241 4.25655
H -3.24614 -2.67462 0.26009
H -1.56402 -3.13897 -0.20174
H -12.30718 -2.86962 7.57463
H -12.45119 -2.33807 9.29393
H -11.35987 -3.72348 8.852
H -7.84703 -5.02934 6.89534
H -6.07824 -5.02996 7.00445
H -7.72408 -3.97196 4.69956
H -6.17535 -3.18508 5.02268
$end

$opt
CONSTRAINT
tors           1           2           3           4     -20.198
tors           3           4           5           6    +102.663
tors           4           5           6           7    -178.757
tors           5           6           7           8     -82.546
tors           6           7           8           9    +143.934
tors           7           8           9          10     +78.508
tors           8           9          10          11    -170.062
tors           9          10          11          12    -139.800
tors          11          12          13          14    +108.828
ENDCONSTRAINT
$end

$rem
JOBTYPE                   OPT
METHOD                    B3LYP
DFT_D                     d3_op
BASIS                     STO-3G
GEOM_OPT_MAX_CYCLES       100
GEOM_OPT_TOL_GRADIENT     300
GEOM_OPT_TOL_DISPLACEMENT 1200
GEOM_OPT_TOL_ENERGY       100
SYMMETRY                  False
THRESH                    12
SCF_CONVERGENCE           8
MAX_SUB_FILE_NUM          128
MEM_STATIC                400
MEM_TOTAL                 4000
$end
--------------------------------------------------------------

   15   -1510.1460551331      6.46E-09 Convergence criterion met
 Total energy in the final basis set = -1510.14605513
   13   -1510.2156786289      8.72E-09 Convergence criterion met
 Total energy in the final basis set = -1510.21567863
   13   -1510.2527555131      7.59E-09 Convergence criterion met
 Total energy in the final basis set = -1510.25275551
   14   -1510.2688672148      5.62E-09 Convergence criterion met
 Total energy in the final basis set = -1510.26886721
   13   -1510.2743186309      5.30E-09 Convergence criterion met
 Total energy in the final basis set = -1510.27431863
    2   -1510.2743186309      1.60E-09 Convergence criterion met
 Total energy in the final basis set = -1510.27431863
   13   -1510.2764422762      3.76E-09 Convergence criterion met
 Total energy in the final basis set = -1510.27644228
    2   -1510.2764422761      5.06E-09 Convergence criterion met
   11   -1510.2804536708      6.57E-09 Convergence criterion met
 Total energy in the final basis set = -1510.28045367
   11   -1510.2804766456      5.14E-09 Convergence criterion met
 Total energy in the final basis set = -1510.28047665
   11   -1510.2804905933      3.28E-09 Convergence criterion met
 Total energy in the final basis set = -1510.28049059
   10   -1510.2804945213      8.65E-09 Convergence criterion met
 Total energy in the final basis set = -1510.28049452
    9   -1510.2804995159      5.95E-09 Convergence criterion met
 Total energy in the final basis set = -1510.28049952
    9   -1510.2805078806      6.20E-09 Convergence criterion met
 Total energy in the final basis set = -1510.28050788

             Standard Nuclear Orientation (Angstroms)
    I     Atom           X                Y                Z
 ----------------------------------------------------------------
    1      O      -3.2912072696     0.9979456156     1.3778973612
    2      C      -4.4366883319     1.1505948597     0.8971154797
    3      C      -5.0739576000     0.3678277910    -0.2978549883
    4      C      -3.9952232062    -0.3296081744    -1.2270121321
    5      C      -2.5104705631     0.0166919635    -0.8327652128
    6      O      -1.9287635890    -1.0860163473    -0.1219774209
    7      C      -0.5436575093    -0.7521118404     0.2758667041
    8      C       0.4836729388    -0.9973972288    -0.9038792857
    9      O       1.5573188203     0.0236900728    -0.9030645319
   10      C       2.5356080122    -0.2733959158     0.0984343967
   11      C       3.5160945436     0.9509992614     0.2476554654
   12      C       5.0253133169     0.4998776931     0.4361266113
   13      C       5.2111805205    -1.0134212451     0.8086315012
   14      O       5.6668312631    -1.9256605440     0.0863411593
   15      O      -5.4067406324     2.0667433643     1.4088372186
   16      O       4.9111184119    -1.1580105029     2.2032141009
   17      O       2.5814984804    -1.3574580309     0.7213498045
   18      C       4.9986452412    -2.5832731025     2.5907264270
   19      C       3.6287436486     1.7274410669    -1.1307453346
   20      C       4.4916604710     3.0365973501    -0.9348544316
   21      C       5.9522906566     2.4502586224    -0.9204680093
   22      C       5.6462341109     0.9032652787    -0.9672505971
   23      O       4.5073287770     0.8233160764    -1.9120747279
   24      H       3.1660027575     1.5882885117     1.0806261313
   25      H       5.4857532486     1.0885638821     1.2502833906
   26      H       2.6578467876     1.8637284429    -1.6438697534
   27      H       4.3392459114     3.7304623622    -1.7763826739
   28      H       4.2361227000     3.5568196758     0.0021773423
   29      H       6.5156088265     2.7551187029    -1.8169943969
   30      H       6.5243460462     2.7424284940    -0.0254960469
   31      H       6.4758310757     0.2513033075    -1.3034767543
   32      O      -1.8876505451     1.0542550358    -1.1481960691
   33      C      -4.8512544104     2.7957037081     2.5733396776
   34      C      -5.8847450037    -0.9017993081     0.2190414846
   35      C      -6.7717011645    -1.4424561840    -0.9713945370
   36      C      -5.6859952635    -2.1508406068    -1.8628623010
   37      C      -4.3735316364    -1.8582738948    -1.0341735663
   38      O      -4.8333202340    -1.9306434894     0.3733962680
   39      H      -5.7267512279     1.0568149839    -0.8628122806
   40      H      -4.1347772063    -0.0080141810    -2.2748191289
   41      H      -3.9583210906     3.3905490776     2.2921040569
   42      H      -6.4223796507    -0.7429001505     1.1741836024
   43      H      -7.5207843596    -2.1588625760    -0.5978104381
   44      H      -7.2947050550    -0.6290788163    -1.4997100057
   45      H      -5.8643832509    -3.2359516408    -1.9280002129
   46      H      -5.6353652178    -1.7386323316    -2.8832480948
   47      H      -3.5363515601    -2.5615861946    -1.2033867913
   48      H      -4.5690514867     2.1025401468     3.3918997843
   49      H      -5.6533782385     3.4728570714     2.9199214233
   50      H       4.8668472476    -2.6132401104     3.6879242627
   51      H       5.9800420736    -3.0224123523     2.3184926683
   52      H       4.1964601662    -3.1761336412     2.1052183650
   53      H       0.9137717212    -2.0187341053    -0.8376218322
   54      H      -0.0327512125    -0.8758443702    -1.8772204586
   55      H      -0.3054044791    -1.4049283108     1.1383680868
   56      H      -0.4785270267     0.3138822813     0.5838821293
 ----------------------------------------------------------------

    9   -1510.2805083793      7.58E-09 Convergence criterion met
 Total energy in the final basis set = -1510.28050838
 Final energy is   -1510.28050837935
 **  OPTIMIZATION CONVERGED  **

                    Orbital Energies (a.u.)
 --------------------------------------------------------------

 Alpha MOs
 -- Occupied --
-18.942 -18.936 -18.928 -18.920 -18.889 -18.883 -18.880 -18.877
-18.864 -18.863 -10.105 -10.100 -10.095 -10.089 -10.069 -10.068
-10.065 -10.063 -10.059 -10.053 -10.052 -10.052 -10.041 -10.036
-10.036 -10.030 -10.022 -10.021 -10.016 -10.015  -1.018  -1.014
 -1.004  -0.998  -0.971  -0.964  -0.942  -0.938  -0.929  -0.924
 -0.764  -0.758  -0.725  -0.721  -0.712  -0.703  -0.688  -0.667
 -0.652  -0.615  -0.595  -0.580  -0.547  -0.540  -0.538  -0.532
 -0.513  -0.505  -0.483  -0.476  -0.462  -0.454  -0.450  -0.445
 -0.435  -0.429  -0.426  -0.416  -0.410  -0.403  -0.399  -0.398
 -0.387  -0.381  -0.376  -0.362  -0.362  -0.356  -0.348  -0.347
 -0.342  -0.337  -0.333  -0.331  -0.327  -0.325  -0.319  -0.312
 -0.307  -0.305  -0.302  -0.301  -0.294  -0.281  -0.279  -0.274
 -0.272  -0.260  -0.253  -0.244  -0.241  -0.234  -0.228  -0.187
 -0.182  -0.167  -0.162  -0.159  -0.153  -0.148  -0.143  -0.142
 -0.138

          Ground-State Mulliken Net Atomic Charges

     Atom                 Charge (a.u.)
  ----------------------------------------
      1 O                    -0.208699
      2 C                     0.212392
      3 C                    -0.078573
      4 C                    -0.080814
      5 C                     0.212780
      6 O                    -0.168598
      7 C                    -0.051337
      8 C                    -0.050389
      9 O                    -0.166960
     10 C                     0.211881
     11 C                    -0.075965
     12 C                    -0.081517
     13 C                     0.212007
     14 O                    -0.216343
     15 O                    -0.168836
     16 O                    -0.170700
     17 O                    -0.213690
     18 C                    -0.127763
     19 C                     0.022368
     20 C                    -0.145470
     21 C                    -0.142702
     22 C                     0.023186
     23 O                    -0.191226
     24 H                     0.086199
     25 H                     0.083380
     26 H                     0.094480
     27 H                     0.077660
     28 H                     0.072373
     29 H                     0.077301
     30 H                     0.072445
     31 H                     0.088150
     32 O                    -0.220757
     33 C                    -0.128468
     34 C                     0.025548
     35 C                    -0.143601
     36 C                    -0.144238
     37 C                     0.025555
     38 O                    -0.187207
     39 H                     0.087164
     40 H                     0.083502
     41 H                     0.091107
     42 H                     0.083692
     43 H                     0.078360
     44 H                     0.074075
     45 H                     0.078247
     46 H                     0.073481
     47 H                     0.089881
     48 H                     0.090596
     49 H                     0.091762
     50 H                     0.086836
     51 H                     0.087413
     52 H                     0.092055
     53 H                     0.094241
     54 H                     0.092045
     55 H                     0.093759
     56 H                     0.097936
  ----------------------------------------
  Sum of atomic charges =     0.000000

                    Cartesian Multipole Moments
 -----------------------------------------------------------------
    Charge (ESU x 10^10)
                 0.0000
    Dipole Moment (Debye)
         X      -2.6752      Y       1.8427      Z       0.9164
       Tot       3.3752
    Quadrupole Moments (Debye-Ang)
        XX    -144.6527     XY       5.9154     YY    -156.1868
        XZ       9.9333     YZ       4.9084     ZZ    -156.5573

 Total job time:  67.38s(wall), 3200.03s(cpu)
        *  Thank you very much for using Q-Chem.  Have a nice day.  *
