 Q-Chem 5.0, Q-Chem, Inc., Pleasanton, CA (2017)
 Q-Chem 5.0.1 for Intel X86 EM64T Linux

User input:
--------------------------------------------------------------
$molecule
0  1
O 3.0391441076 -0.9264530711 1.3195443682
C 4.256988929 -1.0467038877 1.0559612337
C 5.0236531668 -0.4555351555 -0.1738944151
C 4.0570625532 0.1645894667 -1.2651598603
C 2.5327105211 -0.1236509502 -0.9971587861
O 1.9152350996 1.0446017283 -0.4367107439
C 0.5305543971 0.7364201302 -0.0165794273
C -0.4890084089 0.7896458909 -1.2277440615
O -1.5512547131 -0.2402232328 -1.1167933087
C -2.4469147528 0.0850494589 -0.0525124333
C -3.5355028956 -1.0452495451 0.0917073044
C -4.9475521567 -0.4429552074 0.4837445023
C -4.9019225518 1.0115847171 1.0755464889
O -5.3481748392 2.0579244173 0.5584578065
O 5.1886122329 -1.7463572427 1.8824358014
O -4.4305848798 0.9122304749 2.4276028939
O -2.3796847687 1.1486873191 0.6045907457
C -4.3137772511 2.2633086602 3.0174877173
C -3.8768565483 -1.632177301 -1.3412492169
C -4.9070225571 -2.8241345398 -1.2108192788
C -6.2602067147 -2.0481921595 -0.9946974029
C -5.7313370955 -0.5666704164 -0.8900884722
O -4.6725146562 -0.5251848823 -1.9274914765
H -3.1876980728 -1.8085654334 0.8119308436
H -5.4151096824 -1.081900893 1.2546318889
H -2.983756945 -1.8391427481 -1.9607922655
H -4.9234731986 -3.4229021386 -2.1349672881
H -4.6618617006 -3.4880365675 -0.3660296676
H -6.9269380818 -2.1564920124 -1.8652166088
H -6.8006552125 -2.3711110304 -0.0907103353
H -6.4769851081 0.2334627598 -1.0632304861
O 1.9167858029 -1.1704071475 -1.2949790527
C 4.4969148948 -2.292752751 3.0738238186
C 5.8483906007 0.8360368889 0.2568595232
C 6.8329946029 1.2187236847 -0.9185877107
C 5.8381601593 1.8705680779 -1.949375966
C 4.462013643 1.6978194477 -1.1931949708
O 4.8259897258 1.9048148083 0.2281411691
H 5.6825059379 -1.23606211 -0.5944367866
H 4.2950226191 -0.2599228613 -2.2569978552
H 3.7149931956 -3.026123508 2.7887381329
H 6.3134532747 0.7635178818 1.2593026468
H 7.5881146934 1.9410358976 -0.569417524
H 7.3506705936 0.3355378394 -1.3260066306
H 6.0603069436 2.9385737925 -2.10339666
H 5.8415890662 1.363312984 -2.9272742298
H 3.6605011295 2.3991243858 -1.4934212453
H 4.0244689724 -1.4894598999 3.6750432921
H 5.2764104771 -2.7970328926 3.6738771771
H -4.0504811098 2.11431141 4.0808206389
H -5.265911428 2.827514114 2.942877875
H -3.5148555448 2.8475792467 2.5164958708
H -0.9365471101 1.8027150301 -1.3092012017
H 0.0408110127 0.5461052746 -2.1702264579
H 0.2630277537 1.4974496209 0.7423749149
H 0.4852398585 -0.2754007627 0.4413598865
$end

$rem
JOBTYPE                   OPT
METHOD                    B3LYP
DFT_D                     d3_op
BASIS                     STO-3G
GEOM_OPT_MAX_CYCLES       100
GEOM_OPT_TOL_GRADIENT     300
GEOM_OPT_TOL_DISPLACEMENT 1200
GEOM_OPT_TOL_ENERGY       100
SYMMETRY                  False
THRESH                    12
SCF_CONVERGENCE           8
MAX_SUB_FILE_NUM          128
MEM_STATIC                400
MEM_TOTAL                 4000
$end
--------------------------------------------------------------

   16   -1510.2813705607      4.77E-09 Convergence criterion met
 Total energy in the final basis set = -1510.28137056
   13   -1510.2829082912      6.90E-09 Convergence criterion met
 Total energy in the final basis set = -1510.28290829
   14   -1510.2839970690      2.03E-09 Convergence criterion met
 Total energy in the final basis set = -1510.28399707
   13   -1510.2847863794      6.59E-09 Convergence criterion met
 Total energy in the final basis set = -1510.28478638
   13   -1510.2854159408      3.41E-09 Convergence criterion met
 Total energy in the final basis set = -1510.28541594
   13   -1510.2857864650      3.59E-09 Convergence criterion met
 Total energy in the final basis set = -1510.28578646
   13   -1510.2863253817      3.40E-09 Convergence criterion met
 Total energy in the final basis set = -1510.28632538
   13   -1510.2868489071      4.51E-09 Convergence criterion met
   11   -1510.2882611796      6.66E-09 Convergence criterion met
 Total energy in the final basis set = -1510.28826118
   11   -1510.2882763642      9.39E-09 Convergence criterion met
 Total energy in the final basis set = -1510.28827636
   12   -1510.2882327793      9.00E-09 Convergence criterion met
 Total energy in the final basis set = -1510.28823278
   12   -1510.2882879985      9.81E-09 Convergence criterion met
 Total energy in the final basis set = -1510.28828800
   10   -1510.2882893246      5.06E-09 Convergence criterion met
 Total energy in the final basis set = -1510.28828932
    9   -1510.2882903655      6.44E-09 Convergence criterion met
 Total energy in the final basis set = -1510.28829037

             Standard Nuclear Orientation (Angstroms)
    I     Atom           X                Y                Z
 ----------------------------------------------------------------
    1      O      -3.0262111647    -0.3198943129     2.0665950656
    2      C      -4.1149567163    -0.7328822615     1.6074930977
    3      C      -4.9497406852    -0.1111799729     0.4363917822
    4      C      -4.1691368213     1.0177614687    -0.3544213631
    5      C      -2.7377353510     1.3380340295     0.2142470473
    6      O      -1.8061395223     0.3729983230    -0.2968942950
    7      C      -0.4699126333     0.5832699072     0.3045263612
    8      C       0.2954741768     1.7894884928    -0.3636961492
    9      O       1.6442958528     1.9597159190     0.2320751192
   10      C       2.5441763783     0.9702969680    -0.2764986301
   11      C       3.9398784404     1.1717349792     0.3978140898
   12      C       4.7234781281    -0.1918989408     0.5947670758
   13      C       3.9137486059    -1.4623702194     0.1456643285
   14      O       4.2112205280    -2.2685953580    -0.7599886859
   15      O      -4.8049553321    -1.8823426494     2.1002489923
   16      O       2.7803221418    -1.6008151998     1.0160196448
   17      O       2.2373849513     0.1128020417    -1.1351879916
   18      C       1.9383305917    -2.7313738710     0.5650518907
   19      C       4.9312118243     1.9365761692    -0.5859120304
   20      C       6.2018836372     2.3897553377     0.2378455177
   21      C       6.9727522492     1.0251382739     0.3860428598
   22      C       5.9805976654     0.0370801306    -0.3410846761
   23      O       5.4388519553     0.8526511191    -1.4544345321
   24      H       3.8010900023     1.7174244245     1.3473578975
   25      H       5.0153347362    -0.3208012768     1.6529375222
   26      H       4.4538101624     2.7316131049    -1.1912758054
   27      H       6.7882919853     3.1266175277    -0.3337727011
   28      H       5.9280713767     2.8330922700     1.2085874638
   29      H       7.9419671528     1.0517189370    -0.1367523971
   30      H       7.1454480520     0.7449283151     1.4374478001
   31      H       6.4245017512    -0.8988122354    -0.7323813569
   32      O      -2.4236396084     2.3249996353     0.9148841676
   33      C      -4.0339552974    -2.5069739296     3.2005230365
   34      C      -5.2275886260    -1.1619815467    -0.7234099750
   35      C      -6.3645601852    -0.5816702381    -1.6536872651
   36      C      -5.5741323248     0.5254247383    -2.4450331317
   37      C      -4.1333527665     0.3818133804    -1.8115994785
   38      O      -4.0097536394    -1.0724679248    -1.5590313432
   39      H      -5.8979333152     0.2718456772     0.8570964801
   40      H      -4.7416246798     1.9617217539    -0.3420441041
   41      H      -3.9383806192    -1.8249916756     4.0700600669
   42      H      -5.3856543518    -2.1973488552    -0.3642582274
   43      H      -6.7487002364    -1.3647906976    -2.3267400200
   44      H      -7.2056308688    -0.1716806497    -1.0721626421
   45      H      -5.5442112914     0.3074838171    -3.5244232592
   46      H      -5.9911192542     1.5343945108    -2.2981920141
   47      H      -3.2993386910     0.7356446965    -2.4474235532
   48      H      -3.0172950071    -2.8008867089     2.8687737144
   49      H      -4.6027640964    -3.4074130978     3.4968803153
   50      H       1.1122300396    -2.8104762598     1.2955808970
   51      H       2.5064169849    -3.6835661490     0.5403944088
   52      H       1.5235744228    -2.5422291050    -0.4466855128
   53      H       0.3630287414     1.6237191280    -1.4599932661
   54      H      -0.2475436990     2.7327941642    -0.1558849882
   55      H       0.0919170847    -0.3538478259     0.1196189473
   56      H      -0.5534867236     0.7583771822     1.3980663543
 ----------------------------------------------------------------

    9   -1510.2882896100      4.26E-09 Convergence criterion met
 Total energy in the final basis set = -1510.28828961
 Final energy is   -1510.28828961003
 **  OPTIMIZATION CONVERGED  **

                    Orbital Energies (a.u.)
 --------------------------------------------------------------

 Alpha MOs
 -- Occupied --
-18.944 -18.934 -18.924 -18.923 -18.889 -18.887 -18.885 -18.874
-18.867 -18.862 -10.108 -10.098 -10.093 -10.092 -10.071 -10.065
-10.061 -10.061 -10.059 -10.059 -10.056 -10.054 -10.042 -10.036
-10.035 -10.033 -10.021 -10.020 -10.019 -10.017  -1.021  -1.013
 -1.002  -1.000  -0.971  -0.967  -0.945  -0.936  -0.927  -0.927
 -0.764  -0.760  -0.725  -0.721  -0.712  -0.704  -0.689  -0.668
 -0.656  -0.615  -0.596  -0.580  -0.546  -0.542  -0.538  -0.535
 -0.513  -0.507  -0.484  -0.473  -0.465  -0.456  -0.450  -0.444
 -0.434  -0.432  -0.428  -0.418  -0.410  -0.407  -0.404  -0.391
 -0.388  -0.380  -0.378  -0.363  -0.360  -0.354  -0.351  -0.346
 -0.342  -0.337  -0.333  -0.330  -0.328  -0.325  -0.323  -0.315
 -0.308  -0.306  -0.301  -0.300  -0.295  -0.282  -0.279  -0.276
 -0.270  -0.262  -0.255  -0.247  -0.240  -0.235  -0.231  -0.188
 -0.183  -0.168  -0.162  -0.159  -0.153  -0.146  -0.145  -0.142
 -0.141

          Ground-State Mulliken Net Atomic Charges

     Atom                 Charge (a.u.)
  ----------------------------------------
      1 O                    -0.208081
      2 C                     0.215074
      3 C                    -0.078030
      4 C                    -0.081839
      5 C                     0.213810
      6 O                    -0.170802
      7 C                    -0.050837
      8 C                    -0.053982
      9 O                    -0.169676
     10 C                     0.211743
     11 C                    -0.078709
     12 C                    -0.079810
     13 C                     0.214973
     14 O                    -0.210240
     15 O                    -0.168941
     16 O                    -0.177388
     17 O                    -0.213273
     18 C                    -0.129931
     19 C                     0.025681
     20 C                    -0.143802
     21 C                    -0.143960
     22 C                     0.024713
     23 O                    -0.187408
     24 H                     0.087365
     25 H                     0.083699
     26 H                     0.082697
     27 H                     0.077893
     28 H                     0.073839
     29 H                     0.077997
     30 H                     0.072972
     31 H                     0.090505
     32 O                    -0.221006
     33 C                    -0.127805
     34 C                     0.024708
     35 C                    -0.143825
     36 C                    -0.144215
     37 C                     0.026594
     38 O                    -0.186986
     39 H                     0.086554
     40 H                     0.083151
     41 H                     0.090474
     42 H                     0.088045
     43 H                     0.078356
     44 H                     0.073373
     45 H                     0.078256
     46 H                     0.073496
     47 H                     0.086234
     48 H                     0.091611
     49 H                     0.092474
     50 H                     0.086963
     51 H                     0.088220
     52 H                     0.093102
     53 H                     0.090506
     54 H                     0.096787
     55 H                     0.093029
     56 H                     0.095652
  ----------------------------------------
  Sum of atomic charges =     0.000000

                    Cartesian Multipole Moments
 -----------------------------------------------------------------
    Charge (ESU x 10^10)
                 0.0000
    Dipole Moment (Debye)
         X      -2.2908      Y       0.2457      Z       2.2077
       Tot       3.1909
    Quadrupole Moments (Debye-Ang)
        XX    -138.2596     XY       8.4130     YY    -157.7864
        XZ      11.0102     YZ     -11.1459     ZZ    -160.1486

 Total job time:  97.05s(wall), 4618.13s(cpu)
        *  Thank you very much for using Q-Chem.  Have a nice day.  *
