 Q-Chem 5.0, Q-Chem, Inc., Pleasanton, CA (2017)
 Q-Chem 5.0.1 for Intel X86 EM64T Linux

User input:
--------------------------------------------------------------
$molecule
0  1
O -3.94934 -3.66094 2.70899
C -3.26408 -4.56952 2.26188
C -3.36658 -6.02376 2.66595
C -4.25321 -6.35558 3.87741
C -5.07869 -5.21985 4.44025
O -6.37409 -5.33686 4.02349
C -7.18312 -4.2098 4.37627
C -7.65605 -4.33386 5.82095
O -7.69215 -3.03699 6.43717
C -8.66795 -2.20695 5.99221
C -8.61991 -0.84281 6.63835
C -9.99095 -0.20718 6.91129
C -11.17996 -1.14398 6.83806
O -11.88041 -1.47552 7.78358
O -2.39613 -4.29674 1.25243
O -11.56286 -1.53737 5.59515
O -9.26829 -2.39787 4.94339
C -12.64715 -2.34836 5.33128
C -7.9926 -0.77973 8.05208
C -7.47637 0.63314 8.32093
C -8.77984 1.38759 8.4701
C -9.77897 0.22919 8.37632
O -9.08908 -0.86638 8.92675
H -8.02056 -0.20807 5.94715
H -10.21676 0.65813 6.24973
H -7.17087 -1.50606 8.22674
H -6.96593 0.61035 9.31076
H -6.77644 1.03964 7.55953
H -8.80433 1.84817 9.48276
H -8.97456 2.15987 7.69469
H -10.7313 0.50919 8.87833
O -4.62606 -4.31775 5.13755
C -2.19681 -3.04159 0.71685
C -3.98818 -6.90252 1.56925
C -3.52067 -8.34581 1.73863
C -4.2873 -8.74368 2.98113
C -5.11215 -7.47244 3.21929
O -5.34582 -6.97623 1.92345
H -2.31862 -6.33986 2.87086
H -3.69523 -6.79132 4.73558
H -1.83014 -2.34489 1.50078
H -3.76865 -6.54419 0.53967
H -3.91713 -8.9266 0.87508
H -2.4189 -8.47882 1.79703
H -4.95701 -9.59356 2.72074
H -3.66347 -9.00948 3.86167
H -6.01296 -7.72969 3.81898
H -3.1443 -2.65529 0.28388
H -1.4365 -3.10618 -0.08828
H -12.72308 -2.50868 4.23629
H -13.5824 -1.86624 5.68805
H -12.51748 -3.33324 5.82892
H -8.59862 -4.91489 5.92702
H -6.88148 -4.88364 6.39496
H -8.05876 -4.14681 3.69788
H -6.60752 -3.26768 4.21278
$end

$opt
CONSTRAINT
tors           1           2           3           4      -9.526
tors           3           4           5           6    +101.895
tors           4           5           6           7    -172.660
tors           5           6           7           8     -81.770
tors           6           7           8           9    +143.934
tors           7           8           9          10     +70.455
tors           8           9          10          11    -177.747
tors           9          10          11          12    -143.713
tors          11          12          13          14    +112.784
ENDCONSTRAINT
$end

$rem
JOBTYPE                   OPT
METHOD                    B3LYP
DFT_D                     d3_op
BASIS                     STO-3G
GEOM_OPT_MAX_CYCLES       100
GEOM_OPT_TOL_GRADIENT     300
GEOM_OPT_TOL_DISPLACEMENT 1200
GEOM_OPT_TOL_ENERGY       100
SYMMETRY                  False
THRESH                    12
SCF_CONVERGENCE           8
MAX_SUB_FILE_NUM          128
MEM_STATIC                400
MEM_TOTAL                 4000
$end
--------------------------------------------------------------

   15   -1510.1438833460      6.57E-09 Convergence criterion met
 Total energy in the final basis set = -1510.14388335
   14   -1510.2141080350      6.00E-09 Convergence criterion met
 Total energy in the final basis set = -1510.21410803
   14   -1510.2515422291      5.42E-09 Convergence criterion met
 Total energy in the final basis set = -1510.25154223
   14   -1510.2677585494      5.52E-09 Convergence criterion met
 Total energy in the final basis set = -1510.26775855
   13   -1510.2732610256      8.38E-09 Convergence criterion met
 Total energy in the final basis set = -1510.27326103
    2   -1510.2732610256      9.22E-09 Convergence criterion met
 Total energy in the final basis set = -1510.27326103
   13   -1510.2755081163      4.49E-09 Convergence criterion met
 Total energy in the final basis set = -1510.27550812
   13   -1510.2766543734      2.66E-09 Convergence criterion met
   11   -1510.2815257179      9.06E-09 Convergence criterion met
 Total energy in the final basis set = -1510.28152572
   11   -1510.2815531426      6.50E-09 Convergence criterion met
 Total energy in the final basis set = -1510.28155314
   11   -1510.2815685010      2.67E-09 Convergence criterion met
 Total energy in the final basis set = -1510.28156850
   11   -1510.2815786969      2.01E-09 Convergence criterion met
 Total energy in the final basis set = -1510.28157870
    9   -1510.2815836852      5.59E-09 Convergence criterion met
 Total energy in the final basis set = -1510.28158369
   10   -1510.2815854428      6.23E-09 Convergence criterion met
 Total energy in the final basis set = -1510.28158544

             Standard Nuclear Orientation (Angstroms)
    I     Atom           X                Y                Z
 ----------------------------------------------------------------
    1      O       3.0391441076    -0.9264530711     1.3195443682
    2      C       4.2569889290    -1.0467038877     1.0559612337
    3      C       5.0236531668    -0.4555351555    -0.1738944151
    4      C       4.0570625532     0.1645894667    -1.2651598603
    5      C       2.5327105211    -0.1236509502    -0.9971587861
    6      O       1.9152350996     1.0446017283    -0.4367107439
    7      C       0.5305543971     0.7364201302    -0.0165794273
    8      C      -0.4890084089     0.7896458909    -1.2277440615
    9      O      -1.5512547131    -0.2402232328    -1.1167933087
   10      C      -2.4469147528     0.0850494589    -0.0525124333
   11      C      -3.5355028956    -1.0452495451     0.0917073044
   12      C      -4.9475521567    -0.4429552074     0.4837445023
   13      C      -4.9019225518     1.0115847171     1.0755464889
   14      O      -5.3481748392     2.0579244173     0.5584578065
   15      O       5.1886122329    -1.7463572427     1.8824358014
   16      O      -4.4305848798     0.9122304749     2.4276028939
   17      O      -2.3796847687     1.1486873191     0.6045907457
   18      C      -4.3137772511     2.2633086602     3.0174877173
   19      C      -3.8768565483    -1.6321773010    -1.3412492169
   20      C      -4.9070225571    -2.8241345398    -1.2108192788
   21      C      -6.2602067147    -2.0481921595    -0.9946974029
   22      C      -5.7313370955    -0.5666704164    -0.8900884722
   23      O      -4.6725146562    -0.5251848823    -1.9274914765
   24      H      -3.1876980728    -1.8085654334     0.8119308436
   25      H      -5.4151096824    -1.0819008930     1.2546318889
   26      H      -2.9837569450    -1.8391427481    -1.9607922655
   27      H      -4.9234731986    -3.4229021386    -2.1349672881
   28      H      -4.6618617006    -3.4880365675    -0.3660296676
   29      H      -6.9269380818    -2.1564920124    -1.8652166088
   30      H      -6.8006552125    -2.3711110304    -0.0907103353
   31      H      -6.4769851081     0.2334627598    -1.0632304861
   32      O       1.9167858029    -1.1704071475    -1.2949790527
   33      C       4.4969148948    -2.2927527510     3.0738238186
   34      C       5.8483906007     0.8360368889     0.2568595232
   35      C       6.8329946029     1.2187236847    -0.9185877107
   36      C       5.8381601593     1.8705680779    -1.9493759660
   37      C       4.4620136430     1.6978194477    -1.1931949708
   38      O       4.8259897258     1.9048148083     0.2281411691
   39      H       5.6825059379    -1.2360621100    -0.5944367866
   40      H       4.2950226191    -0.2599228613    -2.2569978552
   41      H       3.7149931956    -3.0261235080     2.7887381329
   42      H       6.3134532747     0.7635178818     1.2593026468
   43      H       7.5881146934     1.9410358976    -0.5694175240
   44      H       7.3506705936     0.3355378394    -1.3260066306
   45      H       6.0603069436     2.9385737925    -2.1033966600
   46      H       5.8415890662     1.3633129840    -2.9272742298
   47      H       3.6605011295     2.3991243858    -1.4934212453
   48      H       4.0244689724    -1.4894598999     3.6750432921
   49      H       5.2764104771    -2.7970328926     3.6738771771
   50      H      -4.0504811098     2.1143114100     4.0808206389
   51      H      -5.2659114280     2.8275141140     2.9428778750
   52      H      -3.5148555448     2.8475792467     2.5164958708
   53      H      -0.9365471101     1.8027150301    -1.3092012017
   54      H       0.0408110127     0.5461052746    -2.1702264579
   55      H       0.2630277537     1.4974496209     0.7423749149
   56      H       0.4852398585    -0.2754007627     0.4413598865
 ----------------------------------------------------------------

    9   -1510.2815859809      7.45E-09 Convergence criterion met
 Total energy in the final basis set = -1510.28158598
 Final energy is   -1510.28158598088
 **  OPTIMIZATION CONVERGED  **

                    Orbital Energies (a.u.)
 --------------------------------------------------------------

 Alpha MOs
 -- Occupied --
-18.943 -18.938 -18.925 -18.918 -18.889 -18.885 -18.880 -18.877
-18.862 -18.860 -10.106 -10.101 -10.094 -10.088 -10.070 -10.068
-10.064 -10.063 -10.059 -10.053 -10.052 -10.051 -10.042 -10.036
-10.035 -10.029 -10.022 -10.020 -10.016 -10.015  -1.020  -1.015
 -1.002  -0.995  -0.971  -0.964  -0.944  -0.938  -0.928  -0.922
 -0.764  -0.758  -0.725  -0.721  -0.712  -0.703  -0.688  -0.667
 -0.651  -0.615  -0.595  -0.580  -0.547  -0.540  -0.538  -0.532
 -0.514  -0.504  -0.483  -0.476  -0.463  -0.452  -0.449  -0.446
 -0.435  -0.429  -0.426  -0.417  -0.410  -0.402  -0.398  -0.396
 -0.387  -0.378  -0.377  -0.364  -0.361  -0.356  -0.348  -0.345
 -0.341  -0.335  -0.332  -0.330  -0.327  -0.325  -0.319  -0.313
 -0.308  -0.305  -0.302  -0.301  -0.295  -0.281  -0.278  -0.273
 -0.271  -0.261  -0.255  -0.243  -0.240  -0.234  -0.228  -0.188
 -0.184  -0.165  -0.161  -0.160  -0.152  -0.148  -0.142  -0.141
 -0.138

          Ground-State Mulliken Net Atomic Charges

     Atom                 Charge (a.u.)
  ----------------------------------------
      1 O                    -0.208205
      2 C                     0.214015
      3 C                    -0.078111
      4 C                    -0.081463
      5 C                     0.213648
      6 O                    -0.171296
      7 C                    -0.050379
      8 C                    -0.049273
      9 O                    -0.165413
     10 C                     0.213187
     11 C                    -0.075706
     12 C                    -0.081856
     13 C                     0.213395
     14 O                    -0.217965
     15 O                    -0.168864
     16 O                    -0.172793
     17 O                    -0.213396
     18 C                    -0.127921
     19 C                     0.022494
     20 C                    -0.145488
     21 C                    -0.142464
     22 C                     0.022549
     23 O                    -0.192100
     24 H                     0.086792
     25 H                     0.083112
     26 H                     0.092959
     27 H                     0.077651
     28 H                     0.072583
     29 H                     0.077234
     30 H                     0.072536
     31 H                     0.088766
     32 O                    -0.221265
     33 C                    -0.128271
     34 C                     0.025317
     35 C                    -0.143931
     36 C                    -0.143918
     37 C                     0.025508
     38 O                    -0.188357
     39 H                     0.087558
     40 H                     0.082819
     41 H                     0.090964
     42 H                     0.084675
     43 H                     0.078402
     44 H                     0.073911
     45 H                     0.078070
     46 H                     0.073373
     47 H                     0.090095
     48 H                     0.091464
     49 H                     0.092092
     50 H                     0.086003
     51 H                     0.087011
     52 H                     0.091470
     53 H                     0.091720
     54 H                     0.093619
     55 H                     0.096112
     56 H                     0.097331
  ----------------------------------------
  Sum of atomic charges =    -0.000000

                    Cartesian Multipole Moments
 -----------------------------------------------------------------
    Charge (ESU x 10^10)
                 0.0000
    Dipole Moment (Debye)
         X       2.6961      Y      -2.0729      Z       0.9633
       Tot       3.5347
    Quadrupole Moments (Debye-Ang)
        XX    -144.2129     XY       7.1680     YY    -159.3074
        XZ      -7.2423     YZ      -4.1977     ZZ    -153.4397

 Total job time:  67.66s(wall), 3213.50s(cpu)
        *  Thank you very much for using Q-Chem.  Have a nice day.  *
