 Q-Chem 5.0, Q-Chem, Inc., Pleasanton, CA (2017)
 Q-Chem 5.0.1 for Intel X86 EM64T Linux

User input:
--------------------------------------------------------------
$molecule
0  1
O -3.1022637857 0.9808960709 1.3801399999
C -4.3129402244 1.0531897085 1.0710353259
C -5.0225014177 0.4023999818 -0.1615028992
C -4.0168886923 -0.0574768218 -1.2973888228
C -2.5050810385 0.2271942876 -0.9592717983
O -1.937257948 -0.9285685636 -0.3264265393
C -0.5237961648 -0.6761234805 0.0288345734
C 0.4397611779 -0.7452903704 -1.226901132
O 1.5426345179 0.2439608239 -1.1515292048
C 2.4512203059 -0.1011479082 -0.1047788675
C 3.5419443844 1.0228857473 0.0368681882
C 4.9301494427 0.4355075728 0.5251823393
C 4.8535217549 -1.0253844316 1.0988658685
O 5.2379183858 -2.0797713472 0.5496769255
O -5.2979756363 1.7372056177 1.8490763979
O 4.4037180289 -0.9346315137 2.4592053254
O 2.3780700004 -1.1622611721 0.5559048032
C 4.2367245551 -2.292762737 3.0210503051
C 3.9508116937 1.5588737479 -1.3982233267
C 4.9433022665 2.7798536604 -1.2514007158
C 6.2935326262 2.0458647536 -0.9095459994
C 5.7959902464 0.5531100369 -0.8000321365
O 4.8049851586 0.4542147644 -1.897794331
H 3.1630871002 1.8166835759 0.7067591448
H 5.3433422012 1.0771194086 1.3238927456
H 3.089018005 1.7215581366 -2.0732209677
H 5.0116688184 3.3372049023 -2.1989196778
H 4.6258229104 3.4742499322 -0.4567886206
H 7.024450836 2.1477909023 -1.727622691
H 6.7530740574 2.4066472652 0.0243860287
H 6.5723950692 -0.2289562107 -0.9078897591
O -1.8625547657 1.2593297997 -1.2515370124
C -4.669500408 2.3317939052 3.0522901962
C -5.7137859548 -0.9852002633 0.2111070951
C -6.7363033035 -1.3426066624 -0.9394766441
C -5.7539102169 -1.7771893716 -2.0895398303
C -4.3524602395 -1.6062668803 -1.3783250406
O -4.6287506466 -1.9722125031 0.0307763784
H -5.7707207296 1.1183185754 -0.5460033756
H -4.2460210529 0.4611035819 -2.2453706586
H -3.9007896678 3.0836433974 2.7798568901
H -6.1222362026 -1.0316864809 1.2394438472
H -7.3893144451 -2.1738405189 -0.6288833634
H -7.3664251239 -0.4825700396 -1.2168457753
H -5.9130380837 -2.8272197215 -2.3818169469
H -5.8413135127 -1.1422177028 -2.9854594071
H -3.5353763463 -2.2314068902 -1.7858195583
H -4.1950734834 1.5576496196 3.6892169843
H -5.4866465455 2.8234636805 3.6113741682
H 3.9844263538 -2.1565882662 4.0887804902
H 5.1655001606 -2.8922445342 2.9293867345
H 3.4134415169 -2.8345730295 2.511576334
H 0.8453242345 -1.7729811198 -1.3411778784
H -0.1208050919 -0.4705737571 -2.1424092394
H -0.2522825754 -1.4571212529 0.7654246829
H -0.4213333681 0.3262554508 0.499373327
$end

$rem
JOBTYPE                   OPT
METHOD                    B3LYP
DFT_D                     d3_op
BASIS                     STO-3G
GEOM_OPT_MAX_CYCLES       100
GEOM_OPT_TOL_GRADIENT     300
GEOM_OPT_TOL_DISPLACEMENT 1200
GEOM_OPT_TOL_ENERGY       100
SYMMETRY                  False
THRESH                    12
SCF_CONVERGENCE           8
MAX_SUB_FILE_NUM          128
MEM_STATIC                400
MEM_TOTAL                 4000
$end
--------------------------------------------------------------

   16   -1510.2829218771      5.45E-09 Convergence criterion met
 Total energy in the final basis set = -1510.28292188
   13   -1510.2839941811      8.56E-09 Convergence criterion met
 Total energy in the final basis set = -1510.28399418
   13   -1510.2848161357      8.27E-09 Convergence criterion met
 Total energy in the final basis set = -1510.28481614
   13   -1510.2853938053      4.18E-09 Convergence criterion met
 Total energy in the final basis set = -1510.28539381
   13   -1510.2859423113      5.10E-09 Convergence criterion met
 Total energy in the final basis set = -1510.28594231
   13   -1510.2863108893      6.98E-09 Convergence criterion met
 Total energy in the final basis set = -1510.28631089
   13   -1510.2866759420      6.78E-09 Convergence criterion met
 Total energy in the final basis set = -1510.28667594
   13   -1510.2869633046      3.87E-09 Convergence criterion met
   13   -1510.2882725304      5.45E-09 Convergence criterion met
 Total energy in the final basis set = -1510.28827253
   13   -1510.2882923003      1.59E-09 Convergence criterion met
 Total energy in the final basis set = -1510.28829230
   12   -1510.2883263994      3.72E-09 Convergence criterion met
 Total energy in the final basis set = -1510.28832640
   10   -1510.2883321658      9.40E-09 Convergence criterion met
 Total energy in the final basis set = -1510.28833217
   10   -1510.2883432385      5.60E-09 Convergence criterion met
 Total energy in the final basis set = -1510.28834324
    9   -1510.2883448457      9.17E-09 Convergence criterion met
 Total energy in the final basis set = -1510.28834485

             Standard Nuclear Orientation (Angstroms)
    I     Atom           X                Y                Z
 ----------------------------------------------------------------
    1      O      -3.1154941521    -0.2812401366     2.0233339809
    2      C      -4.2724621680    -0.5649019543     1.6385064953
    3      C      -5.0412233865     0.0329158609     0.4123105870
    4      C      -4.1665466113     1.0415621757    -0.4422691871
    5      C      -2.7323461287     1.3093065608     0.1490677782
    6      O      -1.8248874459     0.3162615155    -0.3518953620
    7      C      -0.5060328723     0.4456549388     0.3086603827
    8      C       0.3204331662     1.6797043860    -0.2220500127
    9      O       1.6367982890     1.7572450232     0.4604344058
   10      C       2.5527996321     0.8216596815    -0.1114024853
   11      C       3.9096087414     0.9083070989     0.6603335745
   12      C       4.8351992416    -0.3475634781     0.3965116396
   13      C       4.1682081072    -1.4730473441    -0.4787395431
   14      O       4.5091889859    -1.8467576807    -1.6203470379
   15      O      -5.1147988659    -1.5227608454     2.2808467761
   16      O       3.1587626095    -2.1106723801     0.3206859315
   17      O       2.2906814762     0.0850206968    -1.0895612196
   18      C       2.4510105161    -3.1283259311    -0.4866246998
   19      C       4.8180686021     2.0716733731     0.0629326207
   20      C       6.0351043404     2.3099390977     1.0425501196
   21      C       6.9475383793     1.0714024932     0.7048056443
   22      C       6.0553069183     0.3229689646    -0.3597147739
   23      O       5.4319075933     1.4322246953    -1.1206966995
   24      H       3.7027014668     1.0631037016     1.7339631915
   25      H       5.1486187068    -0.8014981768     1.3539835452
   26      H       4.2595868915     2.9829943343    -0.2272791327
   27      H       6.5383304544     3.2612537659     0.8075898252
   28      H       5.7171244919     2.3293934583     2.0972298779
   29      H       7.9023598407     1.3863705973     0.2546422974
   30      H       7.1606623291     0.4454290855     1.5861733296
   31      H       6.5878021756    -0.3620931021    -1.0475331667
   32      O      -2.3984195067     2.2849108710     0.8569007732
   33      C      -4.4086842418    -2.1279248130     3.4346482107
   34      C      -5.3699007494    -1.0806517730    -0.6749086345
   35      C      -6.4411573199    -0.4923231171    -1.6756816636
   36      C      -5.5539444300     0.4881549063    -2.5286626611
   37      C      -4.1427926104     0.2939874705    -1.8455676152
   38      O      -4.1302412037    -1.1412162309    -1.4794433108
   39      H      -5.9673130708     0.5095380150     0.7826303489
   40      H      -4.6742055534     2.0194960852    -0.5151610418
   41      H      -4.1319923436    -1.3641773923     4.1897744596
   42      H      -5.6123636657    -2.0725634615    -0.2465430195
   43      H      -6.8699116457    -1.2949900444    -2.2964854844
   44      H      -7.2594663973     0.0229905369    -1.1479289693
   45      H      -5.5152822737     0.1812195053    -3.5860141262
   46      H      -5.9004336442     1.5325462373    -2.4756302743
   47      H      -3.2701306688     0.5367406711    -2.4816386432
   48      H      -3.4882475676    -2.6576168024     3.1147540841
   49      H      -5.1171151225    -2.8505926897     3.8795682765
   50      H       1.7049182823    -3.5905654870     0.1858370325
   51      H       3.1431633657    -3.9083405979    -0.8650115568
   52      H       1.9338138203    -2.6651536921    -1.3521667165
   53      H       0.4466907567     1.6018740518    -1.3226565397
   54      H      -0.2135022820     2.6152658147     0.0372033556
   55      H       0.0373132845    -0.4909680299     0.0705611758
   56      H      -0.6297434607     0.5329908674     1.4092890102
 ----------------------------------------------------------------

   10   -1510.2883458165      2.09E-09 Convergence criterion met
 Total energy in the final basis set = -1510.28834582
 Final energy is   -1510.28834581648
 **  OPTIMIZATION CONVERGED  **

                    Orbital Energies (a.u.)
 --------------------------------------------------------------

 Alpha MOs
 -- Occupied --
-18.945 -18.937 -18.924 -18.917 -18.889 -18.888 -18.884 -18.879
-18.862 -18.860 -10.109 -10.101 -10.094 -10.088 -10.071 -10.065
-10.062 -10.062 -10.060 -10.059 -10.053 -10.052 -10.042 -10.036
-10.035 -10.030 -10.022 -10.020 -10.018 -10.017  -1.022  -1.015
 -1.001  -0.995  -0.971  -0.967  -0.945  -0.938  -0.928  -0.922
 -0.765  -0.760  -0.725  -0.721  -0.713  -0.704  -0.690  -0.668
 -0.652  -0.615  -0.596  -0.580  -0.547  -0.542  -0.538  -0.534
 -0.514  -0.507  -0.485  -0.473  -0.464  -0.455  -0.450  -0.445
 -0.435  -0.432  -0.427  -0.418  -0.410  -0.404  -0.401  -0.391
 -0.389  -0.381  -0.378  -0.363  -0.360  -0.354  -0.350  -0.345
 -0.339  -0.337  -0.335  -0.330  -0.329  -0.325  -0.322  -0.315
 -0.309  -0.307  -0.301  -0.300  -0.297  -0.282  -0.277  -0.275
 -0.270  -0.263  -0.255  -0.243  -0.241  -0.235  -0.231  -0.189
 -0.185  -0.163  -0.162  -0.160  -0.155  -0.146  -0.142  -0.142
 -0.139

          Ground-State Mulliken Net Atomic Charges

     Atom                 Charge (a.u.)
  ----------------------------------------
      1 O                    -0.207763
      2 C                     0.215043
      3 C                    -0.078144
      4 C                    -0.081827
      5 C                     0.214523
      6 O                    -0.170049
      7 C                    -0.050320
      8 C                    -0.055102
      9 O                    -0.169794
     10 C                     0.213506
     11 C                    -0.078195
     12 C                    -0.080994
     13 C                     0.216030
     14 O                    -0.214552
     15 O                    -0.168788
     16 O                    -0.178715
     17 O                    -0.209608
     18 C                    -0.129208
     19 C                     0.025451
     20 C                    -0.143810
     21 C                    -0.143801
     22 C                     0.024590
     23 O                    -0.188853
     24 H                     0.087216
     25 H                     0.083098
     26 H                     0.083808
     27 H                     0.077893
     28 H                     0.073671
     29 H                     0.077801
     30 H                     0.072926
     31 H                     0.090185
     32 O                    -0.222159
     33 C                    -0.128038
     34 C                     0.025015
     35 C                    -0.143777
     36 C                    -0.144206
     37 C                     0.026503
     38 O                    -0.187375
     39 H                     0.086954
     40 H                     0.083111
     41 H                     0.091249
     42 H                     0.086829
     43 H                     0.078440
     44 H                     0.073603
     45 H                     0.078342
     46 H                     0.073621
     47 H                     0.087650
     48 H                     0.091487
     49 H                     0.092526
     50 H                     0.085628
     51 H                     0.086427
     52 H                     0.092562
     53 H                     0.091681
     54 H                     0.099930
     55 H                     0.092357
     56 H                     0.095422
  ----------------------------------------
  Sum of atomic charges =     0.000000

                    Cartesian Multipole Moments
 -----------------------------------------------------------------
    Charge (ESU x 10^10)
                 0.0000
    Dipole Moment (Debye)
         X      -2.6361      Y      -0.2118      Z       2.5000
       Tot       3.6392
    Quadrupole Moments (Debye-Ang)
        XX    -139.7304     XY       3.9543     YY    -157.4630
        XZ      12.5644     YZ      -7.9642     ZZ    -159.7869

 Total job time:  65.20s(wall), 3098.66s(cpu)
        *  Thank you very much for using Q-Chem.  Have a nice day.  *
