 Q-Chem 5.0, Q-Chem, Inc., Pleasanton, CA (2017)
 Q-Chem 5.0.1 for Intel X86 EM64T Linux

User input:
--------------------------------------------------------------
$molecule
0  1
O -3.94934 -3.66094 2.70899
C -3.26408 -4.56952 2.26188
C -3.36658 -6.02376 2.66595
C -4.10626 -6.33838 3.97658
C -4.81449 -5.18137 4.64577
O -6.11285 -5.1264 4.22545
C -6.84369 -4.03563 4.79584
C -7.21245 -4.34918 6.24215
O -7.14624 -3.15304 7.03444
C -8.09109 -2.21943 6.76097
C -7.90037 -0.94235 7.54414
C -9.19654 -0.19367 7.88717
C -10.47928 -0.9838 7.72291
O -11.15307 -1.4392 8.6357
O -2.44075 -4.308 1.21283
O -10.9437 -1.12014 6.45302
O -8.76461 -2.24482 5.74011
C -12.10408 -1.78434 6.11376
C -7.28489 -1.11093 8.95386
C -6.61878 0.19607 9.38142
C -7.83302 1.06674 9.62029
C -8.9513 0.04344 9.3938
O -8.39256 -1.17663 9.81441
H -7.2234 -0.31026 6.92624
H -9.32501 0.76935 7.3455
H -6.5511 -1.93995 9.04143
H -6.12264 0.00466 10.36019
H -5.87214 0.60701 8.66829
H -7.81855 1.40512 10.68026
H -7.9333 1.94136 8.94168
H -9.8731 0.36649 9.92647
O -4.24502 -4.33372 5.32486
C -2.26107 -3.05802 0.65844
C -4.14567 -6.87128 1.64998
C -3.72266 -8.33442 1.76467
C -4.36634 -8.70998 3.08253
C -5.09273 -7.40289 3.42113
O -5.45393 -6.8878 2.16144
H -2.31279 -6.37505 2.7455
H -3.47011 -6.81427 4.75549
H -1.85862 -2.35627 1.42002
H -4.03131 -6.51516 0.60271
H -4.23096 -8.89614 0.94852
H -2.62655 -8.50761 1.70465
H -5.10841 -9.51711 2.89139
H -3.66393 -9.02463 3.88421
H -5.9286 -7.61262 4.12473
H -3.22509 -2.67187 0.26357
H -1.53641 -3.13186 -0.17816
H -12.23845 -1.74239 5.01348
H -12.97842 -1.30129 6.60003
H -12.03997 -2.84871 6.42587
H -8.17445 -4.89991 6.33465
H -6.43269 -5.00583 6.67978
H -7.76612 -3.85573 4.20624
H -6.23781 -3.10243 4.71523
$end

$opt
CONSTRAINT
tors           1           2           3           4     -16.993
tors           3           4           5           6     +92.403
tors           4           5           6           7    -178.757
tors           5           6           7           8     -76.202
tors           6           7           8           9    +143.934
tors           7           8           9          10     +68.520
tors           8           9          10          11    -175.243
tors           9          10          11          12    -148.806
tors          11          12          13          14    +105.632
ENDCONSTRAINT
$end

$rem
JOBTYPE                   OPT
METHOD                    B3LYP
DFT_D                     d3_op
BASIS                     STO-3G
GEOM_OPT_MAX_CYCLES       100
GEOM_OPT_TOL_GRADIENT     300
GEOM_OPT_TOL_DISPLACEMENT 1200
GEOM_OPT_TOL_ENERGY       100
SYMMETRY                  False
THRESH                    12
SCF_CONVERGENCE           8
MAX_SUB_FILE_NUM          128
MEM_STATIC                400
MEM_TOTAL                 4000
$end
--------------------------------------------------------------

   15   -1510.1445603232      6.51E-09 Convergence criterion met
 Total energy in the final basis set = -1510.14456032
   13   -1510.2148216034      6.60E-09 Convergence criterion met
 Total energy in the final basis set = -1510.21482160
   14   -1510.2523407134      6.54E-09 Convergence criterion met
 Total energy in the final basis set = -1510.25234071
   14   -1510.2689724595      5.95E-09 Convergence criterion met
 Total energy in the final basis set = -1510.26897246
   13   -1510.2750461974      5.36E-09 Convergence criterion met
 Total energy in the final basis set = -1510.27504620
   13   -1510.2776559149      4.98E-09 Convergence criterion met
 Total energy in the final basis set = -1510.27765591
   13   -1510.2788844837      3.97E-09 Convergence criterion met
 Total energy in the final basis set = -1510.27888448
   13   -1510.2796195934      2.71E-09 Convergence criterion met
   12   -1510.2827503609      3.56E-09 Convergence criterion met
 Total energy in the final basis set = -1510.28275036
   11   -1510.2828191496      6.43E-09 Convergence criterion met
 Total energy in the final basis set = -1510.28281915
   11   -1510.2828514738      5.94E-09 Convergence criterion met
 Total energy in the final basis set = -1510.28285147
   10   -1510.2828817309      9.06E-09 Convergence criterion met
 Total energy in the final basis set = -1510.28288173
   11   -1510.2828933972      3.94E-09 Convergence criterion met
 Total energy in the final basis set = -1510.28289340
   11   -1510.2828987537      2.42E-09 Convergence criterion met
 Total energy in the final basis set = -1510.28289875

             Standard Nuclear Orientation (Angstroms)
    I     Atom           X                Y                Z
 ----------------------------------------------------------------
    1      O      -3.1022637857     0.9808960709     1.3801399999
    2      C      -4.3129402244     1.0531897085     1.0710353259
    3      C      -5.0225014177     0.4023999818    -0.1615028992
    4      C      -4.0168886923    -0.0574768218    -1.2973888228
    5      C      -2.5050810385     0.2271942876    -0.9592717983
    6      O      -1.9372579480    -0.9285685636    -0.3264265393
    7      C      -0.5237961648    -0.6761234805     0.0288345734
    8      C       0.4397611779    -0.7452903704    -1.2269011320
    9      O       1.5426345179     0.2439608239    -1.1515292048
   10      C       2.4512203059    -0.1011479082    -0.1047788675
   11      C       3.5419443844     1.0228857473     0.0368681882
   12      C       4.9301494427     0.4355075728     0.5251823393
   13      C       4.8535217549    -1.0253844316     1.0988658685
   14      O       5.2379183858    -2.0797713472     0.5496769255
   15      O      -5.2979756363     1.7372056177     1.8490763979
   16      O       4.4037180289    -0.9346315137     2.4592053254
   17      O       2.3780700004    -1.1622611721     0.5559048032
   18      C       4.2367245551    -2.2927627370     3.0210503051
   19      C       3.9508116937     1.5588737479    -1.3982233267
   20      C       4.9433022665     2.7798536604    -1.2514007158
   21      C       6.2935326262     2.0458647536    -0.9095459994
   22      C       5.7959902464     0.5531100369    -0.8000321365
   23      O       4.8049851586     0.4542147644    -1.8977943310
   24      H       3.1630871002     1.8166835759     0.7067591448
   25      H       5.3433422012     1.0771194086     1.3238927456
   26      H       3.0890180050     1.7215581366    -2.0732209677
   27      H       5.0116688184     3.3372049023    -2.1989196778
   28      H       4.6258229104     3.4742499322    -0.4567886206
   29      H       7.0244508360     2.1477909023    -1.7276226910
   30      H       6.7530740574     2.4066472652     0.0243860287
   31      H       6.5723950692    -0.2289562107    -0.9078897591
   32      O      -1.8625547657     1.2593297997    -1.2515370124
   33      C      -4.6695004080     2.3317939052     3.0522901962
   34      C      -5.7137859548    -0.9852002633     0.2111070951
   35      C      -6.7363033035    -1.3426066624    -0.9394766441
   36      C      -5.7539102169    -1.7771893716    -2.0895398303
   37      C      -4.3524602395    -1.6062668803    -1.3783250406
   38      O      -4.6287506466    -1.9722125031     0.0307763784
   39      H      -5.7707207296     1.1183185754    -0.5460033756
   40      H      -4.2460210529     0.4611035819    -2.2453706586
   41      H      -3.9007896678     3.0836433974     2.7798568901
   42      H      -6.1222362026    -1.0316864809     1.2394438472
   43      H      -7.3893144451    -2.1738405189    -0.6288833634
   44      H      -7.3664251239    -0.4825700396    -1.2168457753
   45      H      -5.9130380837    -2.8272197215    -2.3818169469
   46      H      -5.8413135127    -1.1422177028    -2.9854594071
   47      H      -3.5353763463    -2.2314068902    -1.7858195583
   48      H      -4.1950734834     1.5576496196     3.6892169843
   49      H      -5.4866465455     2.8234636805     3.6113741682
   50      H       3.9844263538    -2.1565882662     4.0887804902
   51      H       5.1655001606    -2.8922445342     2.9293867345
   52      H       3.4134415169    -2.8345730295     2.5115763340
   53      H       0.8453242345    -1.7729811198    -1.3411778784
   54      H      -0.1208050919    -0.4705737571    -2.1424092394
   55      H      -0.2522825754    -1.4571212529     0.7654246829
   56      H      -0.4213333681     0.3262554508     0.4993733270
 ----------------------------------------------------------------

    9   -1510.2828990382      4.83E-09 Convergence criterion met
 Total energy in the final basis set = -1510.28289904
 Final energy is   -1510.28289903823
 **  OPTIMIZATION CONVERGED  **

                    Orbital Energies (a.u.)
 --------------------------------------------------------------

 Alpha MOs
 -- Occupied --
-18.942 -18.938 -18.926 -18.917 -18.890 -18.884 -18.880 -18.879
-18.864 -18.858 -10.106 -10.102 -10.094 -10.087 -10.069 -10.069
-10.064 -10.063 -10.060 -10.053 -10.052 -10.050 -10.041 -10.036
-10.036 -10.028 -10.022 -10.021 -10.016 -10.015  -1.019  -1.016
 -1.003  -0.994  -0.972  -0.964  -0.943  -0.939  -0.929  -0.921
 -0.764  -0.758  -0.726  -0.721  -0.712  -0.703  -0.688  -0.667
 -0.650  -0.616  -0.595  -0.580  -0.547  -0.540  -0.539  -0.532
 -0.514  -0.505  -0.483  -0.476  -0.463  -0.452  -0.449  -0.445
 -0.435  -0.430  -0.426  -0.416  -0.410  -0.402  -0.399  -0.397
 -0.387  -0.379  -0.377  -0.364  -0.360  -0.355  -0.348  -0.345
 -0.341  -0.337  -0.332  -0.331  -0.326  -0.325  -0.320  -0.313
 -0.308  -0.305  -0.302  -0.301  -0.295  -0.282  -0.278  -0.273
 -0.271  -0.261  -0.255  -0.242  -0.240  -0.235  -0.229  -0.187
 -0.183  -0.165  -0.161  -0.159  -0.154  -0.147  -0.143  -0.140
 -0.138

          Ground-State Mulliken Net Atomic Charges

     Atom                 Charge (a.u.)
  ----------------------------------------
      1 O                    -0.208157
      2 C                     0.212131
      3 C                    -0.078974
      4 C                    -0.081049
      5 C                     0.212550
      6 O                    -0.168041
      7 C                    -0.050268
      8 C                    -0.049429
      9 O                    -0.165680
     10 C                     0.214024
     11 C                    -0.076219
     12 C                    -0.082047
     13 C                     0.213481
     14 O                    -0.218410
     15 O                    -0.169062
     16 O                    -0.173596
     17 O                    -0.211966
     18 C                    -0.128136
     19 C                     0.022744
     20 C                    -0.145153
     21 C                    -0.142874
     22 C                     0.023389
     23 O                    -0.191635
     24 H                     0.086948
     25 H                     0.083141
     26 H                     0.092488
     27 H                     0.077663
     28 H                     0.072793
     29 H                     0.077240
     30 H                     0.072623
     31 H                     0.088131
     32 O                    -0.220294
     33 C                    -0.128505
     34 C                     0.025978
     35 C                    -0.143260
     36 C                    -0.144648
     37 C                     0.026577
     38 O                    -0.186054
     39 H                     0.086873
     40 H                     0.083320
     41 H                     0.090860
     42 H                     0.084227
     43 H                     0.078456
     44 H                     0.074054
     45 H                     0.078230
     46 H                     0.073470
     47 H                     0.087494
     48 H                     0.090932
     49 H                     0.091832
     50 H                     0.085676
     51 H                     0.086869
     52 H                     0.091565
     53 H                     0.091444
     54 H                     0.093523
     55 H                     0.097085
     56 H                     0.095643
  ----------------------------------------
  Sum of atomic charges =     0.000000

                    Cartesian Multipole Moments
 -----------------------------------------------------------------
    Charge (ESU x 10^10)
                 0.0000
    Dipole Moment (Debye)
         X      -2.8654      Y       2.0643      Z       0.8844
       Tot       3.6406
    Quadrupole Moments (Debye-Ang)
        XX    -143.9078     XY       7.5873     YY    -159.7880
        XZ       6.9951     YZ       3.7123     ZZ    -153.1142

 Total job time:  59.59s(wall), 2830.17s(cpu)
        *  Thank you very much for using Q-Chem.  Have a nice day.  *
