 Q-Chem 5.0, Q-Chem, Inc., Pleasanton, CA (2017)
 Q-Chem 5.0.1 for Intel X86 EM64T Linux

User input:
--------------------------------------------------------------
$molecule
0  1
O 3.1945524599 -0.9344150026 1.4243748171
C 4.4164462091 -0.9231965464 1.1521600663
C 5.0879774 -0.4285918431 -0.1718522237
C 4.035249435 -0.0607123951 -1.2983213452
C 2.5434368542 -0.384415372 -0.9111868189
O 1.9150846902 0.8043078548 -0.4060669089
C 0.5207376078 0.5117875484 -0.0090914759
C -0.4732475328 0.6245438317 -1.2358088962
O -1.5899509414 -0.3489953309 -1.1438473099
C -2.4832820615 0.019397576 -0.0923230782
C -3.6443363196 -1.0368612352 0.0054750255
C -4.9867031237 -0.3930002099 0.5489133954
C -4.8179957706 1.0327213622 1.1889497764
O -5.1749024246 2.1301894494 0.7101273139
O 5.4391491178 -1.3648019359 2.045968929
O -4.3364712478 0.848544208 2.5292138602
O -2.3582304212 1.0608977423 0.5916134754
C -4.0975326648 2.1652747217 3.1588106909
C -4.1075906021 -1.4740991847 -1.4473908716
C -5.1577350234 -2.6498073682 -1.3366424707
C -6.4593442656 -1.8681603733 -0.9227142782
C -5.8857087189 -0.4074564779 -0.7586438601
O -4.914791563 -0.3057889605 -1.8737173776
H -3.3098959896 -1.889431418 0.6247144509
H -5.4190954274 -1.0453612068 1.3285467914
H -3.2692902614 -1.6467896116 -2.1489200007
H -5.2775357902 -3.1527231144 -2.3092118522
H -4.8571792815 -3.3999402504 -0.5874049501
H -7.2165665703 -1.8957343542 -1.7227893083
H -6.9112735131 -2.2503243083 0.0064829204
H -6.6254959399 0.4147336693 -0.8135342255
O 1.9464390644 -1.4651524541 -1.1096091971
C 4.8354279736 -1.8217126213 3.3202576412
C 5.8032082691 0.9770259845 0.0402745075
C 6.7354537433 1.251441877 -1.2053089621
C 5.6733017052 1.6402502417 -2.29924048
C 4.3275402448 1.4886582111 -1.4854862063
O 4.6968034974 1.9443316012 -0.1245802901
H 5.8069270922 -1.1960079658 -0.5109763399
H 4.2567953983 -0.6257820981 -2.2215910901
H 4.1123960619 -2.6462048785 3.1548930815
H 6.2864788805 1.0958562675 1.0295234621
H 7.4242489077 2.0849538175 -0.9948838734
H 7.3279176373 0.3644559928 -1.4809761651
H 5.803189763 2.6813862791 -2.6349686312
H 5.7043938136 0.9778918832 -3.17879118
H 3.4701699706 2.0735067823 -1.8692866047
H 4.3135679547 -0.9941791021 3.8429596501
H 5.6749076178 -2.1823049239 3.9425613508
H -3.8258579116 1.9600329041 4.2106434235
H -5.0016783853 2.8067453089 3.1238554108
H -3.2642184809 2.6997007845 2.6579412127
H -0.8643304775 1.6603321138 -1.321891825
H 0.058976621 0.3550797853 -2.1701894468
H 0.253150451 1.2522672874 0.7698039563
H 0.4497122593 -0.5153353334 0.4098799032
$end

$rem
JOBTYPE                   OPT
METHOD                    B3LYP
DFT_D                     d3_op
BASIS                     STO-3G
GEOM_OPT_MAX_CYCLES       100
GEOM_OPT_TOL_GRADIENT     300
GEOM_OPT_TOL_DISPLACEMENT 1200
GEOM_OPT_TOL_ENERGY       100
SYMMETRY                  False
THRESH                    12
SCF_CONVERGENCE           8
MAX_SUB_FILE_NUM          128
MEM_STATIC                400
MEM_TOTAL                 4000
$end
--------------------------------------------------------------

   16   -1510.2836880320      5.40E-09 Convergence criterion met
 Total energy in the final basis set = -1510.28368803
   13   -1510.2845387164      7.51E-09 Convergence criterion met
 Total energy in the final basis set = -1510.28453872
   13   -1510.2851140737      3.58E-09 Convergence criterion met
 Total energy in the final basis set = -1510.28511407
   13   -1510.2858005249      3.09E-09 Convergence criterion met
 Total energy in the final basis set = -1510.28580052
   13   -1510.2863738940      4.38E-09 Convergence criterion met
 Total energy in the final basis set = -1510.28637389
   13   -1510.2868156148      4.69E-09 Convergence criterion met
 Total energy in the final basis set = -1510.28681561
   13   -1510.2872507711      4.06E-09 Convergence criterion met
 Total energy in the final basis set = -1510.28725077
   13   -1510.2875138245      7.31E-09 Convergence criterion met
   13   -1510.2879827135      6.29E-09 Convergence criterion met
 Total energy in the final basis set = -1510.28798271
   12   -1510.2880421293      4.71E-09 Convergence criterion met
 Total energy in the final basis set = -1510.28804213
   12   -1510.2880599429      2.67E-09 Convergence criterion met
 Total energy in the final basis set = -1510.28805994
   12   -1510.2880634361      2.43E-09 Convergence criterion met
 Total energy in the final basis set = -1510.28806344
   10   -1510.2880656573      7.61E-09 Convergence criterion met
 Total energy in the final basis set = -1510.28806566
   10   -1510.2880675345      4.50E-09 Convergence criterion met
 Total energy in the final basis set = -1510.28806753

             Standard Nuclear Orientation (Angstroms)
    I     Atom           X                Y                Z
 ----------------------------------------------------------------
    1      O       3.4268080598    -0.5993565431    -2.1109407811
    2      C       4.5072431915    -0.7803626668    -1.5049643274
    3      C       5.1075325472     0.0898871259    -0.3503776003
    4      C       4.1260972360     1.2301160718     0.1452681282
    5      C       2.7501143041     1.2742316297    -0.6179432961
    6      O       1.8660640502     0.3110881544    -0.0236272974
    7      C       0.5942681696     0.2372827843    -0.7775204034
    8      C      -0.3303830626     1.4893080621    -0.5236088006
    9      O      -1.6673534526     1.2745518393    -1.1305305326
   10      C      -2.5263124109     0.5867678745    -0.2185093373
   11      C      -3.9093537976     0.3601194019    -0.9139189929
   12      C      -4.9047316666    -0.5069102779    -0.0405008808
   13      C      -4.2979926447    -1.0360401654     1.3127591316
   14      O      -4.5592720448    -0.6396949332     2.4678419935
   15      O       5.4067755308    -1.8544248167    -1.7821273029
   16      O      -3.4882524001    -2.1828499466     1.0069079849
   17      O      -2.2021752920     0.2593213378     0.9458684735
   18      C      -2.8407133508    -2.6785385986     2.2409322679
   19      C      -4.7243058647     1.7229695338    -1.0290698401
   20      C      -5.9337746212     1.4948314294    -2.0198748326
   21      C      -6.9168789039     0.6633495575    -1.1141585357
   22      C      -6.0711764012     0.5365012518     0.2129802472
   23      O      -5.3669351633     1.8380871787     0.2976631148
   24      H      -3.7346395061    -0.0857890570    -1.9095928619
   25      H      -5.2580822024    -1.3803446216    -0.6172724604
   26      H      -4.0969726501     2.6105561355    -1.2419477413
   27      H      -6.3743291753     2.4591391007    -2.3188346276
   28      H      -5.6259124606     0.9500474984    -2.9266197510
   29      H      -7.8528198129     1.2130627575    -0.9249593746
   30      H      -7.1645648597    -0.3200878976    -1.5443348044
   31      H      -6.6497143667     0.3531814227     1.1392241411
   32      O       2.4212610581     2.0808346153    -1.5151947249
   33      C       4.8594709749    -2.7098584669    -2.8617271047
   34      C       5.3038215099    -0.7494951291     0.9861972069
   35      C       6.2596809305     0.0650540375     1.9422875716
   36      C       5.2923844198     1.2037704813     2.4375261775
   37      C       3.9605597902     0.8276368505     1.6743253593
   38      O       3.9838416878    -0.6535263500     1.6458638583
   39      H       6.0705589418     0.5067949458    -0.6983706527
   40      H       4.5948387785     2.2234577657     0.0308204981
   41      H       4.7425359982    -2.1451537688    -3.8092352206
   42      H       5.5849084271    -1.8070685473     0.8167321948
   43      H       6.5984475038    -0.5690168946     2.7769589975
   44      H       7.1437788593     0.4541839832     1.4125211618
   45      H       5.1368299062     1.1555583128     3.5269960663
   46      H       5.6512799230     2.2120897801     2.1761349329
   47      H       3.0264570144     1.1895483103     2.1449396384
   48      H       3.8750037027    -3.1371735187    -2.5819447206
   49      H       5.5916037182    -3.5257349027    -3.0042905773
   50      H      -2.2805668194    -3.5870042307     1.9522793981
   51      H      -3.5858667411    -2.9329730118     3.0222744175
   52      H      -2.1386723136    -1.9251909085     2.6539305026
   53      H      -0.4228290494     1.6658567252     0.5689584290
   54      H       0.1045515506     2.3779080339    -1.0224381958
   55      H       0.0864005251    -0.6754798573    -0.4049015506
   56      H       0.7896486907     0.1321257472    -1.8661069193
 ----------------------------------------------------------------

    9   -1510.2880672246      3.70E-09 Convergence criterion met
 Total energy in the final basis set = -1510.28806722
 Final energy is   -1510.28806722456
 **  OPTIMIZATION CONVERGED  **

                    Orbital Energies (a.u.)
 --------------------------------------------------------------

 Alpha MOs
 -- Occupied --
-18.945 -18.938 -18.924 -18.915 -18.889 -18.888 -18.884 -18.883
-18.863 -18.857 -10.109 -10.103 -10.094 -10.086 -10.071 -10.065
-10.064 -10.062 -10.060 -10.058 -10.054 -10.050 -10.042 -10.037
-10.035 -10.029 -10.022 -10.020 -10.018 -10.016  -1.022  -1.016
 -1.001  -0.993  -0.971  -0.967  -0.945  -0.940  -0.928  -0.920
 -0.764  -0.760  -0.726  -0.721  -0.713  -0.704  -0.690  -0.668
 -0.650  -0.615  -0.596  -0.579  -0.547  -0.541  -0.538  -0.534
 -0.514  -0.507  -0.486  -0.473  -0.464  -0.454  -0.450  -0.444
 -0.435  -0.432  -0.428  -0.418  -0.410  -0.404  -0.399  -0.394
 -0.390  -0.381  -0.377  -0.362  -0.361  -0.355  -0.350  -0.344
 -0.338  -0.336  -0.334  -0.329  -0.328  -0.326  -0.321  -0.315
 -0.310  -0.307  -0.301  -0.301  -0.298  -0.283  -0.277  -0.273
 -0.271  -0.263  -0.255  -0.242  -0.240  -0.235  -0.231  -0.189
 -0.185  -0.163  -0.162  -0.160  -0.157  -0.145  -0.143  -0.142
 -0.137

          Ground-State Mulliken Net Atomic Charges

     Atom                 Charge (a.u.)
  ----------------------------------------
      1 O                    -0.207890
      2 C                     0.215042
      3 C                    -0.078334
      4 C                    -0.081619
      5 C                     0.214430
      6 O                    -0.170010
      7 C                    -0.049093
      8 C                    -0.056209
      9 O                    -0.171004
     10 C                     0.213789
     11 C                    -0.077886
     12 C                    -0.081651
     13 C                     0.215935
     14 O                    -0.216663
     15 O                    -0.168761
     16 O                    -0.177767
     17 O                    -0.207124
     18 C                    -0.128806
     19 C                     0.025310
     20 C                    -0.143809
     21 C                    -0.143967
     22 C                     0.024871
     23 O                    -0.189009
     24 H                     0.086632
     25 H                     0.083065
     26 H                     0.085463
     27 H                     0.077989
     28 H                     0.073456
     29 H                     0.077616
     30 H                     0.072924
     31 H                     0.088972
     32 O                    -0.221539
     33 C                    -0.128050
     34 C                     0.025165
     35 C                    -0.143681
     36 C                    -0.144426
     37 C                     0.026855
     38 O                    -0.186699
     39 H                     0.086848
     40 H                     0.083394
     41 H                     0.090793
     42 H                     0.087198
     43 H                     0.078403
     44 H                     0.073557
     45 H                     0.078466
     46 H                     0.073699
     47 H                     0.086967
     48 H                     0.091889
     49 H                     0.092526
     50 H                     0.085226
     51 H                     0.086283
     52 H                     0.092247
     53 H                     0.094667
     54 H                     0.099957
     55 H                     0.089789
     56 H                     0.094571
  ----------------------------------------
  Sum of atomic charges =     0.000000

                    Cartesian Multipole Moments
 -----------------------------------------------------------------
    Charge (ESU x 10^10)
                 0.0000
    Dipole Moment (Debye)
         X       2.6218      Y      -1.4633      Z      -2.0764
       Tot       3.6506
    Quadrupole Moments (Debye-Ang)
        XX    -138.7824     XY       3.0842     YY    -156.1538
        XZ      12.2067     YZ       4.7259     ZZ    -161.6374

 Total job time:  59.15s(wall), 2813.59s(cpu)
        *  Thank you very much for using Q-Chem.  Have a nice day.  *
