 Q-Chem 5.0, Q-Chem, Inc., Pleasanton, CA (2017)
 Q-Chem 5.0.1 for Intel X86 EM64T Linux

User input:
--------------------------------------------------------------
$molecule
0  1
O -3.94934 -3.66094 2.70899
C -3.26408 -4.56952 2.26188
C -3.36658 -6.02376 2.66595
C -4.30295 -6.36325 3.83719
C -5.16722 -5.23643 4.35815
O -6.40777 -5.30267 3.79064
C -7.278 -4.24805 4.21458
C -7.972 -4.63103 5.51759
O -8.1734 -3.46168 6.32687
C -9.10504 -2.58903 5.86897
C -9.25328 -1.37099 6.74934
C -10.6515 -0.73597 6.74573
C -11.7632 -1.58911 6.16869
O -12.6443 -2.13724 6.81505
O -2.3771 -4.29194 1.27043
O -11.82944 -1.65571 4.81288
O -9.46869 -2.57742 4.70156
C -12.79279 -2.35057 4.11148
C -9.05921 -1.62217 8.2642
C -8.6501 -0.31969 8.95018
C -9.94572 0.45835 8.87379
C -10.86788 -0.60648 8.26936
O -10.35844 -1.82253 8.75813
H -8.47913 -0.6505 6.40111
H -10.69803 0.25635 6.24534
H -8.31895 -2.4129 8.50973
H -8.44667 -0.56444 10.01768
H -7.76286 0.19114 8.51807
H -10.26277 0.71367 9.9094
H -9.91437 1.37559 8.2467
H -11.92623 -0.38206 8.52872
O -4.77364 -4.37296 5.13515
C -2.16651 -3.03395 0.74596
C -3.93092 -6.91141 1.54505
C -3.4628 -8.35151 1.7417
C -4.28831 -8.75191 2.94518
C -5.12708 -7.48325 3.14207
O -5.30278 -6.99195 1.8352
H -2.32464 -6.32848 2.91362
H -3.78656 -6.80065 4.72023
H -1.81341 -2.34233 1.54055
H -3.66551 -6.55595 0.52535
H -3.81042 -8.9384 0.86143
H -2.36433 -8.47503 1.85628
H -4.94399 -9.60199 2.65182
H -3.70778 -9.01826 3.85467
H -6.05462 -7.73743 3.7013
H -3.10544 -2.6439 0.298
H -1.39156 -3.09481 -0.04539
H -12.60481 -2.23527 3.02436
H -13.80172 -1.94819 4.3449
H -12.74886 -3.43029 4.36964
H -8.88748 -5.24439 5.3667
H -7.26352 -5.24964 6.10784
H -8.03014 -4.05002 3.42388
H -6.7114 -3.29314 4.32246
$end

$opt
CONSTRAINT
tors           1           2           3           4      -6.827
tors           3           4           5           6     +96.539
tors           4           5           6           7    -178.757
tors           5           6           7           8     -85.675
tors           6           7           8           9    +146.327
tors           7           8           9          10     +70.455
tors           8           9          10          11    -179.010
tors           9          10          11          12    -150.675
tors          11          12          13          14    +107.195
ENDCONSTRAINT
$end

$rem
JOBTYPE                   OPT
METHOD                    B3LYP
DFT_D                     d3_op
BASIS                     STO-3G
GEOM_OPT_MAX_CYCLES       100
GEOM_OPT_TOL_GRADIENT     300
GEOM_OPT_TOL_DISPLACEMENT 1200
GEOM_OPT_TOL_ENERGY       100
SYMMETRY                  False
THRESH                    12
SCF_CONVERGENCE           8
MAX_SUB_FILE_NUM          128
MEM_STATIC                400
MEM_TOTAL                 4000
$end
--------------------------------------------------------------

   15   -1510.1441192053      6.48E-09 Convergence criterion met
 Total energy in the final basis set = -1510.14411921
   14   -1510.2144047173      6.86E-09 Convergence criterion met
 Total energy in the final basis set = -1510.21440472
   14   -1510.2520042415      5.76E-09 Convergence criterion met
 Total energy in the final basis set = -1510.25200424
   14   -1510.2687129029      6.06E-09 Convergence criterion met
 Total energy in the final basis set = -1510.26871290
   13   -1510.2749187333      6.12E-09 Convergence criterion met
 Total energy in the final basis set = -1510.27491873
    2   -1510.2749187333      7.37E-09 Convergence criterion met
 Total energy in the final basis set = -1510.27491873
   13   -1510.2777319362      4.38E-09 Convergence criterion met
 Total energy in the final basis set = -1510.27773194
   13   -1510.2792924842      3.53E-09 Convergence criterion met
   11   -1510.2836885774      8.94E-09 Convergence criterion met
 Total energy in the final basis set = -1510.28368858
   11   -1510.2837367514      9.43E-09 Convergence criterion met
 Total energy in the final basis set = -1510.28373675
   11   -1510.2837642400      6.61E-09 Convergence criterion met
 Total energy in the final basis set = -1510.28376424
   11   -1510.2837823517      3.27E-09 Convergence criterion met
 Total energy in the final basis set = -1510.28378235
   11   -1510.2837956962      3.78E-09 Convergence criterion met
 Total energy in the final basis set = -1510.28379570
    9   -1510.2837974880      3.95E-09 Convergence criterion met
 Total energy in the final basis set = -1510.28379749

             Standard Nuclear Orientation (Angstroms)
    I     Atom           X                Y                Z
 ----------------------------------------------------------------
    1      O       3.1945524599    -0.9344150026     1.4243748171
    2      C       4.4164462091    -0.9231965464     1.1521600663
    3      C       5.0879774000    -0.4285918431    -0.1718522237
    4      C       4.0352494350    -0.0607123951    -1.2983213452
    5      C       2.5434368542    -0.3844153720    -0.9111868189
    6      O       1.9150846902     0.8043078548    -0.4060669089
    7      C       0.5207376078     0.5117875484    -0.0090914759
    8      C      -0.4732475328     0.6245438317    -1.2358088962
    9      O      -1.5899509414    -0.3489953309    -1.1438473099
   10      C      -2.4832820615     0.0193975760    -0.0923230782
   11      C      -3.6443363196    -1.0368612352     0.0054750255
   12      C      -4.9867031237    -0.3930002099     0.5489133954
   13      C      -4.8179957706     1.0327213622     1.1889497764
   14      O      -5.1749024246     2.1301894494     0.7101273139
   15      O       5.4391491178    -1.3648019359     2.0459689290
   16      O      -4.3364712478     0.8485442080     2.5292138602
   17      O      -2.3582304212     1.0608977423     0.5916134754
   18      C      -4.0975326648     2.1652747217     3.1588106909
   19      C      -4.1075906021    -1.4740991847    -1.4473908716
   20      C      -5.1577350234    -2.6498073682    -1.3366424707
   21      C      -6.4593442656    -1.8681603733    -0.9227142782
   22      C      -5.8857087189    -0.4074564779    -0.7586438601
   23      O      -4.9147915630    -0.3057889605    -1.8737173776
   24      H      -3.3098959896    -1.8894314180     0.6247144509
   25      H      -5.4190954274    -1.0453612068     1.3285467914
   26      H      -3.2692902614    -1.6467896116    -2.1489200007
   27      H      -5.2775357902    -3.1527231144    -2.3092118522
   28      H      -4.8571792815    -3.3999402504    -0.5874049501
   29      H      -7.2165665703    -1.8957343542    -1.7227893083
   30      H      -6.9112735131    -2.2503243083     0.0064829204
   31      H      -6.6254959399     0.4147336693    -0.8135342255
   32      O       1.9464390644    -1.4651524541    -1.1096091971
   33      C       4.8354279736    -1.8217126213     3.3202576412
   34      C       5.8032082691     0.9770259845     0.0402745075
   35      C       6.7354537433     1.2514418770    -1.2053089621
   36      C       5.6733017052     1.6402502417    -2.2992404800
   37      C       4.3275402448     1.4886582111    -1.4854862063
   38      O       4.6968034974     1.9443316012    -0.1245802901
   39      H       5.8069270922    -1.1960079658    -0.5109763399
   40      H       4.2567953983    -0.6257820981    -2.2215910901
   41      H       4.1123960619    -2.6462048785     3.1548930815
   42      H       6.2864788805     1.0958562675     1.0295234621
   43      H       7.4242489077     2.0849538175    -0.9948838734
   44      H       7.3279176373     0.3644559928    -1.4809761651
   45      H       5.8031897630     2.6813862791    -2.6349686312
   46      H       5.7043938136     0.9778918832    -3.1787911800
   47      H       3.4701699706     2.0735067823    -1.8692866047
   48      H       4.3135679547    -0.9941791021     3.8429596501
   49      H       5.6749076178    -2.1823049239     3.9425613508
   50      H      -3.8258579116     1.9600329041     4.2106434235
   51      H      -5.0016783853     2.8067453089     3.1238554108
   52      H      -3.2642184809     2.6997007845     2.6579412127
   53      H      -0.8643304775     1.6603321138    -1.3218918250
   54      H       0.0589766210     0.3550797853    -2.1701894468
   55      H       0.2531504510     1.2522672874     0.7698039563
   56      H       0.4497122593    -0.5153353334     0.4098799032
 ----------------------------------------------------------------

    9   -1510.2837981539      3.65E-09 Convergence criterion met
 Total energy in the final basis set = -1510.28379815
 Final energy is   -1510.28379815388
 **  OPTIMIZATION CONVERGED  **

                    Orbital Energies (a.u.)
 --------------------------------------------------------------

 Alpha MOs
 -- Occupied --
-18.944 -18.939 -18.924 -18.916 -18.889 -18.886 -18.881 -18.880
-18.861 -18.858 -10.107 -10.102 -10.094 -10.087 -10.070 -10.069
-10.063 -10.063 -10.059 -10.054 -10.053 -10.050 -10.042 -10.037
-10.035 -10.028 -10.022 -10.020 -10.017 -10.015  -1.020  -1.016
 -1.001  -0.994  -0.971  -0.965  -0.944  -0.939  -0.927  -0.921
 -0.764  -0.758  -0.725  -0.721  -0.712  -0.703  -0.688  -0.668
 -0.650  -0.615  -0.595  -0.579  -0.547  -0.540  -0.538  -0.533
 -0.514  -0.505  -0.483  -0.476  -0.463  -0.453  -0.449  -0.446
 -0.435  -0.430  -0.426  -0.417  -0.410  -0.402  -0.399  -0.397
 -0.387  -0.379  -0.378  -0.364  -0.360  -0.357  -0.347  -0.345
 -0.339  -0.336  -0.332  -0.330  -0.327  -0.325  -0.319  -0.314
 -0.309  -0.306  -0.302  -0.301  -0.296  -0.283  -0.278  -0.272
 -0.271  -0.261  -0.256  -0.242  -0.240  -0.234  -0.229  -0.188
 -0.184  -0.164  -0.161  -0.159  -0.154  -0.147  -0.142  -0.140
 -0.138

          Ground-State Mulliken Net Atomic Charges

     Atom                 Charge (a.u.)
  ----------------------------------------
      1 O                    -0.206579
      2 C                     0.214056
      3 C                    -0.078229
      4 C                    -0.081500
      5 C                     0.213588
      6 O                    -0.170986
      7 C                    -0.051609
      8 C                    -0.049303
      9 O                    -0.166438
     10 C                     0.213997
     11 C                    -0.076326
     12 C                    -0.082029
     13 C                     0.213880
     14 O                    -0.218451
     15 O                    -0.168835
     16 O                    -0.173860
     17 O                    -0.211554
     18 C                    -0.128161
     19 C                     0.022871
     20 C                    -0.145082
     21 C                    -0.142912
     22 C                     0.023509
     23 O                    -0.191713
     24 H                     0.086925
     25 H                     0.083259
     26 H                     0.091764
     27 H                     0.077628
     28 H                     0.072904
     29 H                     0.077228
     30 H                     0.072700
     31 H                     0.088260
     32 O                    -0.221696
     33 C                    -0.128267
     34 C                     0.025443
     35 C                    -0.143807
     36 C                    -0.144252
     37 C                     0.026014
     38 O                    -0.187642
     39 H                     0.087241
     40 H                     0.083111
     41 H                     0.091797
     42 H                     0.085162
     43 H                     0.078408
     44 H                     0.073878
     45 H                     0.078175
     46 H                     0.073474
     47 H                     0.088660
     48 H                     0.090993
     49 H                     0.092183
     50 H                     0.085614
     51 H                     0.086879
     52 H                     0.091303
     53 H                     0.092152
     54 H                     0.091928
     55 H                     0.096400
     56 H                     0.097847
  ----------------------------------------
  Sum of atomic charges =    -0.000000

                    Cartesian Multipole Moments
 -----------------------------------------------------------------
    Charge (ESU x 10^10)
                 0.0000
    Dipole Moment (Debye)
         X       2.7648      Y      -2.0549      Z       0.8036
       Tot       3.5373
    Quadrupole Moments (Debye-Ang)
        XX    -142.8044     XY       7.9003     YY    -161.9484
        XZ      -5.8730     YZ      -2.8013     ZZ    -151.3134

 Total job time:  59.80s(wall), 2839.88s(cpu)
        *  Thank you very much for using Q-Chem.  Have a nice day.  *
