 Q-Chem 5.0, Q-Chem, Inc., Pleasanton, CA (2017)
 Q-Chem 5.0.1 for Intel X86 EM64T Linux

User input:
--------------------------------------------------------------
$molecule
0  1
O -3.94934 -3.66094 2.70899
C -3.26408 -4.56952 2.26188
C -3.36658 -6.02376 2.66595
C -4.42536 -6.38722 3.71986
C -5.38258 -5.287 4.12151
O -6.54301 -5.39891 3.40996
C -7.48937 -4.36764 3.71023
C -8.32372 -4.75762 4.92592
O -8.65638 -3.58614 5.68739
C -9.55176 -2.74867 5.10767
C -9.80546 -1.50291 5.92277
C -11.20627 -0.8956 5.7579
C -12.24192 -1.79024 5.10693
O -13.21843 -2.26765 5.66646
O -2.3292 -4.27989 1.31899
O -12.14404 -1.94711 3.76061
O -9.78152 -2.77706 3.90711
C -13.02509 -2.67987 2.99251
C -9.76262 -1.69458 7.45853
C -9.43832 -0.36136 8.13051
C -10.7265 0.39623 7.89107
C -11.5745 -0.70507 7.24445
O -11.10295 -1.89363 7.82957
H -9.01048 -0.78093 5.62851
H -11.21001 0.06933 5.20461
H -9.04266 -2.46494 7.80746
H -9.34427 -0.5635 9.22192
H -8.51591 0.14519 7.77355
H -11.14683 0.69347 8.87753
H -10.6402 1.28479 7.22878
H -12.65537 -0.48525 7.38889
O -5.12326 -4.41847 4.94783
C -2.09433 -3.01581 0.82013
C -3.78037 -6.93084 1.4926
C -3.29248 -8.3556 1.74487
C -4.22794 -8.77826 2.85637
C -5.12676 -7.53904 2.9481
O -5.17236 -7.05683 1.62775
H -2.3478 -6.30333 3.01738
H -4.00222 -6.79826 4.66304
H -1.78101 -2.33324 1.63886
H -3.41605 -6.57151 0.50536
H -3.52965 -8.95253 0.83506
H -2.20906 -8.4494 1.9737
H -4.81507 -9.65574 2.50448
H -3.73986 -9.01326 3.8268
H -6.10189 -7.82209 3.40281
H -3.01073 -2.62102 0.3315
H -1.28165 -3.06721 0.06688
H -12.70319 -2.63916 1.93178
H -14.04857 -2.25514 3.07247
H -13.03024 -3.74017 3.32433
H -9.19538 -5.40141 4.67522
H -7.67372 -5.34698 5.60645
H -8.1453 -4.20126 2.8315
H -6.96764 -3.39487 3.87237
$end

$opt
CONSTRAINT
tors           1           2           3           4      +0.353
tors           3           4           5           6     +96.539
tors           4           5           6           7    -178.449
tors           5           6           7           8     -85.675
tors           6           7           8           9    +146.327
tors           7           8           9          10     +70.455
tors           8           9          10          11    -177.009
tors           9          10          11          12    -150.675
tors          11          12          13          14    +111.796
ENDCONSTRAINT
$end

$rem
JOBTYPE                   OPT
METHOD                    B3LYP
DFT_D                     d3_op
BASIS                     STO-3G
GEOM_OPT_MAX_CYCLES       100
GEOM_OPT_TOL_GRADIENT     300
GEOM_OPT_TOL_DISPLACEMENT 1200
GEOM_OPT_TOL_ENERGY       100
SYMMETRY                  False
THRESH                    12
SCF_CONVERGENCE           8
MAX_SUB_FILE_NUM          128
MEM_STATIC                400
MEM_TOTAL                 4000
$end
--------------------------------------------------------------

   15   -1510.1424491801      6.53E-09 Convergence criterion met
 Total energy in the final basis set = -1510.14244918
   14   -1510.2129748225      6.87E-09 Convergence criterion met
 Total energy in the final basis set = -1510.21297482
   14   -1510.2507032744      5.74E-09 Convergence criterion met
 Total energy in the final basis set = -1510.25070327
   14   -1510.2674241412      6.14E-09 Convergence criterion met
 Total energy in the final basis set = -1510.26742414
    2   -1510.2674241410      1.62E-09 Convergence criterion met
 Total energy in the final basis set = -1510.26742414
   14   -1510.2734570901      3.38E-09 Convergence criterion met
 Total energy in the final basis set = -1510.27345709
   13   -1510.2761285394      6.02E-09 Convergence criterion met
 Total energy in the final basis set = -1510.27612854
   13   -1510.2776990024      2.63E-09 Convergence criterion met
   11   -1510.2831355376      5.88E-09 Convergence criterion met
 Total energy in the final basis set = -1510.28313554
   11   -1510.2831780925      7.11E-09 Convergence criterion met
 Total energy in the final basis set = -1510.28317809
   11   -1510.2831990007      6.00E-09 Convergence criterion met
 Total energy in the final basis set = -1510.28319900
   10   -1510.2832142754      7.22E-09 Convergence criterion met
 Total energy in the final basis set = -1510.28321428
   10   -1510.2832251284      9.14E-09 Convergence criterion met
 Total energy in the final basis set = -1510.28322513
    9   -1510.2832279693      5.59E-09 Convergence criterion met
 Total energy in the final basis set = -1510.28322797

             Standard Nuclear Orientation (Angstroms)
    I     Atom           X                Y                Z
 ----------------------------------------------------------------
    1      O       3.1607337108    -0.9896716528     1.4011335909
    2      C       4.3895105877    -0.9109108780     1.1745462955
    3      C       5.0802288912    -0.4564839560    -0.1554136452
    4      C       4.0389895548    -0.0634628243    -1.2835556487
    5      C       2.5408837864    -0.3825974507    -0.9181397992
    6      O       1.9173165773     0.8035856249    -0.3996267201
    7      C       0.5187637574     0.5151196161    -0.0152155787
    8      C      -0.4669574773     0.6522333505    -1.2462150270
    9      O      -1.5905262070    -0.3147710592    -1.1745413484
   10      C      -2.4878957621     0.0447137244    -0.1229707679
   11      C      -3.6283721086    -1.0336681208    -0.0142980335
   12      C      -4.9784362488    -0.4076631899     0.5279876229
   13      C      -4.8219467875     0.9986008052     1.2130783500
   14      O      -5.2431517249     2.0996643042     0.7993042058
   15      O       5.4005842309    -1.2312731652     2.1306209968
   16      O      -4.2765095433     0.7775611261     2.5233753215
   17      O      -2.3809509059     1.0942992940     0.5515589506
   18      C      -4.0589472732     2.0750948108     3.1986303212
   19      C      -4.0873671467    -1.4702278558    -1.4688658524
   20      C      -5.1425584192    -2.6424011201    -1.3670638135
   21      C      -6.4467188370    -1.8563271875    -0.9690715105
   22      C      -5.8666580147    -0.4004915126    -0.7864924261
   23      O      -4.8873308520    -0.2959088878    -1.8942971652
   24      H      -3.2773541112    -1.8800689266     0.6039753982
   25      H      -5.4152047913    -1.0810541219     1.2873155150
   26      H      -3.2468888611    -1.6439052173    -2.1675042252
   27      H      -5.2529533949    -3.1478794185    -2.3393915803
   28      H      -4.8520469880    -3.3910996941    -0.6124263713
   29      H      -7.1903877953    -1.8740341077    -1.7820465959
   30      H      -6.9162008897    -2.2424740073    -0.0502742557
   31      H      -6.6006293837     0.4272184579    -0.8375800729
   32      O       1.9349801425    -1.4519258960    -1.1482421807
   33      C       4.7755466990    -1.6597629518     3.4044806182
   34      C       5.8357005967     0.9278641804     0.0477934668
   35      C       6.7560158808     1.1873427421    -1.2100789962
   36      C       5.6900523834     1.6226816368    -2.2826600629
   37      C       4.3520367529     1.4841013013    -1.4548106995
   38      O       4.7476037640     1.9202767790    -0.0949176875
   39      H       5.7724182688    -1.2517871660    -0.4863725259
   40      H       4.2643818330    -0.6198203361    -2.2112202893
   41      H       4.1677685094    -2.5778683821     3.2697696052
   42      H       6.3348621277     1.0289315821     1.0310536252
   43      H       7.4753473452     1.9950601381    -1.0018571012
   44      H       7.3136645516     0.2844182089    -1.5057341104
   45      H       5.8391048847     2.6682133863    -2.5961898310
   46      H       5.6964221599     0.9802888606    -3.1773927633
   47      H       3.4993186258     2.0865372043    -1.8214167490
   48      H       4.1266257995    -0.8659135642     3.8270466088
   49      H       5.6108188079    -1.8666885331     4.0983676301
   50      H      -3.7211947392     1.8364875568     4.2239877618
   51      H      -4.9900502956     2.6763690499     3.2422356435
   52      H      -3.2780775986     2.6680730278     2.6797090600
   53      H      -0.8501830983     1.6919613267    -1.3197140851
   54      H       0.0692479231     0.3926140752    -2.1810876256
   55      H       0.2516602614     1.2465861285     0.7723799091
   56      H       0.4376538144    -0.5172326667     0.3889338548
 ----------------------------------------------------------------

    9   -1510.2832289233      3.07E-09 Convergence criterion met
 Total energy in the final basis set = -1510.28322892
 Final energy is   -1510.28322892331
 **  OPTIMIZATION CONVERGED  **

                    Orbital Energies (a.u.)
 --------------------------------------------------------------

 Alpha MOs
 -- Occupied --
-18.944 -18.939 -18.924 -18.916 -18.889 -18.887 -18.881 -18.880
-18.861 -18.858 -10.108 -10.102 -10.093 -10.087 -10.071 -10.069
-10.063 -10.062 -10.059 -10.054 -10.053 -10.050 -10.042 -10.037
-10.035 -10.028 -10.022 -10.020 -10.016 -10.015  -1.021  -1.016
 -1.001  -0.994  -0.971  -0.964  -0.945  -0.939  -0.927  -0.921
 -0.764  -0.758  -0.725  -0.721  -0.712  -0.703  -0.688  -0.668
 -0.650  -0.615  -0.595  -0.579  -0.547  -0.540  -0.538  -0.533
 -0.514  -0.505  -0.483  -0.476  -0.464  -0.453  -0.450  -0.446
 -0.435  -0.430  -0.426  -0.417  -0.410  -0.402  -0.399  -0.396
 -0.387  -0.379  -0.379  -0.364  -0.361  -0.357  -0.347  -0.345
 -0.338  -0.336  -0.331  -0.330  -0.327  -0.326  -0.319  -0.315
 -0.308  -0.306  -0.303  -0.301  -0.296  -0.283  -0.278  -0.272
 -0.271  -0.262  -0.255  -0.242  -0.240  -0.234  -0.229  -0.188
 -0.185  -0.164  -0.161  -0.160  -0.154  -0.147  -0.142  -0.140
 -0.138

          Ground-State Mulliken Net Atomic Charges

     Atom                 Charge (a.u.)
  ----------------------------------------
      1 O                    -0.206247
      2 C                     0.214925
      3 C                    -0.077829
      4 C                    -0.081839
      5 C                     0.213811
      6 O                    -0.172036
      7 C                    -0.051797
      8 C                    -0.049390
      9 O                    -0.166456
     10 C                     0.214247
     11 C                    -0.076081
     12 C                    -0.082064
     13 C                     0.214207
     14 O                    -0.218437
     15 O                    -0.168726
     16 O                    -0.174223
     17 O                    -0.211375
     18 C                    -0.128068
     19 C                     0.022770
     20 C                    -0.145225
     21 C                    -0.142663
     22 C                     0.023108
     23 O                    -0.192107
     24 H                     0.087174
     25 H                     0.083120
     26 H                     0.091810
     27 H                     0.077635
     28 H                     0.072915
     29 H                     0.077234
     30 H                     0.072662
     31 H                     0.088725
     32 O                    -0.221460
     33 C                    -0.128122
     34 C                     0.025017
     35 C                    -0.144104
     36 C                    -0.144020
     37 C                     0.025761
     38 O                    -0.188446
     39 H                     0.087336
     40 H                     0.082961
     41 H                     0.090921
     42 H                     0.086172
     43 H                     0.078422
     44 H                     0.073749
     45 H                     0.078130
     46 H                     0.073489
     47 H                     0.088761
     48 H                     0.092198
     49 H                     0.092384
     50 H                     0.085528
     51 H                     0.086548
     52 H                     0.091252
     53 H                     0.092148
     54 H                     0.092058
     55 H                     0.095697
     56 H                     0.097838
  ----------------------------------------
  Sum of atomic charges =    -0.000000

                    Cartesian Multipole Moments
 -----------------------------------------------------------------
    Charge (ESU x 10^10)
                 0.0000
    Dipole Moment (Debye)
         X       2.8343      Y      -2.0620      Z       0.8655
       Tot       3.6103
    Quadrupole Moments (Debye-Ang)
        XX    -143.5686     XY       8.0214     YY    -162.2753
        XZ      -5.5353     YZ      -2.8665     ZZ    -151.0028

 Total job time:  62.15s(wall), 2953.86s(cpu)
        *  Thank you very much for using Q-Chem.  Have a nice day.  *
