 Q-Chem 5.0, Q-Chem, Inc., Pleasanton, CA (2017)
 Q-Chem 5.0.1 for Intel X86 EM64T Linux

User input:
--------------------------------------------------------------
$molecule
0  1
O 3.1607337108 -0.9896716528 1.4011335909
C 4.3895105877 -0.910910878 1.1745462955
C 5.0802288912 -0.456483956 -0.1554136452
C 4.0389895548 -0.0634628243 -1.2835556487
C 2.5408837864 -0.3825974507 -0.9181397992
O 1.9173165773 0.8035856249 -0.3996267201
C 0.5187637574 0.5151196161 -0.0152155787
C -0.4669574773 0.6522333505 -1.246215027
O -1.590526207 -0.3147710592 -1.1745413484
C -2.4878957621 0.0447137244 -0.1229707679
C -3.6283721086 -1.0336681208 -0.0142980335
C -4.9784362488 -0.4076631899 0.5279876229
C -4.8219467875 0.9986008052 1.21307835
O -5.2431517249 2.0996643042 0.7993042058
O 5.4005842309 -1.2312731652 2.1306209968
O -4.2765095433 0.7775611261 2.5233753215
O -2.3809509059 1.094299294 0.5515589506
C -4.0589472732 2.0750948108 3.1986303212
C -4.0873671467 -1.4702278558 -1.4688658524
C -5.1425584192 -2.6424011201 -1.3670638135
C -6.446718837 -1.8563271875 -0.9690715105
C -5.8666580147 -0.4004915126 -0.7864924261
O -4.887330852 -0.2959088878 -1.8942971652
H -3.2773541112 -1.8800689266 0.6039753982
H -5.4152047913 -1.0810541219 1.287315515
H -3.2468888611 -1.6439052173 -2.1675042252
H -5.2529533949 -3.1478794185 -2.3393915803
H -4.852046988 -3.3910996941 -0.6124263713
H -7.1903877953 -1.8740341077 -1.7820465959
H -6.9162008897 -2.2424740073 -0.0502742557
H -6.6006293837 0.4272184579 -0.8375800729
O 1.9349801425 -1.451925896 -1.1482421807
C 4.775546699 -1.6597629518 3.4044806182
C 5.8357005967 0.9278641804 0.0477934668
C 6.7560158808 1.1873427421 -1.2100789962
C 5.6900523834 1.6226816368 -2.2826600629
C 4.3520367529 1.4841013013 -1.4548106995
O 4.747603764 1.920276779 -0.0949176875
H 5.7724182688 -1.251787166 -0.4863725259
H 4.264381833 -0.6198203361 -2.2112202893
H 4.1677685094 -2.5778683821 3.2697696052
H 6.3348621277 1.0289315821 1.0310536252
H 7.4753473452 1.9950601381 -1.0018571012
H 7.3136645516 0.2844182089 -1.5057341104
H 5.8391048847 2.6682133863 -2.596189831
H 5.6964221599 0.9802888606 -3.1773927633
H 3.4993186258 2.0865372043 -1.821416749
H 4.1266257995 -0.8659135642 3.8270466088
H 5.6108188079 -1.8666885331 4.0983676301
H -3.7211947392 1.8364875568 4.2239877618
H -4.9900502956 2.6763690499 3.2422356435
H -3.2780775986 2.6680730278 2.67970906
H -0.8501830983 1.6919613267 -1.3197140851
H 0.0692479231 0.3926140752 -2.1810876256
H 0.2516602614 1.2465861285 0.7723799091
H 0.4376538144 -0.5172326667 0.3889338548
$end

$rem
JOBTYPE                   OPT
METHOD                    B3LYP
DFT_D                     d3_op
BASIS                     STO-3G
GEOM_OPT_MAX_CYCLES       100
GEOM_OPT_TOL_GRADIENT     300
GEOM_OPT_TOL_DISPLACEMENT 1200
GEOM_OPT_TOL_ENERGY       100
SYMMETRY                  False
THRESH                    12
SCF_CONVERGENCE           8
MAX_SUB_FILE_NUM          128
MEM_STATIC                400
MEM_TOTAL                 4000
$end
--------------------------------------------------------------

   16   -1510.2831649480      5.72E-09 Convergence criterion met
 Total energy in the final basis set = -1510.28316495
   13   -1510.2842847775      7.82E-09 Convergence criterion met
 Total energy in the final basis set = -1510.28428478
   13   -1510.2849521969      3.96E-09 Convergence criterion met
 Total energy in the final basis set = -1510.28495220
   13   -1510.2856857521      3.56E-09 Convergence criterion met
 Total energy in the final basis set = -1510.28568575
   13   -1510.2862878681      3.96E-09 Convergence criterion met
 Total energy in the final basis set = -1510.28628787
   13   -1510.2867739001      4.56E-09 Convergence criterion met
 Total energy in the final basis set = -1510.28677390
   13   -1510.2871948502      4.01E-09 Convergence criterion met
 Total energy in the final basis set = -1510.28719485
   13   -1510.2874789426      4.38E-09 Convergence criterion met
   13   -1510.2876649861      3.79E-09 Convergence criterion met
 Total energy in the final basis set = -1510.28766499
   13   -1510.2880469792      2.43E-09 Convergence criterion met
 Total energy in the final basis set = -1510.28804698
   13   -1510.2879907383      2.63E-09 Convergence criterion met
 Total energy in the final basis set = -1510.28799074
   12   -1510.2880626362      7.63E-09 Convergence criterion met
 Total energy in the final basis set = -1510.28806264
   12   -1510.2880515210      4.33E-09 Convergence criterion met
 Total energy in the final basis set = -1510.28805152
   11   -1510.2880680538      5.69E-09 Convergence criterion met
 Total energy in the final basis set = -1510.28806805

             Standard Nuclear Orientation (Angstroms)
    I     Atom           X                Y                Z
 ----------------------------------------------------------------
    1      O       3.4179808478    -0.6243182302    -2.1098766983
    2      C       4.5004932395    -0.8016933408    -1.5065487667
    3      C       5.1072022685     0.0783174658    -0.3626972100
    4      C       4.1300983674     1.2250497070     0.1264293268
    5      C       2.7516850435     1.2659348791    -0.6326170759
    6      O       1.8665545606     0.3113961376    -0.0261960605
    7      C       0.5928334345     0.2336563323    -0.7763631291
    8      C      -0.3282633469     1.4901082759    -0.5310154748
    9      O      -1.6669031980     1.2746801891    -1.1339008699
   10      C      -2.5238733125     0.5900246322    -0.2177049758
   11      C      -3.9089786368     0.3625384926    -0.9088435809
   12      C      -4.9020111368    -0.5024380898    -0.0307710043
   13      C      -4.2912750569    -1.0287083999     1.3217788754
   14      O      -4.5489939463    -0.6298249276     2.4767797415
   15      O       5.3966728694    -1.8802543514    -1.7770208455
   16      O      -3.4830638404    -2.1765847646     1.0160274140
   17      O      -2.1965419220     0.2647759121     0.9463727419
   18      C      -2.8304822030    -2.6685788007     2.2488527720
   19      C      -4.7240278691     1.7253092361    -1.0243587506
   20      C      -5.9361850570     1.4953497932    -2.0114558221
   21      C      -6.9169044451     0.6659535608    -1.1012883128
   22      C      -6.0676144499     0.5416773836     0.2237485065
   23      O      -5.3629362133     1.8433243527     0.3039473154
   24      H      -3.7372579457    -0.0854434610    -1.9041133465
   25      H      -5.2570611894    -1.3770906040    -0.6046558609
   26      H      -4.0971543610     2.6123471349    -1.2407864095
   27      H      -6.3773916176     2.4591039302    -2.3112292385
   28      H      -5.6308693916     0.9485658457    -2.9178674107
   29      H      -7.8522223029     1.2162351198    -0.9106875261
   30      H      -7.1659768865    -0.3183125832    -1.5287626960
   31      H      -6.6436167475     0.3603436944     1.1519532808
   32      O       2.4225554200     2.0646223665    -1.5367988336
   33      C       4.8423997148    -2.7457944444    -2.8449103072
   34      C       5.3071510056    -0.7489311948     0.9808820532
   35      C       6.2679408114     0.0729060303     1.9258192285
   36      C       5.3039102271     1.2167116101     2.4154772114
   37      C       3.9690497201     0.8366272721     1.6596054991
   38      O       3.9896054169    -0.6447960437     1.6442720379
   39      H       6.0695960243     0.4899847069    -0.7185627289
   40      H       4.6006605908     2.2162254530     0.0014555318
   41      H       4.7198528662    -2.1901024640    -3.7970125587
   42      H       5.5860957500    -1.8084003059     0.8200288476
   43      H       6.6097430266    -0.5542919321     2.7644201331
   44      H       7.1500264603     0.4566692886     1.3888829254
   45      H       5.1518518282     1.1767906642     3.5057805520
   46      H       5.6634655437     2.2225566650     2.1455824501
   47      H       3.0371253218     1.2043106848     2.1300623304
   48      H       3.8594959539    -3.1699820401    -2.5549955272
   49      H       5.5733097846    -3.5633473503    -2.9841420151
   50      H      -2.2701834682    -3.5769402718     1.9601611482
   51      H      -3.5724980995    -2.9224641071     3.0333813116
   52      H      -2.1279614288    -1.9134894563     2.6578068295
   53      H      -0.4178521872     1.6758694020     0.5602615338
   54      H       0.1078308680     2.3736703673    -1.0377223366
   55      H       0.0838791156    -0.6746626979    -0.3945147021
   56      H       0.7854393760     0.1186593104    -1.8644376473
 ----------------------------------------------------------------

    9   -1510.2880687402      9.75E-09 Convergence criterion met
 Total energy in the final basis set = -1510.28806874
 Final energy is   -1510.28806874019
 **  OPTIMIZATION CONVERGED  **

                    Orbital Energies (a.u.)
 --------------------------------------------------------------

 Alpha MOs
 -- Occupied --
-18.945 -18.938 -18.924 -18.915 -18.889 -18.888 -18.884 -18.883
-18.863 -18.857 -10.109 -10.103 -10.094 -10.086 -10.071 -10.065
-10.064 -10.062 -10.060 -10.058 -10.054 -10.050 -10.042 -10.037
-10.035 -10.029 -10.022 -10.020 -10.018 -10.016  -1.022  -1.016
 -1.002  -0.993  -0.971  -0.967  -0.945  -0.940  -0.928  -0.920
 -0.764  -0.760  -0.726  -0.721  -0.713  -0.704  -0.690  -0.668
 -0.650  -0.615  -0.596  -0.579  -0.547  -0.541  -0.538  -0.534
 -0.514  -0.507  -0.486  -0.473  -0.464  -0.454  -0.450  -0.444
 -0.435  -0.432  -0.428  -0.418  -0.410  -0.404  -0.399  -0.394
 -0.390  -0.381  -0.377  -0.362  -0.361  -0.355  -0.350  -0.344
 -0.338  -0.336  -0.334  -0.329  -0.328  -0.326  -0.321  -0.315
 -0.310  -0.307  -0.301  -0.301  -0.298  -0.283  -0.277  -0.273
 -0.271  -0.263  -0.255  -0.242  -0.240  -0.235  -0.231  -0.189
 -0.185  -0.163  -0.162  -0.160  -0.157  -0.145  -0.143  -0.142
 -0.137

          Ground-State Mulliken Net Atomic Charges

     Atom                 Charge (a.u.)
  ----------------------------------------
      1 O                    -0.207911
      2 C                     0.215035
      3 C                    -0.078324
      4 C                    -0.081638
      5 C                     0.214436
      6 O                    -0.170001
      7 C                    -0.049121
      8 C                    -0.056135
      9 O                    -0.170961
     10 C                     0.213807
     11 C                    -0.077893
     12 C                    -0.081659
     13 C                     0.215943
     14 O                    -0.216676
     15 O                    -0.168773
     16 O                    -0.177799
     17 O                    -0.207126
     18 C                    -0.128808
     19 C                     0.025301
     20 C                    -0.143808
     21 C                    -0.143968
     22 C                     0.024865
     23 O                    -0.188989
     24 H                     0.086640
     25 H                     0.083064
     26 H                     0.085435
     27 H                     0.077989
     28 H                     0.073461
     29 H                     0.077619
     30 H                     0.072929
     31 H                     0.088968
     32 O                    -0.221531
     33 C                    -0.128042
     34 C                     0.025147
     35 C                    -0.143699
     36 C                    -0.144417
     37 C                     0.026851
     38 O                    -0.186711
     39 H                     0.086847
     40 H                     0.083396
     41 H                     0.090823
     42 H                     0.087194
     43 H                     0.078397
     44 H                     0.073564
     45 H                     0.078477
     46 H                     0.073706
     47 H                     0.086978
     48 H                     0.091859
     49 H                     0.092524
     50 H                     0.085206
     51 H                     0.086258
     52 H                     0.092278
     53 H                     0.094568
     54 H                     0.099945
     55 H                     0.089872
     56 H                     0.094608
  ----------------------------------------
  Sum of atomic charges =     0.000000

                    Cartesian Multipole Moments
 -----------------------------------------------------------------
    Charge (ESU x 10^10)
                 0.0000
    Dipole Moment (Debye)
         X       2.6143      Y      -1.4676      Z      -2.0758
       Tot       3.6466
    Quadrupole Moments (Debye-Ang)
        XX    -138.7380     XY       3.0849     YY    -156.0197
        XZ      12.1743     YZ       4.6902     ZZ    -161.8268

 Total job time:  53.96s(wall), 2564.12s(cpu)
        *  Thank you very much for using Q-Chem.  Have a nice day.  *
