 Q-Chem 5.0, Q-Chem, Inc., Pleasanton, CA (2017)
 Q-Chem 5.0.1 for Intel X86 EM64T Linux

User input:
--------------------------------------------------------------
$molecule
0  1
O 3.0208645537 -0.8741526044 1.4287734198
C 4.2539414178 -0.9051482398 1.2152582347
C 5.0032180663 -0.4784846785 -0.0907159462
C 4.0222438805 -0.1429682501 -1.2894941628
C 2.5006298528 -0.3824359588 -0.9603321021
O 1.9181601873 0.84775136 -0.5040328228
C 0.5035992469 0.6360253111 -0.1266064013
C -0.453961783 0.6422688292 -1.3890400228
O -1.5799520632 -0.3187613671 -1.2733353467
C -2.4206456388 0.0199040827 -0.1708787444
C -3.5874011746 -1.0289098392 -0.0592569763
C -4.8969896852 -0.3920808004 0.56649448
C -4.6863304318 1.0126138642 1.2399051136
O -5.0491675637 2.12739741 0.8076925215
O 5.2208164266 -1.3360238958 2.1742788073
O -4.1530861295 0.7840451341 2.553575118
O -2.262162472 1.0398011558 0.5384131394
C -3.8712156966 2.0792596173 3.20942461
C -4.119479669 -1.4126571577 -1.503771822
C -5.1717846671 -2.5857550728 -1.3840516208
C -6.446058849 -1.811463696 -0.8802930052
C -5.8557613732 -0.3597981589 -0.6970797475
O -4.9378925241 -0.226501206 -1.8527882058
H -3.235145895 -1.9056866831 0.5145958428
H -5.2980337938 -1.064740287 1.345719819
H -3.3155084748 -1.5657076604 -2.2486812311
H -5.3419476231 -3.0531051521 -2.3667423429
H -4.8415511485 -3.363978784 -0.677071825
H -7.2420996082 -1.8090524932 -1.6423397825
H -6.8544681644 -2.2211802905 0.0573091465
H -6.592027931 0.4672991547 -0.6909961007
O 1.8583483266 -1.4376401944 -1.1544380636
C 4.5446769563 -1.7295534136 3.4332869033
C 5.7417964735 0.9188471362 0.0948300453
C 6.7553189856 1.1064155678 -1.1019286816
C 5.7719746608 1.4560528852 -2.2796337181
C 4.3757451831 1.3843550935 -1.5430261206
O 4.6753197887 1.903809938 -0.1878111163
H 5.7217806938 -1.2745163031 -0.3570793485
H 4.2657921875 -0.7670061509 -2.1678592568
H 3.8210010025 -2.5531107843 3.2657460337
H 6.166854232 1.0774558116 1.1050341459
H 7.4475321576 1.9373146408 -0.8923662398
H 7.3446065631 0.195196872 -1.2931886934
H 5.9503605953 2.4725684984 -2.6647846575
H 5.8382427635 0.7436849651 -3.1173166932
H 3.5619150211 1.9707654926 -2.0101775502
H 4.0061489628 -0.8744406407 3.890627874
H 5.34521306 -2.0710699079 4.114868163
H -3.550824936 1.8402837776 4.2402383227
H -4.7695627591 2.729275915 3.2382875729
H -3.0580688969 2.6217754996 2.6846712337
H -0.8401873658 1.6683492089 -1.5692645656
H 0.1072808198 0.3052151047 -2.283320725
H 0.2400696238 1.4642949603 0.5591474161
H 0.390241365 -0.3341988906 0.4041883032
$end

$rem
JOBTYPE                   OPT
METHOD                    B3LYP
DFT_D                     d3_op
BASIS                     STO-3G
GEOM_OPT_MAX_CYCLES       100
GEOM_OPT_TOL_GRADIENT     300
GEOM_OPT_TOL_DISPLACEMENT 1200
GEOM_OPT_TOL_ENERGY       100
SYMMETRY                  False
THRESH                    12
SCF_CONVERGENCE           8
MAX_SUB_FILE_NUM          128
MEM_STATIC                400
MEM_TOTAL                 4000
$end
--------------------------------------------------------------

   16   -1510.2832397155      5.38E-09 Convergence criterion met
 Total energy in the final basis set = -1510.28323972
   12   -1510.2842791268      5.98E-09 Convergence criterion met
 Total energy in the final basis set = -1510.28427913
   13   -1510.2850057583      4.82E-09 Convergence criterion met
 Total energy in the final basis set = -1510.28500576
   13   -1510.2856798155      2.85E-09 Convergence criterion met
 Total energy in the final basis set = -1510.28567982
   13   -1510.2862324680      5.25E-09 Convergence criterion met
 Total energy in the final basis set = -1510.28623247
   13   -1510.2867062202      5.04E-09 Convergence criterion met
 Total energy in the final basis set = -1510.28670622
   13   -1510.2871340657      4.44E-09 Convergence criterion met
 Total energy in the final basis set = -1510.28713407
   13   -1510.2873986533      5.95E-09 Convergence criterion met
   12   -1510.2880988335      3.53E-09 Convergence criterion met
 Total energy in the final basis set = -1510.28809883
   12   -1510.2881042320      2.67E-09 Convergence criterion met
 Total energy in the final basis set = -1510.28810423
   12   -1510.2880829792      6.18E-09 Convergence criterion met
 Total energy in the final basis set = -1510.28808298
   12   -1510.2881084580      3.69E-09 Convergence criterion met
 Total energy in the final basis set = -1510.28810846
   10   -1510.2881048885      3.65E-09 Convergence criterion met
 Total energy in the final basis set = -1510.28810489
   10   -1510.2881029578      9.39E-09 Convergence criterion met
 Total energy in the final basis set = -1510.28810296

             Standard Nuclear Orientation (Angstroms)
    I     Atom           X                Y                Z
 ----------------------------------------------------------------
    1      O       3.3654257595    -0.7360893449    -2.0952051730
    2      C       4.4531754495    -0.8971144065    -1.4967179043
    3      C       5.0985310045     0.0473223988    -0.4277627283
    4      C       4.1457038068     1.2336988819     0.0115775620
    5      C       2.7495994130     1.2443300303    -0.7154732800
    6      O       1.8708806887     0.3324029523    -0.0381870150
    7      C       0.5826680791     0.2216263558    -0.7588222375
    8      C      -0.3313909533     1.4907756115    -0.5566622286
    9      O      -1.6740124742     1.2612857148    -1.1455735553
   10      C      -2.5223526133     0.5880876268    -0.2131453793
   11      C      -3.9122974003     0.3490719258    -0.8906872601
   12      C      -4.8931532751    -0.5157541669     0.0012565282
   13      C      -4.2679243884    -1.0309205296     1.3514367822
   14      O      -4.5210223425    -0.6295200818     2.5065763842
   15      O       5.3209730936    -2.0117859647    -1.7057041752
   16      O      -3.4503963725    -2.1719364028     1.0445989779
   17      O      -2.1856442415     0.2795205673     0.9527795729
   18      C      -2.7851226712    -2.6530064894     2.2749700731
   19      C      -4.7351657443     1.7070702874    -1.0068480526
   20      C      -5.9550246791     1.4654201982    -1.9816306005
   21      C      -6.9233064757     0.6361871321    -1.0580229328
   22      C      -6.0617490339     0.5239389666     0.2600142991
   23      O      -5.3628448010     1.8295516163     0.3264019998
   24      H      -3.7469725513    -0.1037294707    -1.8848406792
   25      H      -5.2490077517    -1.3952807596    -0.5646149132
   26      H      -4.1148185380     2.5960131548    -1.2340154178
   27      H      -6.4038958322     2.4251544416    -2.2828790909
   28      H      -5.6550090556     0.9150001343    -2.8876167121
   29      H      -7.8597213181     1.1827620403    -0.8622405223
   30      H      -7.1711563154    -0.3517735695    -1.4776311041
   31      H      -6.6285198488     0.3450750278     1.1943482397
   32      O       2.4071084777     1.9955247455    -1.6546907507
   33      C       4.7333377251    -2.9330595640    -2.7069540524
   34      C       5.3281100517    -0.6925017166     0.9609945181
   35      C       6.3183406651     0.1804378488     1.8270087568
   36      C       5.3738665271     1.3589467284     2.2694844606
   37      C       4.0192076690     0.9451468191     1.5693671893
   38      O       4.0282507047    -0.5346475136     1.6488652961
   39      H       6.0540770601     0.4248705022    -0.8359568451
   40      H       4.6228290695     2.2093160390    -0.1878420726
   41      H       4.5960474196    -2.4344633680    -3.6881622097
   42      H       5.5959517608    -1.7623145868     0.8617582545
   43      H       6.6791089848    -0.3957262837     2.6937088440
   44      H       7.1874581308     0.5244074194     1.2440433904
   45      H       5.2465293026     1.3841585842     3.3634004962
   46      H       5.7345026705     2.3444982506     1.9335972063
   47      H       3.1018767264     1.3505983621     2.0375496178
   48      H       3.7523463029    -3.3267294015    -2.3708412186
   49      H       5.4515482641    -3.7668759162    -2.8115912737
   50      H      -2.2185397175    -3.5574443974     1.9862216635
   51      H      -3.5194541134    -2.9102716762     3.0655925158
   52      H      -2.0867421025    -1.8898425016     2.6760632026
   53      H      -0.4131273312     1.7199048281     0.5269185151
   54      H       0.1058889552     2.3518181513    -1.0998007842
   55      H       0.0792340145    -0.6657832752    -0.3241669124
   56      H       0.7539984703     0.0548040800    -1.8437688605
 ----------------------------------------------------------------

    9   -1510.2881037026      9.09E-09 Convergence criterion met
 Total energy in the final basis set = -1510.28810370
 Final energy is   -1510.28810370265
 **  OPTIMIZATION CONVERGED  **

                    Orbital Energies (a.u.)
 --------------------------------------------------------------

 Alpha MOs
 -- Occupied --
-18.945 -18.938 -18.924 -18.915 -18.889 -18.888 -18.884 -18.882
-18.863 -18.857 -10.109 -10.103 -10.094 -10.086 -10.071 -10.065
-10.064 -10.062 -10.060 -10.058 -10.054 -10.050 -10.042 -10.037
-10.035 -10.029 -10.022 -10.020 -10.018 -10.016  -1.022  -1.016
 -1.002  -0.993  -0.971  -0.967  -0.945  -0.940  -0.928  -0.920
 -0.764  -0.760  -0.726  -0.721  -0.713  -0.704  -0.690  -0.668
 -0.650  -0.615  -0.596  -0.579  -0.547  -0.541  -0.538  -0.534
 -0.514  -0.507  -0.486  -0.473  -0.464  -0.454  -0.450  -0.444
 -0.435  -0.432  -0.428  -0.418  -0.410  -0.404  -0.399  -0.393
 -0.390  -0.381  -0.378  -0.362  -0.361  -0.355  -0.350  -0.344
 -0.338  -0.336  -0.334  -0.329  -0.328  -0.326  -0.321  -0.315
 -0.310  -0.307  -0.301  -0.301  -0.298  -0.283  -0.277  -0.273
 -0.271  -0.263  -0.255  -0.242  -0.240  -0.235  -0.231  -0.189
 -0.185  -0.163  -0.162  -0.160  -0.157  -0.145  -0.143  -0.142
 -0.137

          Ground-State Mulliken Net Atomic Charges

     Atom                 Charge (a.u.)
  ----------------------------------------
      1 O                    -0.208054
      2 C                     0.215133
      3 C                    -0.078309
      4 C                    -0.081685
      5 C                     0.214407
      6 O                    -0.170056
      7 C                    -0.049311
      8 C                    -0.055794
      9 O                    -0.170847
     10 C                     0.213766
     11 C                    -0.077912
     12 C                    -0.081633
     13 C                     0.215945
     14 O                    -0.216532
     15 O                    -0.168751
     16 O                    -0.177826
     17 O                    -0.207226
     18 C                    -0.128839
     19 C                     0.025301
     20 C                    -0.143797
     21 C                    -0.143968
     22 C                     0.024845
     23 O                    -0.188993
     24 H                     0.086661
     25 H                     0.083052
     26 H                     0.085342
     27 H                     0.077991
     28 H                     0.073477
     29 H                     0.077619
     30 H                     0.072928
     31 H                     0.089007
     32 O                    -0.221426
     33 C                    -0.127984
     34 C                     0.025031
     35 C                    -0.143759
     36 C                    -0.144347
     37 C                     0.026767
     38 O                    -0.186707
     39 H                     0.086809
     40 H                     0.083448
     41 H                     0.090951
     42 H                     0.087365
     43 H                     0.078406
     44 H                     0.073540
     45 H                     0.078477
     46 H                     0.073696
     47 H                     0.086800
     48 H                     0.091752
     49 H                     0.092537
     50 H                     0.085173
     51 H                     0.086318
     52 H                     0.092284
     53 H                     0.094143
     54 H                     0.099787
     55 H                     0.090242
     56 H                     0.094755
  ----------------------------------------
  Sum of atomic charges =     0.000000

                    Cartesian Multipole Moments
 -----------------------------------------------------------------
    Charge (ESU x 10^10)
                 0.0000
    Dipole Moment (Debye)
         X       2.5922      Y      -1.4897      Z      -2.0816
       Tot       3.6431
    Quadrupole Moments (Debye-Ang)
        XX    -138.6004     XY       3.2538     YY    -155.0436
        XZ      11.9481     YZ       4.5478     ZZ    -162.9675

 Total job time:  67.32s(wall), 3202.58s(cpu)
        *  Thank you very much for using Q-Chem.  Have a nice day.  *
