 Q-Chem 5.0, Q-Chem, Inc., Pleasanton, CA (2017)
 Q-Chem 5.0.1 for Intel X86 EM64T Linux

User input:
--------------------------------------------------------------
$molecule
0  1
O -3.94934 -3.66094 2.70899
C -3.26408 -4.56952 2.26188
C -3.36658 -6.02376 2.66595
C -4.28848 -6.36091 3.84929
C -5.14152 -5.2314 4.38277
O -6.37062 -5.25721 3.78773
C -7.21753 -4.17837 4.19774
C -7.86502 -4.49961 5.54075
O -7.98061 -3.30321 6.32698
C -8.7686 -2.33323 5.80035
C -8.83058 -1.09376 6.66088
C -10.13991 -0.29811 6.55658
C -11.30328 -1.02209 5.90917
O -12.28134 -1.46019 6.49742
O -2.38315 -4.29346 1.26465
O -11.29542 -1.08129 4.55127
O -9.08521 -2.29791 4.62071
C -12.28736 -1.663 3.78932
C -8.77008 -1.34445 8.18686
C -8.25768 -0.08928 8.89141
C -9.44484 0.83359 8.72221
C -10.44252 -0.12409 8.06119
O -10.11429 -1.38454 8.59101
H -7.95503 -0.47465 6.36136
H -10.03518 0.68702 6.05078
H -8.14636 -2.21286 8.48743
H -8.15619 -0.34095 9.97177
H -7.28969 0.30815 8.5173
H -9.79941 1.13724 9.7323
H -9.2636 1.73296 8.09463
H -11.48225 0.22625 8.24567
O -4.73518 -4.37192 5.15765
C -2.17677 -3.0365 0.73605
C -3.94819 -6.9095 1.55268
C -3.48594 -8.35225 1.74559
C -4.30234 -8.74819 2.95705
C -5.12945 -7.47378 3.16417
O -5.31702 -6.98178 1.85891
H -2.32276 -6.33174 2.90133
H -3.76264 -6.80231 4.72473
H -1.81984 -2.34266 1.52697
H -3.69231 -6.556 0.52988
H -3.84424 -8.93836 0.86911
H -2.38701 -8.4804 1.85027
H -4.96846 -9.59195 2.66896
H -3.71469 -9.02156 3.85985
H -6.05249 -7.71874 3.73489
H -3.11864 -2.64843 0.29254
H -1.40635 -3.09848 -0.05962
H -12.02273 -1.57035 2.71609
H -13.25659 -1.14908 3.96471
H -12.38114 -2.74064 4.04288
H -8.82467 -5.04929 5.4238
H -7.18457 -5.15282 6.12617
H -8.00198 -4.02959 3.42718
H -6.62898 -3.23068 4.22917
$end

$opt
CONSTRAINT
tors           1           2           3           4      -7.623
tors           3           4           5           6     +93.880
tors           4           5           6           7    -177.328
tors           5           6           7           8     -81.123
tors           6           7           8           9    +144.080
tors           7           8           9          10     +62.462
tors           8           9          10          11    -179.010
tors           9          10          11          12    -150.675
tors          11          12          13          14    +106.721
ENDCONSTRAINT
$end

$rem
JOBTYPE                   OPT
METHOD                    B3LYP
DFT_D                     d3_op
BASIS                     STO-3G
GEOM_OPT_MAX_CYCLES       100
GEOM_OPT_TOL_GRADIENT     300
GEOM_OPT_TOL_DISPLACEMENT 1200
GEOM_OPT_TOL_ENERGY       100
SYMMETRY                  False
THRESH                    12
SCF_CONVERGENCE           8
MAX_SUB_FILE_NUM          128
MEM_STATIC                400
MEM_TOTAL                 4000
$end
--------------------------------------------------------------

   15   -1510.1441166744      6.53E-09 Convergence criterion met
 Total energy in the final basis set = -1510.14411667
   14   -1510.2146990465      8.02E-09 Convergence criterion met
 Total energy in the final basis set = -1510.21469905
   14   -1510.2524154851      5.97E-09 Convergence criterion met
 Total energy in the final basis set = -1510.25241549
   14   -1510.2691053700      6.77E-09 Convergence criterion met
 Total energy in the final basis set = -1510.26910537
   13   -1510.2752031296      4.99E-09 Convergence criterion met
 Total energy in the final basis set = -1510.27520313
   13   -1510.2778729967      4.07E-09 Convergence criterion met
 Total energy in the final basis set = -1510.27787300
   13   -1510.2793001743      2.92E-09 Convergence criterion met
 Total energy in the final basis set = -1510.27930017
   13   -1510.2802125669      2.95E-09 Convergence criterion met
   11   -1510.2832469672      9.29E-09 Convergence criterion met
 Total energy in the final basis set = -1510.28324697
   10   -1510.2832926558      9.23E-09 Convergence criterion met
 Total energy in the final basis set = -1510.28329266
   11   -1510.2833183064      4.63E-09 Convergence criterion met
 Total energy in the final basis set = -1510.28331831
    9   -1510.2833330028      9.76E-09 Convergence criterion met
 Total energy in the final basis set = -1510.28333300
   11   -1510.2833445443      3.04E-09 Convergence criterion met
 Total energy in the final basis set = -1510.28334454
    9   -1510.2833473884      6.13E-09 Convergence criterion met
 Total energy in the final basis set = -1510.28334739

             Standard Nuclear Orientation (Angstroms)
    I     Atom           X                Y                Z
 ----------------------------------------------------------------
    1      O       3.0208645537    -0.8741526044     1.4287734198
    2      C       4.2539414178    -0.9051482398     1.2152582347
    3      C       5.0032180663    -0.4784846785    -0.0907159462
    4      C       4.0222438805    -0.1429682501    -1.2894941628
    5      C       2.5006298528    -0.3824359588    -0.9603321021
    6      O       1.9181601873     0.8477513600    -0.5040328228
    7      C       0.5035992469     0.6360253111    -0.1266064013
    8      C      -0.4539617830     0.6422688292    -1.3890400228
    9      O      -1.5799520632    -0.3187613671    -1.2733353467
   10      C      -2.4206456388     0.0199040827    -0.1708787444
   11      C      -3.5874011746    -1.0289098392    -0.0592569763
   12      C      -4.8969896852    -0.3920808004     0.5664944800
   13      C      -4.6863304318     1.0126138642     1.2399051136
   14      O      -5.0491675637     2.1273974100     0.8076925215
   15      O       5.2208164266    -1.3360238958     2.1742788073
   16      O      -4.1530861295     0.7840451341     2.5535751180
   17      O      -2.2621624720     1.0398011558     0.5384131394
   18      C      -3.8712156966     2.0792596173     3.2094246100
   19      C      -4.1194796690    -1.4126571577    -1.5037718220
   20      C      -5.1717846671    -2.5857550728    -1.3840516208
   21      C      -6.4460588490    -1.8114636960    -0.8802930052
   22      C      -5.8557613732    -0.3597981589    -0.6970797475
   23      O      -4.9378925241    -0.2265012060    -1.8527882058
   24      H      -3.2351458950    -1.9056866831     0.5145958428
   25      H      -5.2980337938    -1.0647402870     1.3457198190
   26      H      -3.3155084748    -1.5657076604    -2.2486812311
   27      H      -5.3419476231    -3.0531051521    -2.3667423429
   28      H      -4.8415511485    -3.3639787840    -0.6770718250
   29      H      -7.2420996082    -1.8090524932    -1.6423397825
   30      H      -6.8544681644    -2.2211802905     0.0573091465
   31      H      -6.5920279310     0.4672991547    -0.6909961007
   32      O       1.8583483266    -1.4376401944    -1.1544380636
   33      C       4.5446769563    -1.7295534136     3.4332869033
   34      C       5.7417964735     0.9188471362     0.0948300453
   35      C       6.7553189856     1.1064155678    -1.1019286816
   36      C       5.7719746608     1.4560528852    -2.2796337181
   37      C       4.3757451831     1.3843550935    -1.5430261206
   38      O       4.6753197887     1.9038099380    -0.1878111163
   39      H       5.7217806938    -1.2745163031    -0.3570793485
   40      H       4.2657921875    -0.7670061509    -2.1678592568
   41      H       3.8210010025    -2.5531107843     3.2657460337
   42      H       6.1668542320     1.0774558116     1.1050341459
   43      H       7.4475321576     1.9373146408    -0.8923662398
   44      H       7.3446065631     0.1951968720    -1.2931886934
   45      H       5.9503605953     2.4725684984    -2.6647846575
   46      H       5.8382427635     0.7436849651    -3.1173166932
   47      H       3.5619150211     1.9707654926    -2.0101775502
   48      H       4.0061489628    -0.8744406407     3.8906278740
   49      H       5.3452130600    -2.0710699079     4.1148681630
   50      H      -3.5508249360     1.8402837776     4.2402383227
   51      H      -4.7695627591     2.7292759150     3.2382875729
   52      H      -3.0580688969     2.6217754996     2.6846712337
   53      H      -0.8401873658     1.6683492089    -1.5692645656
   54      H       0.1072808198     0.3052151047    -2.2833207250
   55      H       0.2400696238     1.4642949603     0.5591474161
   56      H       0.3902413650    -0.3341988906     0.4041883032
 ----------------------------------------------------------------

    9   -1510.2833478202      2.49E-09 Convergence criterion met
 Total energy in the final basis set = -1510.28334782
 Final energy is   -1510.28334782021
 **  OPTIMIZATION CONVERGED  **

                    Orbital Energies (a.u.)
 --------------------------------------------------------------

 Alpha MOs
 -- Occupied --
-18.943 -18.939 -18.924 -18.916 -18.889 -18.886 -18.881 -18.879
-18.861 -18.857 -10.107 -10.102 -10.093 -10.087 -10.070 -10.070
-10.063 -10.063 -10.059 -10.054 -10.053 -10.050 -10.042 -10.036
-10.035 -10.028 -10.022 -10.020 -10.016 -10.015  -1.020  -1.016
 -1.001  -0.994  -0.971  -0.965  -0.944  -0.939  -0.927  -0.921
 -0.764  -0.758  -0.725  -0.721  -0.712  -0.703  -0.688  -0.668
 -0.650  -0.615  -0.595  -0.580  -0.547  -0.540  -0.538  -0.532
 -0.514  -0.505  -0.483  -0.475  -0.463  -0.452  -0.449  -0.445
 -0.435  -0.431  -0.426  -0.417  -0.410  -0.402  -0.399  -0.396
 -0.388  -0.379  -0.376  -0.365  -0.360  -0.356  -0.348  -0.345
 -0.339  -0.336  -0.331  -0.330  -0.327  -0.324  -0.320  -0.314
 -0.308  -0.306  -0.302  -0.301  -0.296  -0.283  -0.278  -0.272
 -0.271  -0.261  -0.256  -0.242  -0.239  -0.234  -0.229  -0.188
 -0.184  -0.164  -0.161  -0.159  -0.154  -0.147  -0.142  -0.140
 -0.138

          Ground-State Mulliken Net Atomic Charges

     Atom                 Charge (a.u.)
  ----------------------------------------
      1 O                    -0.207021
      2 C                     0.213829
      3 C                    -0.078342
      4 C                    -0.081584
      5 C                     0.213151
      6 O                    -0.170896
      7 C                    -0.050186
      8 C                    -0.049044
      9 O                    -0.165883
     10 C                     0.214318
     11 C                    -0.076279
     12 C                    -0.082092
     13 C                     0.213967
     14 O                    -0.218623
     15 O                    -0.168936
     16 O                    -0.173944
     17 O                    -0.211548
     18 C                    -0.128104
     19 C                     0.022850
     20 C                    -0.145057
     21 C                    -0.142918
     22 C                     0.023588
     23 O                    -0.191666
     24 H                     0.086967
     25 H                     0.083212
     26 H                     0.091768
     27 H                     0.077588
     28 H                     0.072915
     29 H                     0.077130
     30 H                     0.072654
     31 H                     0.088144
     32 O                    -0.221437
     33 C                    -0.128280
     34 C                     0.025453
     35 C                    -0.143670
     36 C                    -0.144395
     37 C                     0.026275
     38 O                    -0.187196
     39 H                     0.087078
     40 H                     0.083056
     41 H                     0.091487
     42 H                     0.085083
     43 H                     0.078406
     44 H                     0.073864
     45 H                     0.078116
     46 H                     0.073435
     47 H                     0.088011
     48 H                     0.091120
     49 H                     0.092129
     50 H                     0.085507
     51 H                     0.086657
     52 H                     0.091269
     53 H                     0.089958
     54 H                     0.093059
     55 H                     0.098502
     56 H                     0.096551
  ----------------------------------------
  Sum of atomic charges =    -0.000000

                    Cartesian Multipole Moments
 -----------------------------------------------------------------
    Charge (ESU x 10^10)
                 0.0000
    Dipole Moment (Debye)
         X       2.8003      Y      -2.1279      Z       0.8315
       Tot       3.6140
    Quadrupole Moments (Debye-Ang)
        XX    -143.5318     XY       7.7465     YY    -162.2778
        XZ      -5.4262     YZ      -2.5093     ZZ    -150.7445

 Total job time:  57.96s(wall), 2752.27s(cpu)
        *  Thank you very much for using Q-Chem.  Have a nice day.  *
