 Q-Chem 5.0, Q-Chem, Inc., Pleasanton, CA (2017)
 Q-Chem 5.0.1 for Intel X86 EM64T Linux

User input:
--------------------------------------------------------------
$molecule
0  1
O 3.1415621791 -0.9722876282 1.3773954116
C 4.365154788 -0.9788139795 1.1127020021
C 5.0581852206 -0.4339145981 -0.1801412127
C 4.023229181 0.0190793408 -1.2913484104
C 2.5207348925 -0.2851054744 -0.9294006251
O 1.9209442619 0.8922062787 -0.3668487988
C 0.5164690044 0.6200037541 0.0083434632
C -0.4592273399 0.6485740817 -1.2392301064
O -1.5496099688 -0.3511022408 -1.120766982
C -2.47156911 0.038141775 -0.1022142167
C -3.6077789578 -1.0431115478 0.0185372996
C -4.9681947534 -0.4097768415 0.5251402139
C -4.8306114409 1.0211771702 1.1617290521
O -5.2419775202 2.1049145611 0.6956277094
O 5.3702024648 -1.4921088326 1.9882182819
O -4.3175918195 0.8513116109 2.4926840567
O -2.3894484174 1.11381543 0.533786525
C -4.1163802013 2.1742728963 3.1221150203
C -4.0434235081 -1.5212852741 -1.4299332972
C -5.090866426 -2.6987382125 -1.3112243085
C -6.4059500775 -1.9129821879 -0.9503064617
C -5.8398257461 -0.4480743529 -0.8003940469
O -4.8465018859 -0.3656244606 -1.8977680533
H -3.2624632094 -1.8716175336 0.6637352236
H -5.4101312306 -1.0610856367 1.3004585032
H -3.1918607654 -1.7068868881 -2.111936376
H -5.1848924017 -3.2298946306 -2.271536926
H -4.804873332 -3.4253755808 -0.5336825434
H -7.1396083975 -1.9588692432 -1.7711385572
H -6.883187153 -2.2780308365 -0.0269438315
H -6.5794003081 0.3719126778 -0.8840340102
O 1.8984457248 -1.3395437316 -1.1835945252
C 4.7459250042 -1.999669171 3.2331480045
C 5.8081298915 0.9400919663 0.1098028084
C 6.7576025649 1.2541091078 -1.1136026961
C 5.7136511284 1.7214382233 -2.1945152993
C 4.3580845399 1.5669760879 -1.3975597388
O 4.7286163755 1.9434303291 -0.0131254586
H 5.7594368088 -1.2007092272 -0.5555740803
H 4.2368175486 -0.5034586414 -2.2410818181
H 4.0063532376 -2.7982585611 3.0204186316
H 6.2852850494 0.9947247399 1.107600631
H 7.4642116118 2.0593758461 -0.8571253442
H 7.3305195596 0.3676429083 -1.4291278796
H 5.8734479676 2.7732300752 -2.4804164976
H 5.7335278317 1.0999355436 -3.1036984999
H 3.5200172424 2.1937430122 -1.7570595501
H 4.2379550459 -1.188457365 3.7936314775
H 5.5718802856 -2.4105287725 3.8422257617
H -3.8169332958 1.9764940329 4.1678262011
H -5.0446503561 2.7811482935 3.1068603591
H -3.3137394154 2.7415763733 2.6076029995
H -0.8784185565 1.6676851016 -1.3767145809
H 0.0945689796 0.3533021864 -2.1525566746
H 0.2344493168 1.4085313232 0.733100354
H 0.4355291116 -0.3761257814 0.4956928994
$end

$rem
JOBTYPE                   OPT
METHOD                    B3LYP
DFT_D                     d3_op
BASIS                     STO-3G
GEOM_OPT_MAX_CYCLES       100
GEOM_OPT_TOL_GRADIENT     300
GEOM_OPT_TOL_DISPLACEMENT 1200
GEOM_OPT_TOL_ENERGY       100
SYMMETRY                  False
THRESH                    12
SCF_CONVERGENCE           8
MAX_SUB_FILE_NUM          128
MEM_STATIC                400
MEM_TOTAL                 4000
$end
--------------------------------------------------------------

   16   -1510.2832352327      5.43E-09 Convergence criterion met
 Total energy in the final basis set = -1510.28323523
   14   -1510.2843238793      2.50E-09 Convergence criterion met
 Total energy in the final basis set = -1510.28432388
   13   -1510.2848961426      4.39E-09 Convergence criterion met
 Total energy in the final basis set = -1510.28489614
   13   -1510.2856109319      4.12E-09 Convergence criterion met
 Total energy in the final basis set = -1510.28561093
   13   -1510.2861899464      4.26E-09 Convergence criterion met
 Total energy in the final basis set = -1510.28618995
   13   -1510.2867012212      5.11E-09 Convergence criterion met
 Total energy in the final basis set = -1510.28670122
   13   -1510.2871740589      4.74E-09 Convergence criterion met
 Total energy in the final basis set = -1510.28717406
   13   -1510.2875277725      2.75E-09 Convergence criterion met
   12   -1510.2878579302      9.35E-09 Convergence criterion met
 Total energy in the final basis set = -1510.28785793
   13   -1510.2878928206      3.84E-09 Convergence criterion met
 Total energy in the final basis set = -1510.28789282
   13   -1510.2880798172      9.62E-09 Convergence criterion met
 Total energy in the final basis set = -1510.28807982
   12   -1510.2881786002      7.43E-09 Convergence criterion met
 Total energy in the final basis set = -1510.28817860
   12   -1510.2881958834      4.85E-09 Convergence criterion met
 Total energy in the final basis set = -1510.28819588
   12   -1510.2882100423      2.91E-09 Convergence criterion met
 Total energy in the final basis set = -1510.28821004

             Standard Nuclear Orientation (Angstroms)
    I     Atom           X                Y                Z
 ----------------------------------------------------------------
    1      O       3.3463412234    -0.8229672358    -2.0358379126
    2      C       4.4102683050    -1.0024024096    -1.4008750847
    3      C       5.0501631459    -0.0544065186    -0.3317723397
    4      C       4.1230729447     1.1723134071     0.0463220575
    5      C       2.7564384558     1.2156858534    -0.7335868556
    6      O       1.8193320624     0.3541127418    -0.0692566513
    7      C       0.5460560138     0.2937664666    -0.8221885592
    8      C      -0.3128629129     1.6041497902    -0.6400724380
    9      O      -1.6729630899     1.4322826977    -1.2091262626
   10      C      -2.5123900367     0.7346243349    -0.2866729598
   11      C      -3.9368902331     0.5811318160    -0.9150554451
   12      C      -4.8350956601    -0.4617251023    -0.1332100411
   13      C      -4.0934127616    -1.2110442630     1.0359926401
   14      O      -4.3156539635    -1.1105565155     2.2606280119
   15      O       5.2515553237    -2.1452938873    -1.5604361464
   16      O      -3.1902213057    -2.1608483415     0.4473336394
   17      O      -2.1470986520     0.3515790821     0.8482730896
   18      C      -2.4239154524    -2.8445579751     1.5120579786
   19      C      -4.7831349205     1.9129720372    -0.7037185242
   20      C      -6.0861362311     1.8308447551    -1.5935518312
   21      C      -6.9644647741     0.8254407357    -0.7597253906
   22      C      -5.9817724971     0.4788958787     0.4256136545
   23      O      -5.2873504206     1.7643387996     0.6790932037
   24      H      -3.8330796298     0.3304018919    -1.9854489792
   25      H      -5.2338283585    -1.2235121255    -0.8275141158
   26      H      -4.1968784407     2.8465217232    -0.8106651136
   27      H      -6.5633775726     2.8210279574    -1.6661960116
   28      H      -5.8712013720     1.4674203544    -2.6112965077
   29      H      -7.8756023385     1.3106929717    -0.3750705866
   30      H      -7.2555285627    -0.0668545500    -1.3368346435
   31      H      -6.4538670489     0.1077124175     1.3558513955
   32      O       2.4771691878     1.9535912767    -1.7036766404
   33      C       4.6688564882    -3.0702944743    -2.5610018936
   34      C       5.2057191860    -0.7688902630     1.0805541304
   35      C       6.1921225976     0.0922668419     1.9628321149
   36      C       5.2712891070     1.3100936176     2.3442055131
   37      C       3.9297978029     0.9232666623     1.6041742039
   38      O       3.8873512883    -0.5536933938     1.7162770713
   39      H       6.0317577950     0.2815801556    -0.7136911471
   40      H       4.6413306216     2.1265174905    -0.1547255933
   41      H       4.5507450158    -2.5803914200    -3.5489473212
   42      H       5.4418395105    -1.8486808271     1.0145695155
   43      H       6.5030078422    -0.4744968775     2.8547497066
   44      H       7.0917360114     0.3953384181     1.4040332043
   45      H       5.1060144187     1.3658266046     3.4319412897
   46      H       5.6752616542     2.2751906287     1.9986246289
   47      H       3.0098349952     1.3686149045     2.0289427855
   48      H       3.6789873204    -3.4501572586    -2.2348985801
   49      H       5.3792099227    -3.9130032798    -2.6463054005
   50      H      -1.7498063358    -3.5545665938     0.9983184197
   51      H      -3.0889166043    -3.3997373796     2.2050956247
   52      H      -1.8235818137    -2.1216643291     2.1015756259
   53      H      -0.3681240906     1.8576681893     0.4399346060
   54      H       0.1544130690     2.4362634328    -1.2028322532
   55      H      -0.0065055508    -0.5674725077    -0.3949408819
   56      H       0.7351258270     0.1155191226    -1.9021381275
 ----------------------------------------------------------------

   10   -1510.2882092213      9.93E-09 Convergence criterion met
 Total energy in the final basis set = -1510.28820922
 Final energy is   -1510.28820922134
 **  OPTIMIZATION CONVERGED  **

                    Orbital Energies (a.u.)
 --------------------------------------------------------------

 Alpha MOs
 -- Occupied --
-18.945 -18.938 -18.924 -18.916 -18.889 -18.887 -18.884 -18.880
-18.862 -18.859 -10.108 -10.102 -10.094 -10.087 -10.071 -10.066
-10.063 -10.062 -10.059 -10.059 -10.053 -10.051 -10.042 -10.037
-10.035 -10.030 -10.021 -10.020 -10.018 -10.017  -1.021  -1.016
 -1.001  -0.994  -0.971  -0.967  -0.945  -0.939  -0.927  -0.921
 -0.764  -0.760  -0.725  -0.721  -0.713  -0.704  -0.690  -0.668
 -0.651  -0.615  -0.596  -0.580  -0.546  -0.542  -0.538  -0.534
 -0.514  -0.507  -0.485  -0.473  -0.464  -0.454  -0.450  -0.444
 -0.434  -0.432  -0.428  -0.417  -0.410  -0.404  -0.400  -0.392
 -0.389  -0.381  -0.377  -0.363  -0.360  -0.354  -0.350  -0.345
 -0.339  -0.337  -0.334  -0.329  -0.328  -0.326  -0.322  -0.315
 -0.309  -0.306  -0.301  -0.300  -0.297  -0.283  -0.277  -0.274
 -0.270  -0.262  -0.256  -0.243  -0.240  -0.235  -0.231  -0.189
 -0.185  -0.163  -0.162  -0.160  -0.156  -0.145  -0.142  -0.142
 -0.138

          Ground-State Mulliken Net Atomic Charges

     Atom                 Charge (a.u.)
  ----------------------------------------
      1 O                    -0.207722
      2 C                     0.215040
      3 C                    -0.078283
      4 C                    -0.081699
      5 C                     0.214178
      6 O                    -0.169906
      7 C                    -0.049589
      8 C                    -0.055074
      9 O                    -0.170249
     10 C                     0.213503
     11 C                    -0.078060
     12 C                    -0.081079
     13 C                     0.216002
     14 O                    -0.215347
     15 O                    -0.168873
     16 O                    -0.178680
     17 O                    -0.208134
     18 C                    -0.129023
     19 C                     0.025332
     20 C                    -0.143830
     21 C                    -0.143915
     22 C                     0.024594
     23 O                    -0.188957
     24 H                     0.087090
     25 H                     0.083019
     26 H                     0.083959
     27 H                     0.077957
     28 H                     0.073651
     29 H                     0.077772
     30 H                     0.072947
     31 H                     0.090017
     32 O                    -0.221872
     33 C                    -0.127991
     34 C                     0.024985
     35 C                    -0.143766
     36 C                    -0.144340
     37 C                     0.026786
     38 O                    -0.186621
     39 H                     0.086737
     40 H                     0.083292
     41 H                     0.091280
     42 H                     0.087278
     43 H                     0.078431
     44 H                     0.073527
     45 H                     0.078462
     46 H                     0.073600
     47 H                     0.086811
     48 H                     0.091375
     49 H                     0.092458
     50 H                     0.085421
     51 H                     0.085798
     52 H                     0.093301
     53 H                     0.092766
     54 H                     0.099128
     55 H                     0.091850
     56 H                     0.094665
  ----------------------------------------
  Sum of atomic charges =     0.000000

                    Cartesian Multipole Moments
 -----------------------------------------------------------------
    Charge (ESU x 10^10)
                -0.0000
    Dipole Moment (Debye)
         X       2.3653      Y      -1.0894      Z      -2.0924
       Tot       3.3406
    Quadrupole Moments (Debye-Ang)
        XX    -137.2552     XY      -0.1165     YY    -153.3009
        XZ      12.9054     YZ       5.4636     ZZ    -164.9136

 Total job time:  54.49s(wall), 2591.16s(cpu)
        *  Thank you very much for using Q-Chem.  Have a nice day.  *
