 Q-Chem 5.0, Q-Chem, Inc., Pleasanton, CA (2017)
 Q-Chem 5.0.1 for Intel X86 EM64T Linux

User input:
--------------------------------------------------------------
$molecule
0  1
O -3.94934 -3.66094 2.70899
C -3.26408 -4.56952 2.26188
C -3.36658 -6.02376 2.66595
C -4.30295 -6.36325 3.83719
C -5.16722 -5.23643 4.35815
O -6.40777 -5.30267 3.79064
C -7.278 -4.24805 4.21458
C -7.84115 -4.55548 5.59823
O -7.97928 -3.34039 6.35145
C -8.96044 -2.50308 5.93268
C -9.04406 -1.23785 6.75296
C -10.44215 -0.60716 6.8294
C -11.59171 -1.49383 6.39464
O -12.44869 -1.95657 7.13357
O -2.37765 -4.29207 1.26991
O -11.74787 -1.66675 5.05576
O -9.41162 -2.55279 4.79747
C -12.7636 -2.39765 4.47508
C -8.72884 -1.40444 8.25953
C -8.26847 -0.06646 8.83574
C -9.56689 0.71087 8.81635
C -10.53394 -0.38515 8.3541
O -9.98342 -1.57224 8.86881
H -8.30307 -0.53692 6.30639
H -10.53183 0.34926 6.26865
H -7.96998 -2.18239 8.48867
H -7.98274 -0.2519 9.89634
H -7.41765 0.41662 8.30885
H -9.79863 1.03208 9.85618
H -9.58738 1.58662 8.13206
H -11.56782 -0.14287 8.68565
O -4.76918 -4.35947 5.11785
C -2.16836 -3.0344 0.74419
C -3.93117 -6.91164 1.5453
C -3.46267 -8.35162 1.74194
C -4.28742 -8.75202 2.94598
C -5.12678 -7.48374 3.14279
O -5.30295 -6.99267 1.83588
H -2.32463 -6.32862 2.91342
H -3.78567 -6.7991 4.72044
H -1.81571 -2.34165 1.53798
H -3.66622 -6.55624 0.52547
H -3.8108 -8.9386 0.86192
H -2.36413 -8.47513 1.85582
H -4.94264 -9.60271 2.65332
H -3.70631 -9.01747 3.85536
H -6.05405 -7.73802 3.70239
H -3.1078 -2.6457 0.2961
H -1.39362 -3.09531 -0.04737
H -12.6449 -2.37252 3.37249
H -13.75012 -1.96011 4.73893
H -12.71675 -3.45406 4.81592
H -8.76177 -5.17909 5.56887
H -7.08551 -5.13812 6.16458
H -8.11001 -4.13843 3.489
H -6.72632 -3.27841 4.19784
$end

$opt
CONSTRAINT
tors           1           2           3           4      -6.827
tors           3           4           5           6     +96.539
tors           4           5           6           7    -178.757
tors           5           6           7           8     -78.817
tors           6           7           8           9    +144.622
tors           7           8           9          10     +70.455
tors           8           9          10          11    -179.300
tors           9          10          11          12    -151.313
tors          11          12          13          14    +110.771
ENDCONSTRAINT
$end

$rem
JOBTYPE                   OPT
METHOD                    B3LYP
DFT_D                     d3_op
BASIS                     STO-3G
GEOM_OPT_MAX_CYCLES       100
GEOM_OPT_TOL_GRADIENT     300
GEOM_OPT_TOL_DISPLACEMENT 1200
GEOM_OPT_TOL_ENERGY       100
SYMMETRY                  False
THRESH                    12
SCF_CONVERGENCE           8
MAX_SUB_FILE_NUM          128
MEM_STATIC                400
MEM_TOTAL                 4000
$end
--------------------------------------------------------------

   15   -1510.1417536027      6.56E-09 Convergence criterion met
 Total energy in the final basis set = -1510.14175360
   14   -1510.2124223297      6.88E-09 Convergence criterion met
 Total energy in the final basis set = -1510.21242233
   14   -1510.2503274714      5.68E-09 Convergence criterion met
 Total energy in the final basis set = -1510.25032747
   14   -1510.2672888095      6.10E-09 Convergence criterion met
 Total energy in the final basis set = -1510.26728881
   13   -1510.2736207114      5.52E-09 Convergence criterion met
 Total energy in the final basis set = -1510.27362071
    2   -1510.2736207114      6.36E-09 Convergence criterion met
 Total energy in the final basis set = -1510.27362071
   13   -1510.2764929912      4.81E-09 Convergence criterion met
 Total energy in the final basis set = -1510.27649299
   13   -1510.2780628689      3.26E-09 Convergence criterion met
   11   -1510.2833030117      8.51E-09 Convergence criterion met
 Total energy in the final basis set = -1510.28330301
   11   -1510.2833430845      4.15E-09 Convergence criterion met
 Total energy in the final basis set = -1510.28334308
   11   -1510.2833717662      5.01E-09 Convergence criterion met
 Total energy in the final basis set = -1510.28337177
   11   -1510.2833873833      4.85E-09 Convergence criterion met
 Total energy in the final basis set = -1510.28338738
    9   -1510.2833974007      9.52E-09 Convergence criterion met
 Total energy in the final basis set = -1510.28339740
    9   -1510.2833999313      4.94E-09 Convergence criterion met
 Total energy in the final basis set = -1510.28339993

             Standard Nuclear Orientation (Angstroms)
    I     Atom           X                Y                Z
 ----------------------------------------------------------------
    1      O       3.1415621791    -0.9722876282     1.3773954116
    2      C       4.3651547880    -0.9788139795     1.1127020021
    3      C       5.0581852206    -0.4339145981    -0.1801412127
    4      C       4.0232291810     0.0190793408    -1.2913484104
    5      C       2.5207348925    -0.2851054744    -0.9294006251
    6      O       1.9209442619     0.8922062787    -0.3668487988
    7      C       0.5164690044     0.6200037541     0.0083434632
    8      C      -0.4592273399     0.6485740817    -1.2392301064
    9      O      -1.5496099688    -0.3511022408    -1.1207669820
   10      C      -2.4715691100     0.0381417750    -0.1022142167
   11      C      -3.6077789578    -1.0431115478     0.0185372996
   12      C      -4.9681947534    -0.4097768415     0.5251402139
   13      C      -4.8306114409     1.0211771702     1.1617290521
   14      O      -5.2419775202     2.1049145611     0.6956277094
   15      O       5.3702024648    -1.4921088326     1.9882182819
   16      O      -4.3175918195     0.8513116109     2.4926840567
   17      O      -2.3894484174     1.1138154300     0.5337865250
   18      C      -4.1163802013     2.1742728963     3.1221150203
   19      C      -4.0434235081    -1.5212852741    -1.4299332972
   20      C      -5.0908664260    -2.6987382125    -1.3112243085
   21      C      -6.4059500775    -1.9129821879    -0.9503064617
   22      C      -5.8398257461    -0.4480743529    -0.8003940469
   23      O      -4.8465018859    -0.3656244606    -1.8977680533
   24      H      -3.2624632094    -1.8716175336     0.6637352236
   25      H      -5.4101312306    -1.0610856367     1.3004585032
   26      H      -3.1918607654    -1.7068868881    -2.1119363760
   27      H      -5.1848924017    -3.2298946306    -2.2715369260
   28      H      -4.8048733320    -3.4253755808    -0.5336825434
   29      H      -7.1396083975    -1.9588692432    -1.7711385572
   30      H      -6.8831871530    -2.2780308365    -0.0269438315
   31      H      -6.5794003081     0.3719126778    -0.8840340102
   32      O       1.8984457248    -1.3395437316    -1.1835945252
   33      C       4.7459250042    -1.9996691710     3.2331480045
   34      C       5.8081298915     0.9400919663     0.1098028084
   35      C       6.7576025649     1.2541091078    -1.1136026961
   36      C       5.7136511284     1.7214382233    -2.1945152993
   37      C       4.3580845399     1.5669760879    -1.3975597388
   38      O       4.7286163755     1.9434303291    -0.0131254586
   39      H       5.7594368088    -1.2007092272    -0.5555740803
   40      H       4.2368175486    -0.5034586414    -2.2410818181
   41      H       4.0063532376    -2.7982585611     3.0204186316
   42      H       6.2852850494     0.9947247399     1.1076006310
   43      H       7.4642116118     2.0593758461    -0.8571253442
   44      H       7.3305195596     0.3676429083    -1.4291278796
   45      H       5.8734479676     2.7732300752    -2.4804164976
   46      H       5.7335278317     1.0999355436    -3.1036984999
   47      H       3.5200172424     2.1937430122    -1.7570595501
   48      H       4.2379550459    -1.1884573650     3.7936314775
   49      H       5.5718802856    -2.4105287725     3.8422257617
   50      H      -3.8169332958     1.9764940329     4.1678262011
   51      H      -5.0446503561     2.7811482935     3.1068603591
   52      H      -3.3137394154     2.7415763733     2.6076029995
   53      H      -0.8784185565     1.6676851016    -1.3767145809
   54      H       0.0945689796     0.3533021864    -2.1525566746
   55      H       0.2344493168     1.4085313232     0.7331003540
   56      H       0.4355291116    -0.3761257814     0.4956928994
 ----------------------------------------------------------------

    9   -1510.2834006693      5.00E-09 Convergence criterion met
 Total energy in the final basis set = -1510.28340067
 Final energy is   -1510.28340066928
 **  OPTIMIZATION CONVERGED  **

                    Orbital Energies (a.u.)
 --------------------------------------------------------------

 Alpha MOs
 -- Occupied --
-18.944 -18.939 -18.925 -18.916 -18.889 -18.886 -18.880 -18.880
-18.861 -18.858 -10.107 -10.102 -10.094 -10.087 -10.070 -10.069
-10.064 -10.063 -10.059 -10.054 -10.053 -10.050 -10.042 -10.037
-10.035 -10.028 -10.022 -10.020 -10.016 -10.015  -1.020  -1.016
 -1.001  -0.994  -0.971  -0.964  -0.944  -0.939  -0.927  -0.921
 -0.764  -0.758  -0.725  -0.721  -0.712  -0.703  -0.688  -0.668
 -0.650  -0.615  -0.595  -0.580  -0.547  -0.540  -0.538  -0.532
 -0.514  -0.505  -0.483  -0.476  -0.463  -0.452  -0.449  -0.446
 -0.435  -0.430  -0.426  -0.417  -0.410  -0.402  -0.399  -0.396
 -0.387  -0.379  -0.378  -0.364  -0.360  -0.356  -0.348  -0.345
 -0.339  -0.336  -0.331  -0.330  -0.327  -0.325  -0.319  -0.314
 -0.309  -0.306  -0.302  -0.301  -0.296  -0.282  -0.278  -0.272
 -0.271  -0.261  -0.256  -0.242  -0.240  -0.234  -0.229  -0.188
 -0.184  -0.164  -0.161  -0.160  -0.154  -0.147  -0.142  -0.140
 -0.138

          Ground-State Mulliken Net Atomic Charges

     Atom                 Charge (a.u.)
  ----------------------------------------
      1 O                    -0.206670
      2 C                     0.214079
      3 C                    -0.078269
      4 C                    -0.081629
      5 C                     0.213351
      6 O                    -0.170621
      7 C                    -0.050705
      8 C                    -0.049350
      9 O                    -0.165841
     10 C                     0.214276
     11 C                    -0.076130
     12 C                    -0.082089
     13 C                     0.214247
     14 O                    -0.218757
     15 O                    -0.168791
     16 O                    -0.174394
     17 O                    -0.211340
     18 C                    -0.128172
     19 C                     0.022833
     20 C                    -0.145176
     21 C                    -0.142763
     22 C                     0.023135
     23 O                    -0.192132
     24 H                     0.087097
     25 H                     0.083113
     26 H                     0.091812
     27 H                     0.077640
     28 H                     0.072899
     29 H                     0.077246
     30 H                     0.072673
     31 H                     0.088676
     32 O                    -0.221569
     33 C                    -0.128309
     34 C                     0.025422
     35 C                    -0.143775
     36 C                    -0.144252
     37 C                     0.025986
     38 O                    -0.187687
     39 H                     0.087235
     40 H                     0.082964
     41 H                     0.091728
     42 H                     0.085149
     43 H                     0.078444
     44 H                     0.073877
     45 H                     0.078115
     46 H                     0.073427
     47 H                     0.088668
     48 H                     0.091016
     49 H                     0.092198
     50 H                     0.085487
     51 H                     0.086791
     52 H                     0.091041
     53 H                     0.091704
     54 H                     0.093374
     55 H                     0.096373
     56 H                     0.096342
  ----------------------------------------
  Sum of atomic charges =    -0.000000

                    Cartesian Multipole Moments
 -----------------------------------------------------------------
    Charge (ESU x 10^10)
                 0.0000
    Dipole Moment (Debye)
         X       2.8096      Y      -2.0885      Z       0.8306
       Tot       3.5980
    Quadrupole Moments (Debye-Ang)
        XX    -143.6803     XY       7.7720     YY    -161.1919
        XZ      -6.1597     YZ      -3.4003     ZZ    -151.8198

 Total job time:  62.26s(wall), 2960.11s(cpu)
        *  Thank you very much for using Q-Chem.  Have a nice day.  *
