 Q-Chem 5.0, Q-Chem, Inc., Pleasanton, CA (2017)
 Q-Chem 5.0.1 for Intel X86 EM64T Linux

User input:
--------------------------------------------------------------
$molecule
0  1
O 3.1569685605 -0.8708929379 1.4663296399
C 4.3807962124 -0.87533427 1.2025063976
C 5.0614292507 -0.4521560074 -0.1416270608
C 4.0142588244 -0.1251519493 -1.2854668547
C 2.5181013167 -0.4181820456 -0.8892835945
O 1.8992784658 0.7971782611 -0.4388860836
C 0.4921845066 0.541797139 -0.0609464109
C -0.4686488011 0.5973684487 -1.3182090394
O -1.6060160893 -0.3520207401 -1.2193303539
C -2.4611970108 -0.0008757264 -0.1316466809
C -3.6405233999 -1.0370329687 -0.0363982505
C -4.9540162278 -0.3854567523 0.5656580337
C -4.7390719029 1.015469584 1.2454631107
O -5.0870482665 2.1348266052 0.8129205371
O 5.3968183038 -1.2684283443 2.1259853746
O -4.2230837325 0.7775127791 2.5643515604
O -2.3008701873 1.0176303958 0.5791653514
C -3.9380815267 2.0676980279 3.228736273
C -4.1527609176 -1.4174711394 -1.489234442
C -5.220901234 -2.577712784 -1.3851831064
C -6.4948361452 -1.787156156 -0.9063027786
C -5.8900256417 -0.3424236362 -0.7144910252
O -4.9504153286 -0.2221705871 -1.8540861224
H -3.3073344466 -1.9164162639 0.5447934976
H -5.3764557636 -1.0540094158 1.3369950891
H -3.3382380562 -1.5820521314 -2.2200930589
H -5.3788250065 -3.0461505414 -2.3693984359
H -4.9119945037 -3.3572178034 -0.670106885
H -7.2768008761 -1.7764737141 -1.6827186016
H -6.9249089922 -2.1904927297 0.024354637
H -6.616260977 0.4934811479 -0.7218688444
O 1.9109158778 -1.4998267007 -1.0479384741
C 4.7834616729 -1.6595533549 3.4174838911
C 5.7931507976 0.9529108839 0.0038771501
C 6.7249029687 1.1600419825 -1.2551732157
C 5.6652866952 1.5184555582 -2.3617396533
C 4.3198597468 1.4120755188 -1.540703097
O 4.6963595741 1.9236485205 -0.2016638138
H 5.7710427077 -1.2438368299 -0.4425252086
H 4.2312013143 -0.7326349543 -2.1824948832
H 4.0820666197 -2.5097164138 3.293468359
H 6.2811507248 1.1112817787 0.9852526501
H 7.4270735781 1.990807039 -1.0817008275
H 7.3026955613 0.2531112227 -1.494946355
H 5.8048914802 2.5453876917 -2.7352035305
H 5.6889781969 0.8246706195 -3.2171170989
H 3.4665966606 1.986849201 -1.9481032898
H 4.2345705558 -0.8140096128 3.8801444979
H 5.6209759211 -1.9614150503 4.0728114446
H -3.6331083014 1.8219036733 4.2626318376
H -4.8308678055 2.7256572994 3.2486245825
H -3.1134112073 2.6048468684 2.7165936686
H -0.8403057754 1.6330926345 -1.4707165879
H 0.0852356454 0.2744518046 -2.2225015784
H 0.2150900353 1.3275013161 0.6683944039
H 0.3992292836 -0.4588475643 0.4141547089
$end

$rem
JOBTYPE                   OPT
METHOD                    B3LYP
DFT_D                     d3_op
BASIS                     STO-3G
GEOM_OPT_MAX_CYCLES       100
GEOM_OPT_TOL_GRADIENT     300
GEOM_OPT_TOL_DISPLACEMENT 1200
GEOM_OPT_TOL_ENERGY       100
SYMMETRY                  False
THRESH                    12
SCF_CONVERGENCE           8
MAX_SUB_FILE_NUM          128
MEM_STATIC                400
MEM_TOTAL                 4000
$end
--------------------------------------------------------------

   16   -1510.2834527923      5.56E-09 Convergence criterion met
 Total energy in the final basis set = -1510.28345279
   13   -1510.2844067545      4.15E-09 Convergence criterion met
 Total energy in the final basis set = -1510.28440675
   13   -1510.2850935303      4.92E-09 Convergence criterion met
 Total energy in the final basis set = -1510.28509353
   13   -1510.2857707047      3.12E-09 Convergence criterion met
 Total energy in the final basis set = -1510.28577070
   13   -1510.2863408793      4.97E-09 Convergence criterion met
 Total energy in the final basis set = -1510.28634088
   13   -1510.2868239447      4.97E-09 Convergence criterion met
 Total energy in the final basis set = -1510.28682394
   13   -1510.2872574325      5.75E-09 Convergence criterion met
 Total energy in the final basis set = -1510.28725743
   13   -1510.2876459717      5.34E-09 Convergence criterion met
   12   -1510.2881053616      4.08E-09 Convergence criterion met
 Total energy in the final basis set = -1510.28810536
   12   -1510.2881336200      5.06E-09 Convergence criterion met
 Total energy in the final basis set = -1510.28813362
   11   -1510.2881292187      8.71E-09 Convergence criterion met
 Total energy in the final basis set = -1510.28812922
   12   -1510.2881151547      2.30E-09 Convergence criterion met
 Total energy in the final basis set = -1510.28811515
   10   -1510.2881227962      4.55E-09 Convergence criterion met
 Total energy in the final basis set = -1510.28812280
   10   -1510.2881249573      7.47E-09 Convergence criterion met
 Total energy in the final basis set = -1510.28812496

             Standard Nuclear Orientation (Angstroms)
    I     Atom           X                Y                Z
 ----------------------------------------------------------------
    1      O       3.3754472947    -0.7091443108    -2.0628237698
    2      C       4.4616290743    -0.8623471264    -1.4594228340
    3      C       5.0964161879     0.0884355194    -0.3898123809
    4      C       4.1336108060     1.2690536458     0.0430427616
    5      C       2.7412488242     1.2692029100    -0.6911978673
    6      O       1.8646146464     0.3534913434    -0.0162783514
    7      C       0.5814534423     0.2321692349    -0.7441478457
    8      C      -0.3422112416     1.4958162628    -0.5515135797
    9      O      -1.6786618355     1.2575955471    -1.1510066950
   10      C      -2.5292803179     0.5770672911    -0.2260446419
   11      C      -3.9135739228     0.3321547711    -0.9130975951
   12      C      -4.8959594251    -0.5385510848    -0.0286222513
   13      C      -4.2762022916    -1.0547864478     1.3236443844
   14      O      -4.5385507861    -0.6583251622     2.4784474772
   15      O       5.3372284234    -1.9719755642    -1.6625150546
   16      O      -3.4511739403    -2.1908227414     1.0184404903
   17      O      -2.1984781315     0.2675659476     0.9413248418
   18      C      -2.7907560099    -2.6719086499     2.2514242917
   19      C      -4.7417123431     1.6866380404    -1.0318364979
   20      C      -5.9555794081     1.4413220556    -2.0131945508
   21      C      -6.9254614589     0.6073610202    -1.0955034543
   22      C      -6.0698066403     0.4961438111     0.2264792502
   23      O      -5.3766445690     1.8044937566     0.2984162317
   24      H      -3.7398035450    -0.1181643615    -1.9069198877
   25      H      -5.2457694792    -1.4178477290    -0.5986289162
   26      H      -4.1239658752     2.5785144010    -1.2545756797
   27      H      -6.4065168599     2.3996655279    -2.3157798007
   28      H      -5.6488456507     0.8930508515    -2.9182379128
   29      H      -7.8646151277     1.1505232756    -0.9033637322
   30      H      -7.1680019994    -0.3807897183    -1.5177729029
   31      H      -6.6402857240     0.3133477851     1.1578022767
   32      O       2.3989512620     2.0164637669    -1.6336200870
   33      C       4.7592080943    -2.8992437535    -2.6637961911
   34      C       5.3251337312    -0.6470645452     1.0013481525
   35      C       6.3049674421     0.2346987973     1.8703874683
   36      C       5.3498311979     1.4069208935     2.3065155947
   37      C       4.0015823993     0.9820826014     1.6006855821
   38      O       4.0210046807    -0.4974469078     1.6829715474
   39      H       6.0510018327     0.4717039993    -0.7949187239
   40      H       4.6053464835     2.2474632779    -0.1554904104
   41      H       4.6242132235    -2.4043386177    -3.6472039563
   42      H       5.6011600958    -1.7150953362     0.9053409387
   43      H       6.6660604242    -0.3373184088     2.7396990639
   44      H       7.1741382371     0.5840517361     1.2907146909
   45      H       5.2171839035     1.4329077323     3.3997845248
   46      H       5.7048086625     2.3945701603     1.9707493547
   47      H       3.0790797344     1.3816371594     2.0637267909
   48      H       3.7786138123    -3.2968837877    -2.3312741663
   49      H       5.4822614063    -3.7296072927    -2.7624552027
   50      H      -2.2208819133    -3.5748355854     1.9644341726
   51      H      -3.5283212240    -2.9313857351     3.0382812700
   52      H      -2.0958962740    -1.9076595882     2.6565644273
   53      H      -0.4341676343     1.7263502478     0.5309536807
   54      H       0.0942762751     2.3585240408    -1.0926702324
   55      H       0.0812919313    -0.6572262802    -0.3098053155
   56      H       0.7604327749     0.0632428772    -1.8275426205
 ----------------------------------------------------------------

   10   -1510.2881230568      8.43E-09 Convergence criterion met
 Total energy in the final basis set = -1510.28812306
 Final energy is   -1510.28812305677
 **  OPTIMIZATION CONVERGED  **

                    Orbital Energies (a.u.)
 --------------------------------------------------------------

 Alpha MOs
 -- Occupied --
-18.945 -18.938 -18.924 -18.915 -18.889 -18.888 -18.884 -18.882
-18.863 -18.857 -10.109 -10.103 -10.094 -10.086 -10.071 -10.065
-10.064 -10.062 -10.060 -10.058 -10.053 -10.050 -10.042 -10.037
-10.035 -10.029 -10.022 -10.020 -10.018 -10.016  -1.022  -1.016
 -1.002  -0.993  -0.971  -0.967  -0.945  -0.940  -0.928  -0.920
 -0.764  -0.760  -0.726  -0.721  -0.713  -0.704  -0.690  -0.668
 -0.650  -0.615  -0.596  -0.579  -0.547  -0.541  -0.538  -0.534
 -0.514  -0.507  -0.486  -0.473  -0.464  -0.454  -0.450  -0.444
 -0.435  -0.432  -0.428  -0.418  -0.410  -0.404  -0.399  -0.393
 -0.390  -0.381  -0.378  -0.362  -0.361  -0.355  -0.350  -0.344
 -0.338  -0.336  -0.334  -0.329  -0.329  -0.326  -0.321  -0.315
 -0.310  -0.307  -0.301  -0.301  -0.298  -0.283  -0.277  -0.273
 -0.271  -0.263  -0.255  -0.242  -0.240  -0.235  -0.231  -0.189
 -0.185  -0.163  -0.162  -0.160  -0.157  -0.145  -0.143  -0.142
 -0.137

          Ground-State Mulliken Net Atomic Charges

     Atom                 Charge (a.u.)
  ----------------------------------------
      1 O                    -0.208023
      2 C                     0.215172
      3 C                    -0.078317
      4 C                    -0.081697
      5 C                     0.214424
      6 O                    -0.170087
      7 C                    -0.049344
      8 C                    -0.055768
      9 O                    -0.170824
     10 C                     0.213784
     11 C                    -0.077896
     12 C                    -0.081637
     13 C                     0.215948
     14 O                    -0.216563
     15 O                    -0.168718
     16 O                    -0.177828
     17 O                    -0.207249
     18 C                    -0.128856
     19 C                     0.025290
     20 C                    -0.143810
     21 C                    -0.143958
     22 C                     0.024839
     23 O                    -0.189026
     24 H                     0.086679
     25 H                     0.083053
     26 H                     0.085345
     27 H                     0.077986
     28 H                     0.073472
     29 H                     0.077614
     30 H                     0.072918
     31 H                     0.089025
     32 O                    -0.221475
     33 C                    -0.127975
     34 C                     0.025023
     35 C                    -0.143759
     36 C                    -0.144340
     37 C                     0.026764
     38 O                    -0.186723
     39 H                     0.086817
     40 H                     0.083446
     41 H                     0.090940
     42 H                     0.087363
     43 H                     0.078409
     44 H                     0.073537
     45 H                     0.078475
     46 H                     0.073693
     47 H                     0.086814
     48 H                     0.091786
     49 H                     0.092548
     50 H                     0.085158
     51 H                     0.086396
     52 H                     0.092234
     53 H                     0.094066
     54 H                     0.099826
     55 H                     0.090283
     56 H                     0.094747
  ----------------------------------------
  Sum of atomic charges =     0.000000

                    Cartesian Multipole Moments
 -----------------------------------------------------------------
    Charge (ESU x 10^10)
                 0.0000
    Dipole Moment (Debye)
         X       2.6138      Y      -1.4669      Z      -2.0683
       Tot       3.6417
    Quadrupole Moments (Debye-Ang)
        XX    -138.7913     XY       3.3230     YY    -154.9772
        XZ      12.0819     YZ       4.6314     ZZ    -162.8684

 Total job time:  64.43s(wall), 3062.56s(cpu)
        *  Thank you very much for using Q-Chem.  Have a nice day.  *
