 Q-Chem 5.0, Q-Chem, Inc., Pleasanton, CA (2017)
 Q-Chem 5.0.1 for Intel X86 EM64T Linux

User input:
--------------------------------------------------------------
$molecule
0  1
O -3.94934 -3.66094 2.70899
C -3.26408 -4.56952 2.26188
C -3.36658 -6.02376 2.66595
C -4.31702 -6.36562 3.82511
C -5.19217 -5.24149 4.33359
O -6.4249 -5.31279 3.74988
C -7.31339 -4.27692 4.1821
C -7.99528 -4.67932 5.48565
O -8.21582 -3.51794 6.3014
C -9.07371 -2.60053 5.79002
C -9.24513 -1.39394 6.68188
C -10.61322 -0.70367 6.58117
C -11.70706 -1.50099 5.89965
O -12.65741 -2.02532 6.46222
O -2.37213 -4.29068 1.27525
O -11.67405 -1.53034 4.54121
O -9.36797 -2.55596 4.60492
C -12.6065 -2.16993 3.75106
C -9.18196 -1.6802 8.20154
C -8.77981 -0.40761 8.94529
C -10.03501 0.42198 8.78389
C -10.9455 -0.59428 8.08548
O -10.52311 -1.83828 8.58675
H -8.41903 -0.6985 6.41071
H -10.58191 0.29923 6.10107
H -8.49407 -2.50386 8.48772
H -8.67108 -0.67954 10.02003
H -7.84247 0.07574 8.5951
H -10.42387 0.66985 9.79659
H -9.91925 1.34904 8.18163
H -12.01191 -0.33309 8.26523
O -4.81398 -4.378 5.11814
C -2.15964 -3.03221 0.75274
C -3.91459 -6.91382 1.53854
C -3.44406 -8.35227 1.74137
C -4.28236 -8.75485 2.93519
C -5.12824 -7.48921 3.12081
O -5.28961 -6.99917 1.8117
H -2.32666 -6.32555 2.92536
H -3.81053 -6.80015 4.71525
H -1.81107 -2.34088 1.54957
H -3.63805 -6.55815 0.52188
H -3.77955 -8.9405 0.85727
H -2.34664 -8.47248 1.86878
H -4.93097 -9.60792 2.63488
H -3.71174 -9.01781 3.85192
H -6.06167 -7.74638 3.66877
H -3.09653 -2.64249 0.30026
H -1.38065 -3.09204 -0.0347
H -12.33346 -2.03428 2.68455
H -13.61496 -1.73573 3.92046
H -12.62088 -3.25674 3.9812
H -8.9099 -5.2892 5.3176
H -7.28952 -5.30165 6.07517
H -8.07012 -4.10573 3.38958
H -6.76137 -3.3127 4.28481
$end

$opt
CONSTRAINT
tors           1           2           3           4      -6.043
tors           3           4           5           6     +96.539
tors           4           5           6           7    -179.961
tors           5           6           7           8     -84.445
tors           6           7           8           9    +146.327
tors           7           8           9          10     +64.572
tors           8           9          10          11    -179.010
tors           9          10          11          12    -150.675
tors          11          12          13          14    +107.195
ENDCONSTRAINT
$end

$rem
JOBTYPE                   OPT
METHOD                    B3LYP
DFT_D                     d3_op
BASIS                     STO-3G
GEOM_OPT_MAX_CYCLES       100
GEOM_OPT_TOL_GRADIENT     300
GEOM_OPT_TOL_DISPLACEMENT 1200
GEOM_OPT_TOL_ENERGY       100
SYMMETRY                  False
THRESH                    12
SCF_CONVERGENCE           8
MAX_SUB_FILE_NUM          128
MEM_STATIC                400
MEM_TOTAL                 4000
$end
--------------------------------------------------------------

   15   -1510.1442296009      6.51E-09 Convergence criterion met
 Total energy in the final basis set = -1510.14422960
   14   -1510.2147112146      7.67E-09 Convergence criterion met
 Total energy in the final basis set = -1510.21471121
   14   -1510.2523515361      5.86E-09 Convergence criterion met
 Total energy in the final basis set = -1510.25235154
   14   -1510.2689754205      6.49E-09 Convergence criterion met
 Total energy in the final basis set = -1510.26897542
   13   -1510.2750447932      5.83E-09 Convergence criterion met
 Total energy in the final basis set = -1510.27504479
   13   -1510.2777328857      4.27E-09 Convergence criterion met
 Total energy in the final basis set = -1510.27773289
   13   -1510.2792261924      3.15E-09 Convergence criterion met
 Total energy in the final basis set = -1510.27922619
   13   -1510.2802226157      2.83E-09 Convergence criterion met
   11   -1510.2833651591      9.07E-09 Convergence criterion met
 Total energy in the final basis set = -1510.28336516
   12   -1510.2834414488      3.89E-09 Convergence criterion met
 Total energy in the final basis set = -1510.28344145
   11   -1510.2834892623      4.27E-09 Convergence criterion met
 Total energy in the final basis set = -1510.28348926
   11   -1510.2835169012      5.10E-09 Convergence criterion met
 Total energy in the final basis set = -1510.28351690
   10   -1510.2835315330      8.12E-09 Convergence criterion met
 Total energy in the final basis set = -1510.28353153
   11   -1510.2835426499      3.70E-09 Convergence criterion met
 Total energy in the final basis set = -1510.28354265

             Standard Nuclear Orientation (Angstroms)
    I     Atom           X                Y                Z
 ----------------------------------------------------------------
    1      O       3.1569685605    -0.8708929379     1.4663296399
    2      C       4.3807962124    -0.8753342700     1.2025063976
    3      C       5.0614292507    -0.4521560074    -0.1416270608
    4      C       4.0142588244    -0.1251519493    -1.2854668547
    5      C       2.5181013167    -0.4181820456    -0.8892835945
    6      O       1.8992784658     0.7971782611    -0.4388860836
    7      C       0.4921845066     0.5417971390    -0.0609464109
    8      C      -0.4686488011     0.5973684487    -1.3182090394
    9      O      -1.6060160893    -0.3520207401    -1.2193303539
   10      C      -2.4611970108    -0.0008757264    -0.1316466809
   11      C      -3.6405233999    -1.0370329687    -0.0363982505
   12      C      -4.9540162278    -0.3854567523     0.5656580337
   13      C      -4.7390719029     1.0154695840     1.2454631107
   14      O      -5.0870482665     2.1348266052     0.8129205371
   15      O       5.3968183038    -1.2684283443     2.1259853746
   16      O      -4.2230837325     0.7775127791     2.5643515604
   17      O      -2.3008701873     1.0176303958     0.5791653514
   18      C      -3.9380815267     2.0676980279     3.2287362730
   19      C      -4.1527609176    -1.4174711394    -1.4892344420
   20      C      -5.2209012340    -2.5777127840    -1.3851831064
   21      C      -6.4948361452    -1.7871561560    -0.9063027786
   22      C      -5.8900256417    -0.3424236362    -0.7144910252
   23      O      -4.9504153286    -0.2221705871    -1.8540861224
   24      H      -3.3073344466    -1.9164162639     0.5447934976
   25      H      -5.3764557636    -1.0540094158     1.3369950891
   26      H      -3.3382380562    -1.5820521314    -2.2200930589
   27      H      -5.3788250065    -3.0461505414    -2.3693984359
   28      H      -4.9119945037    -3.3572178034    -0.6701068850
   29      H      -7.2768008761    -1.7764737141    -1.6827186016
   30      H      -6.9249089922    -2.1904927297     0.0243546370
   31      H      -6.6162609770     0.4934811479    -0.7218688444
   32      O       1.9109158778    -1.4998267007    -1.0479384741
   33      C       4.7834616729    -1.6595533549     3.4174838911
   34      C       5.7931507976     0.9529108839     0.0038771501
   35      C       6.7249029687     1.1600419825    -1.2551732157
   36      C       5.6652866952     1.5184555582    -2.3617396533
   37      C       4.3198597468     1.4120755188    -1.5407030970
   38      O       4.6963595741     1.9236485205    -0.2016638138
   39      H       5.7710427077    -1.2438368299    -0.4425252086
   40      H       4.2312013143    -0.7326349543    -2.1824948832
   41      H       4.0820666197    -2.5097164138     3.2934683590
   42      H       6.2811507248     1.1112817787     0.9852526501
   43      H       7.4270735781     1.9908070390    -1.0817008275
   44      H       7.3026955613     0.2531112227    -1.4949463550
   45      H       5.8048914802     2.5453876917    -2.7352035305
   46      H       5.6889781969     0.8246706195    -3.2171170989
   47      H       3.4665966606     1.9868492010    -1.9481032898
   48      H       4.2345705558    -0.8140096128     3.8801444979
   49      H       5.6209759211    -1.9614150503     4.0728114446
   50      H      -3.6331083014     1.8219036733     4.2626318376
   51      H      -4.8308678055     2.7256572994     3.2486245825
   52      H      -3.1134112073     2.6048468684     2.7165936686
   53      H      -0.8403057754     1.6330926345    -1.4707165879
   54      H       0.0852356454     0.2744518046    -2.2225015784
   55      H       0.2150900353     1.3275013161     0.6683944039
   56      H       0.3992292836    -0.4588475643     0.4141547089
 ----------------------------------------------------------------

    9   -1510.2835470121      9.88E-09 Convergence criterion met
 Total energy in the final basis set = -1510.28354701
 Final energy is   -1510.28354701214
 **  OPTIMIZATION CONVERGED  **

                    Orbital Energies (a.u.)
 --------------------------------------------------------------

 Alpha MOs
 -- Occupied --
-18.944 -18.939 -18.924 -18.916 -18.889 -18.887 -18.881 -18.880
-18.861 -18.858 -10.107 -10.102 -10.093 -10.087 -10.070 -10.070
-10.063 -10.063 -10.059 -10.054 -10.053 -10.050 -10.042 -10.037
-10.035 -10.028 -10.022 -10.020 -10.017 -10.015  -1.020  -1.016
 -1.001  -0.994  -0.971  -0.965  -0.944  -0.939  -0.927  -0.921
 -0.764  -0.758  -0.725  -0.721  -0.712  -0.703  -0.688  -0.668
 -0.650  -0.615  -0.595  -0.580  -0.547  -0.540  -0.538  -0.533
 -0.514  -0.505  -0.483  -0.475  -0.463  -0.452  -0.449  -0.446
 -0.435  -0.431  -0.426  -0.417  -0.410  -0.402  -0.399  -0.396
 -0.388  -0.379  -0.377  -0.365  -0.360  -0.357  -0.348  -0.345
 -0.339  -0.336  -0.332  -0.330  -0.327  -0.325  -0.320  -0.314
 -0.309  -0.306  -0.302  -0.301  -0.296  -0.283  -0.278  -0.272
 -0.271  -0.261  -0.256  -0.242  -0.239  -0.234  -0.229  -0.188
 -0.184  -0.164  -0.161  -0.159  -0.154  -0.147  -0.142  -0.140
 -0.138

          Ground-State Mulliken Net Atomic Charges

     Atom                 Charge (a.u.)
  ----------------------------------------
      1 O                    -0.206154
      2 C                     0.214210
      3 C                    -0.078191
      4 C                    -0.081610
      5 C                     0.213436
      6 O                    -0.171165
      7 C                    -0.051380
      8 C                    -0.049107
      9 O                    -0.166360
     10 C                     0.214299
     11 C                    -0.076293
     12 C                    -0.082070
     13 C                     0.213959
     14 O                    -0.218456
     15 O                    -0.168775
     16 O                    -0.173890
     17 O                    -0.211417
     18 C                    -0.128120
     19 C                     0.022877
     20 C                    -0.145086
     21 C                    -0.142882
     22 C                     0.023552
     23 O                    -0.191712
     24 H                     0.086996
     25 H                     0.083274
     26 H                     0.091647
     27 H                     0.077594
     28 H                     0.072925
     29 H                     0.077168
     30 H                     0.072695
     31 H                     0.088238
     32 O                    -0.222106
     33 C                    -0.128222
     34 C                     0.025364
     35 C                    -0.143851
     36 C                    -0.144219
     37 C                     0.025959
     38 O                    -0.187721
     39 H                     0.087199
     40 H                     0.083063
     41 H                     0.091460
     42 H                     0.085264
     43 H                     0.078377
     44 H                     0.073830
     45 H                     0.078171
     46 H                     0.073457
     47 H                     0.088581
     48 H                     0.091417
     49 H                     0.092195
     50 H                     0.085581
     51 H                     0.086694
     52 H                     0.091303
     53 H                     0.090630
     54 H                     0.092093
     55 H                     0.098078
     56 H                     0.097198
  ----------------------------------------
  Sum of atomic charges =    -0.000000

                    Cartesian Multipole Moments
 -----------------------------------------------------------------
    Charge (ESU x 10^10)
                 0.0000
    Dipole Moment (Debye)
         X       2.7429      Y      -2.0914      Z       0.7217
       Tot       3.5240
    Quadrupole Moments (Debye-Ang)
        XX    -142.8897     XY       7.8918     YY    -162.6316
        XZ      -5.3754     YZ      -2.3689     ZZ    -150.5948

 Total job time:  55.68s(wall), 2646.52s(cpu)
        *  Thank you very much for using Q-Chem.  Have a nice day.  *
