 Q-Chem 5.0, Q-Chem, Inc., Pleasanton, CA (2017)
 Q-Chem 5.0.1 for Intel X86 EM64T Linux

User input:
--------------------------------------------------------------
$molecule
0  1
O 3.0935313737 -1.0438481757 1.2839909341
C 4.3279549274 -1.0305069844 1.0775512288
C 5.0804052042 -0.4355424612 -0.159085074
C 4.1071620611 0.0520527337 -1.3103302491
C 2.5894483488 -0.269822272 -1.0437853452
O 1.9594873988 0.8770255635 -0.4524727667
C 0.5916924272 0.5346981772 -0.005780965
C -0.4650883737 0.6699195857 -1.1762564365
O -1.5461243155 -0.3394557794 -1.0575198291
C -2.4893316254 0.0616386432 -0.0628236083
C -3.613871874 -1.0303902055 0.0682161552
C -4.994239844 -0.3996615133 0.5232066772
C -4.8927575188 1.0644250322 1.0865592512
O -5.2630712571 2.1209106102 0.5318467099
O 5.2953817529 -1.5645034437 1.9830616479
O -4.4560420968 0.9723487119 2.4513873098
O -2.4258825592 1.148080671 0.5566728127
C -4.279979186 2.3296598614 3.0116047383
C -4.0105142624 -1.5686997947 -1.3699297801
C -5.0376529453 -2.7616427626 -1.2299638796
C -6.3738083137 -1.9894485966 -0.9194031259
C -5.8393507302 -0.5090126246 -0.8158838482
O -4.8260894379 -0.4477658051 -1.8963845242
H -3.2723352287 -1.8300131376 0.7510448159
H -5.4399204175 -1.0215471268 1.3201311772
H -3.1413786551 -1.7617106193 -2.0273415878
H -5.1039195377 -3.325985342 -2.1735023761
H -4.7532259939 -3.4565326132 -0.4233848202
H -7.0928414533 -2.0810621325 -1.7491601249
H -6.8587027534 -2.3290457002 0.0096229874
H -6.5928885517 0.2918681865 -0.9456889848
O 1.9882262795 -1.3197628037 -1.3590643455
C 4.6179935842 -2.1157903773 3.1804890421
C 5.8052760286 0.9313933049 0.2182237219
C 6.817780355 1.2928136747 -0.9403653196
C 5.831052057 1.7972507006 -2.0580215653
C 4.4356222616 1.6047132554 -1.3426865345
O 4.7272109655 1.9328230038 0.0724418074
H 5.8064771605 -1.1849252718 -0.5225354125
H 4.379468117 -0.4346578934 -2.2638108477
H 3.894382611 -2.911175938 2.9087690873
H 6.2276879414 0.9527778263 1.241706896
H 7.5073646367 2.0887728211 -0.6168807184
H 7.4094096469 0.4191999576 -1.2571959691
H 5.9985290489 2.8603698959 -2.2932145407
H 5.9049221767 1.2121879552 -2.9885667469
H 3.613653541 2.2393962844 -1.7248430827
H 4.0792629742 -1.3259072077 3.7427606593
H 5.4177434862 -2.5415802351 3.8138120244
H -4.0361599301 2.1931746153 4.0812905014
H -5.2026400206 2.9374412426 2.9128249064
H -3.4485084189 2.8632536292 2.5068095447
H -0.8891105067 1.695551155 -1.1998137648
H 0.0265615964 0.4492853107 -2.1450044269
H 0.3475146687 1.2396930018 0.8130887296
H 0.5622060713 -0.5075630116 0.3789252797
$end

$rem
JOBTYPE                   OPT
METHOD                    B3LYP
DFT_D                     d3_op
BASIS                     STO-3G
GEOM_OPT_MAX_CYCLES       100
GEOM_OPT_TOL_GRADIENT     300
GEOM_OPT_TOL_DISPLACEMENT 1200
GEOM_OPT_TOL_ENERGY       100
SYMMETRY                  False
THRESH                    12
SCF_CONVERGENCE           8
MAX_SUB_FILE_NUM          128
MEM_STATIC                400
MEM_TOTAL                 4000
$end
--------------------------------------------------------------

   16   -1510.2837425015      5.56E-09 Convergence criterion met
 Total energy in the final basis set = -1510.28374250
   13   -1510.2846910032      9.42E-09 Convergence criterion met
 Total energy in the final basis set = -1510.28469100
   13   -1510.2853363284      5.37E-09 Convergence criterion met
 Total energy in the final basis set = -1510.28533633
   13   -1510.2859418907      4.44E-09 Convergence criterion met
 Total energy in the final basis set = -1510.28594189
   13   -1510.2864086070      4.47E-09 Convergence criterion met
 Total energy in the final basis set = -1510.28640861
   13   -1510.2866335291      5.39E-09 Convergence criterion met
 Total energy in the final basis set = -1510.28663353
   13   -1510.2869609715      8.35E-09 Convergence criterion met
 Total energy in the final basis set = -1510.28696097
   13   -1510.2870231693      5.72E-09 Convergence criterion met
   13   -1510.2873593818      5.83E-09 Convergence criterion met
 Total energy in the final basis set = -1510.28735938
   13   -1510.2882285106      4.51E-09 Convergence criterion met
 Total energy in the final basis set = -1510.28822851
   13   -1510.2881035733      6.12E-09 Convergence criterion met
 Total energy in the final basis set = -1510.28810357
   13   -1510.2882938511      5.83E-09 Convergence criterion met
 Total energy in the final basis set = -1510.28829385
   12   -1510.2883023003      8.24E-09 Convergence criterion met
 Total energy in the final basis set = -1510.28830230
   12   -1510.2883315062      3.90E-09 Convergence criterion met
 Total energy in the final basis set = -1510.28833151

             Standard Nuclear Orientation (Angstroms)
    I     Atom           X                Y                Z
 ----------------------------------------------------------------
    1      O      -3.1753457743    -0.3449273932     2.0378807226
    2      C      -4.3247965994    -0.6060785791     1.6166399309
    3      C      -5.0746367207     0.0663575287     0.4178003659
    4      C      -4.1808657140     1.1091102318    -0.3729759647
    5      C      -2.7397145249     1.3072244110     0.2284739074
    6      O      -1.8683056282     0.2995571586    -0.3075584835
    7      C      -0.5432670746     0.3637069001     0.3498314084
    8      C       0.3233952831     1.5798807462    -0.1560126094
    9      O       1.6336636653     1.6116327391     0.5412140326
   10      C       2.5424399125     0.6797147615    -0.0477916007
   11      C       3.8904485190     0.7379048816     0.7426750739
   12      C       4.8927656753    -0.4189133122     0.3416125211
   13      C       4.3220163501    -1.4367590614    -0.7153286379
   14      O       4.6636453987    -1.5592574735    -1.9101354592
   15      O      -5.1746751193    -1.6049918316     2.1819065593
   16      O       3.4195631672    -2.3207651556    -0.0303205346
   17      O       2.2801882408    -0.0279977875    -1.0468874315
   18      C       2.7928819944    -3.2428123758    -1.0026521043
   19      C       4.7329778694     2.0219450077     0.3244850626
   20      C       5.8981845864     2.2173890946     1.3733063491
   21      C       6.8901220336     1.0726515111     0.9427327654
   22      C       6.0974150865     0.4200056516    -0.2565840644
   23      O       5.4310549997     1.5769434946    -0.9009416703
   24      H       3.6657231076     0.7398482825     1.8240351918
   25      H       5.1975162914    -0.9900293823     1.2367250876
   26      H       4.1200789890     2.9225203541     0.1243741298
   27      H       6.3546574531     3.2135450275     1.2601708795
   28      H       5.5438234322     2.1069150137     2.4107200232
   29      H       7.8517817410     1.4816936509     0.5942937242
   30      H       7.0834789148     0.3515166775     1.7527004752
   31      H       6.7079670807    -0.1312752492    -0.9977357748
   32      O      -2.3706641635     2.2432002037     0.9712800224
   33      C      -4.4830371644    -2.2884173373     3.3000911494
   34      C      -5.4092735430    -0.9825244323    -0.7304022099
   35      C      -6.4745128650    -0.3316805740    -1.6987126899
   36      C      -5.5804348897     0.6972902546    -2.4844863120
   37      C      -4.1693969304     0.4475200700    -1.8181470222
   38      O      -4.1703776435    -1.0072057778    -1.5383261794
   39      H      -5.9981719087     0.5343930755     0.8052199767
   40      H      -4.6679804859     2.1000112328    -0.3866882064
   41      H      -4.1957331943    -1.5754731931     4.0995318561
   42      H      -5.6592147213    -1.9948626330    -0.3577537558
   43      H      -6.9000072952    -1.0942436178    -2.3703936065
   44      H      -7.2958210421     0.1512573188    -1.1455622379
   45      H      -5.5456033481     0.4636178781    -3.5604348692
   46      H      -5.9188245443     1.7382195710    -2.3591968959
   47      H      -3.2964398804     0.7196017186    -2.4417309037
   48      H      -3.5707600004    -2.8142745025     2.9514665335
   49      H      -5.2050277940    -3.0241712414     3.6996130272
   50      H       2.1679553266    -3.9374523685    -0.4115338133
   51      H       3.5513819725    -3.8165595521    -1.5732769179
   52      H       2.1542027727    -2.6893897797    -1.7217572672
   53      H       0.4594717975     1.5139536084    -1.2561602520
   54      H      -0.1865227589     2.5265795571     0.1112543539
   55      H      -0.0358539300    -0.5861134427     0.0865458533
   56      H      -0.6585442979     0.4295988668     1.4529200401
 ----------------------------------------------------------------

   10   -1510.2883315191      6.89E-09 Convergence criterion met
 Total energy in the final basis set = -1510.28833152
 Final energy is   -1510.28833151909
 **  OPTIMIZATION CONVERGED  **

                    Orbital Energies (a.u.)
 --------------------------------------------------------------

 Alpha MOs
 -- Occupied --
-18.945 -18.937 -18.925 -18.915 -18.889 -18.888 -18.884 -18.881
-18.863 -18.858 -10.109 -10.102 -10.094 -10.087 -10.071 -10.066
-10.063 -10.062 -10.060 -10.058 -10.053 -10.051 -10.042 -10.037
-10.035 -10.030 -10.022 -10.020 -10.018 -10.016  -1.022  -1.016
 -1.002  -0.994  -0.971  -0.967  -0.945  -0.940  -0.928  -0.921
 -0.765  -0.760  -0.726  -0.721  -0.713  -0.704  -0.690  -0.668
 -0.651  -0.615  -0.596  -0.579  -0.547  -0.542  -0.538  -0.534
 -0.514  -0.507  -0.485  -0.474  -0.464  -0.454  -0.450  -0.445
 -0.435  -0.432  -0.427  -0.418  -0.410  -0.404  -0.400  -0.392
 -0.389  -0.381  -0.378  -0.363  -0.361  -0.354  -0.350  -0.344
 -0.338  -0.336  -0.335  -0.329  -0.329  -0.326  -0.322  -0.316
 -0.309  -0.307  -0.302  -0.301  -0.298  -0.283  -0.277  -0.274
 -0.271  -0.263  -0.256  -0.243  -0.240  -0.235  -0.231  -0.189
 -0.185  -0.163  -0.162  -0.160  -0.156  -0.146  -0.142  -0.142
 -0.138

          Ground-State Mulliken Net Atomic Charges

     Atom                 Charge (a.u.)
  ----------------------------------------
      1 O                    -0.207842
      2 C                     0.215146
      3 C                    -0.078230
      4 C                    -0.081712
      5 C                     0.214470
      6 O                    -0.170022
      7 C                    -0.050344
      8 C                    -0.054980
      9 O                    -0.170248
     10 C                     0.213650
     11 C                    -0.078241
     12 C                    -0.081336
     13 C                     0.215908
     14 O                    -0.215653
     15 O                    -0.168829
     16 O                    -0.178040
     17 O                    -0.208495
     18 C                    -0.129110
     19 C                     0.025393
     20 C                    -0.143642
     21 C                    -0.144102
     22 C                     0.024834
     23 O                    -0.188813
     24 H                     0.087095
     25 H                     0.083139
     26 H                     0.084697
     27 H                     0.077970
     28 H                     0.073617
     29 H                     0.077679
     30 H                     0.072904
     31 H                     0.089235
     32 O                    -0.221659
     33 C                    -0.128037
     34 C                     0.025000
     35 C                    -0.143705
     36 C                    -0.144292
     37 C                     0.026572
     38 O                    -0.187009
     39 H                     0.086945
     40 H                     0.083229
     41 H                     0.091502
     42 H                     0.087081
     43 H                     0.078465
     44 H                     0.073561
     45 H                     0.078320
     46 H                     0.073547
     47 H                     0.087135
     48 H                     0.091300
     49 H                     0.092532
     50 H                     0.085126
     51 H                     0.086961
     52 H                     0.091988
     53 H                     0.092151
     54 H                     0.099687
     55 H                     0.092019
     56 H                     0.095486
  ----------------------------------------
  Sum of atomic charges =     0.000000

                    Cartesian Multipole Moments
 -----------------------------------------------------------------
    Charge (ESU x 10^10)
                 0.0000
    Dipole Moment (Debye)
         X      -2.7423      Y      -0.4958      Z       2.4806
       Tot       3.7309
    Quadrupole Moments (Debye-Ang)
        XX    -140.3887     XY       1.7746     YY    -156.6877
        XZ      12.8255     YZ      -7.0037     ZZ    -160.3117

 Total job time:  54.17s(wall), 2574.76s(cpu)
        *  Thank you very much for using Q-Chem.  Have a nice day.  *
