 Q-Chem 5.0, Q-Chem, Inc., Pleasanton, CA (2017)
 Q-Chem 5.0.1 for Intel X86 EM64T Linux

User input:
--------------------------------------------------------------
$molecule
0  1
O -3.94934 -3.66094 2.70899
C -3.26408 -4.56952 2.26188
C -3.36658 -6.02376 2.66595
C -4.30295 -6.36325 3.83719
C -5.16722 -5.23643 4.35815
O -6.40014 -5.28858 3.77282
C -7.21123 -4.1459 4.06549
C -7.93948 -4.34379 5.39086
O -8.08005 -3.08337 6.065
C -9.06916 -2.28052 5.6
C -9.1506 -0.96256 6.33282
C -10.55364 -0.34122 6.39342
C -11.70175 -1.26649 6.04354
O -12.5029 -1.73438 6.83967
O -2.37765 -4.29205 1.26992
O -11.8953 -1.5128 4.72118
O -9.52558 -2.41363 4.47254
C -12.90549 -2.30356 4.21421
C -8.80123 -1.02112 7.83965
C -8.34878 0.35913 8.31358
C -9.65917 1.11485 8.27297
C -10.61818 -0.02227 7.90299
O -10.04047 -1.16472 8.48453
H -8.42794 -0.28702 5.82184
H -10.66848 0.57951 5.77999
H -8.02601 -1.77096 8.10483
H -8.03545 0.25093 9.37704
H -7.51831 0.8165 7.73392
H -9.8751 1.49715 9.29541
H -9.70727 1.94579 7.53622
H -11.64902 0.22732 8.23886
O -4.76835 -4.3623 5.12061
C -2.16827 -3.03432 0.74437
C -3.9313 -6.91176 1.54548
C -3.46421 -8.35216 1.74306
C -4.2908 -8.75171 2.9462
C -5.12832 -7.48225 3.14263
O -5.30327 -6.99131 1.83542
H -2.32465 -6.32864 2.91343
H -3.78607 -6.79998 4.72026
H -1.81553 -2.34172 1.53826
H -3.66545 -6.55698 0.52567
H -3.81151 -8.93932 0.86284
H -2.36588 -8.47613 1.85843
H -4.94744 -9.60094 2.65251
H -3.71099 -9.01886 3.85592
H -6.05636 -7.73413 3.70206
H -3.1077 -2.64546 0.2964
H -1.39358 -3.09517 -0.04722
H -12.82474 -2.33167 3.10826
H -13.89626 -1.88352 4.49031
H -12.81296 -3.33909 4.60603
H -8.87735 -4.93733 5.31434
H -7.26097 -4.92196 6.05254
H -7.94749 -3.97911 3.25249
H -6.587 -3.22134 4.08467
$end

$opt
CONSTRAINT
tors           1           2           3           4      -6.827
tors           3           4           5           6     +95.470
tors           4           5           6           7    -171.471
tors           5           6           7           8     -85.214
tors           6           7           8           9    +146.327
tors           7           8           9          10     +78.237
tors           8           9          10          11    -179.010
tors           9          10          11          12    -150.675
tors          11          12          13          14    +107.195
ENDCONSTRAINT
$end

$rem
JOBTYPE                   OPT
METHOD                    B3LYP
DFT_D                     d3_op
BASIS                     STO-3G
GEOM_OPT_MAX_CYCLES       100
GEOM_OPT_TOL_GRADIENT     300
GEOM_OPT_TOL_DISPLACEMENT 1200
GEOM_OPT_TOL_ENERGY       100
SYMMETRY                  False
THRESH                    12
SCF_CONVERGENCE           8
MAX_SUB_FILE_NUM          128
MEM_STATIC                400
MEM_TOTAL                 4000
$end
--------------------------------------------------------------

   15   -1510.1428624228      6.47E-09 Convergence criterion met
 Total energy in the final basis set = -1510.14286242
   14   -1510.2131539582      6.10E-09 Convergence criterion met
 Total energy in the final basis set = -1510.21315396
   14   -1510.2508625138      5.69E-09 Convergence criterion met
 Total energy in the final basis set = -1510.25086251
   14   -1510.2677565083      5.76E-09 Convergence criterion met
 Total energy in the final basis set = -1510.26775651
   13   -1510.2741541303      7.46E-09 Convergence criterion met
 Total energy in the final basis set = -1510.27415413
   13   -1510.2770622755      4.34E-09 Convergence criterion met
 Total energy in the final basis set = -1510.27706228
   13   -1510.2786266403      3.19E-09 Convergence criterion met
 Total energy in the final basis set = -1510.27862664
   13   -1510.2796008743      4.57E-09 Convergence criterion met
   11   -1510.2834718435      7.67E-09 Convergence criterion met
 Total energy in the final basis set = -1510.28347184
   11   -1510.2835194161      6.89E-09 Convergence criterion met
 Total energy in the final basis set = -1510.28351942
   11   -1510.2835447219      6.18E-09 Convergence criterion met
 Total energy in the final basis set = -1510.28354472
   11   -1510.2835643057      2.52E-09 Convergence criterion met
 Total energy in the final basis set = -1510.28356431
   11   -1510.2835720753      1.92E-09 Convergence criterion met
 Total energy in the final basis set = -1510.28357208
    9   -1510.2835738221      5.29E-09 Convergence criterion met
 Total energy in the final basis set = -1510.28357382

             Standard Nuclear Orientation (Angstroms)
    I     Atom           X                Y                Z
 ----------------------------------------------------------------
    1      O       3.0935313737    -1.0438481757     1.2839909341
    2      C       4.3279549274    -1.0305069844     1.0775512288
    3      C       5.0804052042    -0.4355424612    -0.1590850740
    4      C       4.1071620611     0.0520527337    -1.3103302491
    5      C       2.5894483488    -0.2698222720    -1.0437853452
    6      O       1.9594873988     0.8770255635    -0.4524727667
    7      C       0.5916924272     0.5346981772    -0.0057809650
    8      C      -0.4650883737     0.6699195857    -1.1762564365
    9      O      -1.5461243155    -0.3394557794    -1.0575198291
   10      C      -2.4893316254     0.0616386432    -0.0628236083
   11      C      -3.6138718740    -1.0303902055     0.0682161552
   12      C      -4.9942398440    -0.3996615133     0.5232066772
   13      C      -4.8927575188     1.0644250322     1.0865592512
   14      O      -5.2630712571     2.1209106102     0.5318467099
   15      O       5.2953817529    -1.5645034437     1.9830616479
   16      O      -4.4560420968     0.9723487119     2.4513873098
   17      O      -2.4258825592     1.1480806710     0.5566728127
   18      C      -4.2799791860     2.3296598614     3.0116047383
   19      C      -4.0105142624    -1.5686997947    -1.3699297801
   20      C      -5.0376529453    -2.7616427626    -1.2299638796
   21      C      -6.3738083137    -1.9894485966    -0.9194031259
   22      C      -5.8393507302    -0.5090126246    -0.8158838482
   23      O      -4.8260894379    -0.4477658051    -1.8963845242
   24      H      -3.2723352287    -1.8300131376     0.7510448159
   25      H      -5.4399204175    -1.0215471268     1.3201311772
   26      H      -3.1413786551    -1.7617106193    -2.0273415878
   27      H      -5.1039195377    -3.3259853420    -2.1735023761
   28      H      -4.7532259939    -3.4565326132    -0.4233848202
   29      H      -7.0928414533    -2.0810621325    -1.7491601249
   30      H      -6.8587027534    -2.3290457002     0.0096229874
   31      H      -6.5928885517     0.2918681865    -0.9456889848
   32      O       1.9882262795    -1.3197628037    -1.3590643455
   33      C       4.6179935842    -2.1157903773     3.1804890421
   34      C       5.8052760286     0.9313933049     0.2182237219
   35      C       6.8177803550     1.2928136747    -0.9403653196
   36      C       5.8310520570     1.7972507006    -2.0580215653
   37      C       4.4356222616     1.6047132554    -1.3426865345
   38      O       4.7272109655     1.9328230038     0.0724418074
   39      H       5.8064771605    -1.1849252718    -0.5225354125
   40      H       4.3794681170    -0.4346578934    -2.2638108477
   41      H       3.8943826110    -2.9111759380     2.9087690873
   42      H       6.2276879414     0.9527778263     1.2417068960
   43      H       7.5073646367     2.0887728211    -0.6168807184
   44      H       7.4094096469     0.4191999576    -1.2571959691
   45      H       5.9985290489     2.8603698959    -2.2932145407
   46      H       5.9049221767     1.2121879552    -2.9885667469
   47      H       3.6136535410     2.2393962844    -1.7248430827
   48      H       4.0792629742    -1.3259072077     3.7427606593
   49      H       5.4177434862    -2.5415802351     3.8138120244
   50      H      -4.0361599301     2.1931746153     4.0812905014
   51      H      -5.2026400206     2.9374412426     2.9128249064
   52      H      -3.4485084189     2.8632536292     2.5068095447
   53      H      -0.8891105067     1.6955511550    -1.1998137648
   54      H       0.0265615964     0.4492853107    -2.1450044269
   55      H       0.3475146687     1.2396930018     0.8130887296
   56      H       0.5622060713    -0.5075630116     0.3789252797
 ----------------------------------------------------------------

    9   -1510.2835744211      4.09E-09 Convergence criterion met
 Total energy in the final basis set = -1510.28357442
 Final energy is   -1510.28357442108
 **  OPTIMIZATION CONVERGED  **

                    Orbital Energies (a.u.)
 --------------------------------------------------------------

 Alpha MOs
 -- Occupied --
-18.944 -18.939 -18.924 -18.916 -18.889 -18.886 -18.880 -18.880
-18.863 -18.857 -10.107 -10.102 -10.094 -10.087 -10.070 -10.068
-10.063 -10.063 -10.059 -10.054 -10.052 -10.050 -10.042 -10.037
-10.036 -10.028 -10.022 -10.020 -10.016 -10.015  -1.020  -1.016
 -1.002  -0.994  -0.972  -0.964  -0.944  -0.939  -0.928  -0.921
 -0.765  -0.758  -0.725  -0.721  -0.712  -0.703  -0.688  -0.668
 -0.650  -0.615  -0.595  -0.579  -0.547  -0.540  -0.539  -0.532
 -0.514  -0.505  -0.484  -0.476  -0.463  -0.453  -0.449  -0.446
 -0.435  -0.429  -0.426  -0.417  -0.410  -0.402  -0.398  -0.396
 -0.387  -0.380  -0.378  -0.364  -0.361  -0.355  -0.347  -0.345
 -0.340  -0.336  -0.332  -0.330  -0.327  -0.325  -0.319  -0.314
 -0.309  -0.306  -0.302  -0.302  -0.295  -0.281  -0.278  -0.272
 -0.271  -0.261  -0.255  -0.243  -0.240  -0.235  -0.229  -0.188
 -0.184  -0.163  -0.161  -0.159  -0.155  -0.147  -0.143  -0.140
 -0.138

          Ground-State Mulliken Net Atomic Charges

     Atom                 Charge (a.u.)
  ----------------------------------------
      1 O                    -0.208370
      2 C                     0.213953
      3 C                    -0.078213
      4 C                    -0.081533
      5 C                     0.213851
      6 O                    -0.171462
      7 C                    -0.050654
      8 C                    -0.050109
      9 O                    -0.166236
     10 C                     0.214021
     11 C                    -0.076247
     12 C                    -0.082043
     13 C                     0.213971
     14 O                    -0.218698
     15 O                    -0.168983
     16 O                    -0.174147
     17 O                    -0.211564
     18 C                    -0.128134
     19 C                     0.022833
     20 C                    -0.145126
     21 C                    -0.142897
     22 C                     0.023273
     23 O                    -0.191764
     24 H                     0.086761
     25 H                     0.083072
     26 H                     0.092016
     27 H                     0.077697
     28 H                     0.072756
     29 H                     0.077257
     30 H                     0.072628
     31 H                     0.088358
     32 O                    -0.220113
     33 C                    -0.128320
     34 C                     0.025468
     35 C                    -0.143749
     36 C                    -0.144174
     37 C                     0.026168
     38 O                    -0.187711
     39 H                     0.087350
     40 H                     0.083012
     41 H                     0.091614
     42 H                     0.085117
     43 H                     0.078447
     44 H                     0.073860
     45 H                     0.078185
     46 H                     0.073510
     47 H                     0.088821
     48 H                     0.090766
     49 H                     0.092194
     50 H                     0.085487
     51 H                     0.086742
     52 H                     0.091345
     53 H                     0.093970
     54 H                     0.092949
     55 H                     0.094132
     56 H                     0.098661
  ----------------------------------------
  Sum of atomic charges =     0.000000

                    Cartesian Multipole Moments
 -----------------------------------------------------------------
    Charge (ESU x 10^10)
                 0.0000
    Dipole Moment (Debye)
         X       2.8356      Y      -2.0603      Z       1.1126
       Tot       3.6775
    Quadrupole Moments (Debye-Ang)
        XX    -143.1726     XY       7.7462     YY    -160.5039
        XZ      -6.6558     YZ      -3.6575     ZZ    -152.8641

 Total job time:  60.10s(wall), 2857.93s(cpu)
        *  Thank you very much for using Q-Chem.  Have a nice day.  *
