 Q-Chem 5.0, Q-Chem, Inc., Pleasanton, CA (2017)
 Q-Chem 5.0.1 for Intel X86 EM64T Linux

User input:
--------------------------------------------------------------
$molecule
0  1
O 2.9805176901 -0.8734165505 1.3743255916
C 4.2167079336 -0.9345389543 1.1882033275
C 5.0154330177 -0.4575518885 -0.0699160333
C 4.0890931461 -0.1022569019 -1.3061059972
C 2.5584973226 -0.3686597592 -1.0498565744
O 1.9342175954 0.8488231601 -0.6161544844
C 0.5448758099 0.5868430048 -0.1819639654
C -0.4742810725 0.6686215907 -1.3910113484
O -1.5787027448 -0.3159245769 -1.2657616347
C -2.4323376765 0.0369984396 -0.1767609064
C -3.582289107 -1.0269799158 -0.0395539187
C -4.9032606227 -0.3916273321 0.5629184252
C -4.7124490359 1.0267372021 1.2132162738
O -5.1024438745 2.1273523548 0.7685494172
O 5.1449428579 -1.4490802424 2.1447790218
O -4.1663826595 0.8282577739 2.5266040665
O -2.2896426525 1.0764679196 0.5070535586
C -3.9065182141 2.1385722381 3.1612167893
C -4.1024571939 -1.4542063803 -1.4760096193
C -5.1467819912 -2.6318558223 -1.3332190784
C -6.4313742607 -1.8546993251 -0.8612702464
C -5.852561169 -0.3949542867 -0.708243041
O -4.9272557193 -0.2833377172 -1.8603754329
H -3.2191169781 -1.8823799778 0.5591947636
H -5.3035902941 -1.054101128 1.3512634483
H -3.2928099873 -1.6202579881 -2.2119365741
H -5.30500145 -3.1267822778 -2.3043748733
H -4.8167321077 -3.3883703995 -0.6029231262
H -7.2197048339 -1.8764941356 -1.6309542231
H -6.8461417146 -2.2442592577 0.0820979343
H -6.5943062321 0.4271174782 -0.7269622553
O 1.9465208262 -1.4392253286 -1.2568903814
C 4.4253324282 -1.8864450076 3.3645442537
C 5.7180485845 0.9467915481 0.1935712839
C 6.7908249217 1.1841400332 -0.9411047078
C 5.8652814628 1.5431762 -2.1619803717
C 4.4333761077 1.4352440215 -1.502386946
O 4.6519010364 1.9225073143 -0.1197699276
H 5.7610583866 -1.2322422656 -0.3239267769
H 4.3841680413 -0.6998683055 -2.1870834812
H 3.6743262598 -2.6695184249 3.1346854447
H 6.0856257618 1.0839813048 1.2291497674
H 7.453707294 2.0227958403 -0.6748129073
H 7.4083085057 0.2895967252 -1.1218538343
H 6.0482665427 2.5690230016 -2.5191142122
H 5.9855715968 0.8469808545 -3.007093757
H 3.6373043385 2.0228199408 -1.9977284672
H 3.9100231883 -1.0380036614 3.8595748089
H 5.1960516143 -2.2980700145 4.0417525433
H -3.5758835221 1.9216049323 4.1936353125
H -4.8174412941 2.7710037235 3.1852356769
H -3.1070753282 2.6889823805 2.6238017503
H -0.8795287775 1.6982875637 -1.4853689376
H 0.0433493239 0.3920563967 -2.3314746378
H 0.3022902727 1.3583272829 0.574763907
H 0.4714059854 -0.4225138896 0.2771619366
$end

$rem
JOBTYPE                   OPT
METHOD                    B3LYP
DFT_D                     d3_op
BASIS                     STO-3G
GEOM_OPT_MAX_CYCLES       100
GEOM_OPT_TOL_GRADIENT     300
GEOM_OPT_TOL_DISPLACEMENT 1200
GEOM_OPT_TOL_ENERGY       100
SYMMETRY                  False
THRESH                    12
SCF_CONVERGENCE           8
MAX_SUB_FILE_NUM          128
MEM_STATIC                400
MEM_TOTAL                 4000
$end
--------------------------------------------------------------

   16   -1510.2831401023      5.66E-09 Convergence criterion met
 Total energy in the final basis set = -1510.28314010
   13   -1510.2842994404      5.12E-09 Convergence criterion met
 Total energy in the final basis set = -1510.28429944
   13   -1510.2850254960      4.81E-09 Convergence criterion met
 Total energy in the final basis set = -1510.28502550
   13   -1510.2856093749      5.00E-09 Convergence criterion met
 Total energy in the final basis set = -1510.28560937
   13   -1510.2861973238      5.79E-09 Convergence criterion met
 Total energy in the final basis set = -1510.28619732
   13   -1510.2866980810      4.59E-09 Convergence criterion met
 Total energy in the final basis set = -1510.28669808
   13   -1510.2870908844      3.76E-09 Convergence criterion met
 Total energy in the final basis set = -1510.28709088
   13   -1510.2873250101      2.98E-09 Convergence criterion met
   13   -1510.2878545395      3.01E-09 Convergence criterion met
 Total energy in the final basis set = -1510.28785454
   13   -1510.2879394890      4.89E-09 Convergence criterion met
 Total energy in the final basis set = -1510.28793949
   12   -1510.2880562134      8.63E-09 Convergence criterion met
 Total energy in the final basis set = -1510.28805621
   12   -1510.2880476326      3.22E-09 Convergence criterion met
 Total energy in the final basis set = -1510.28804763
   10   -1510.2880520162      6.50E-09 Convergence criterion met
 Total energy in the final basis set = -1510.28805202
   10   -1510.2880548355      5.99E-09 Convergence criterion met
 Total energy in the final basis set = -1510.28805484

             Standard Nuclear Orientation (Angstroms)
    I     Atom           X                Y                Z
 ----------------------------------------------------------------
    1      O       3.3829861919    -0.7130329158    -2.1485242332
    2      C       4.4676695391    -0.8968501260    -1.5510870958
    3      C       5.1059120992     0.0028358560    -0.4401847848
    4      C       4.1546785286     1.1771178859     0.0342468648
    5      C       2.7631270047     1.2177859725    -0.7002292378
    6      O       1.8790216599     0.2841370560    -0.0605612978
    7      C       0.5908387552     0.2077404831    -0.7859168193
    8      C      -0.3142723946     1.4756145121    -0.5404644834
    9      O      -1.6621294178     1.2685507833    -1.1255605676
   10      C      -2.5152879128     0.5994336476    -0.1944576291
   11      C      -3.9093359524     0.3788201484    -0.8697089112
   12      C      -4.9014396530    -0.4715496048     0.0237839814
   13      C      -4.2842679268    -0.9898311404     1.3765509152
   14      O      -4.5279428388    -0.5765125174     2.5294976932
   15      O       5.3377786402    -2.0016518316    -1.7997462223
   16      O      -3.4883869002    -2.1475815803     1.0756871882
   17      O      -2.1788162369     0.2812430025     0.9689421426
   18      C      -2.8313180857    -2.6340967511     2.3083354950
   19      C      -4.7140841370     1.7475268333    -0.9883025470
   20      C      -5.9352901737     1.5206978409    -1.9647982397
   21      C      -6.9148953284     0.7034379560    -1.0425388699
   22      C      -6.0577514408     0.5828442487     0.2778380010
   23      O      -5.3425110762     1.8795695736     0.3436468470
   24      H      -3.7510312482    -0.0780265274    -1.8631857215
   25      H      -5.2666973363    -1.3488758183    -0.5394761151
   26      H      -4.0817159677     2.6280112760    -1.2152329562
   27      H      -6.3719611875     2.4858905758    -2.2665910739
   28      H      -5.6406913233     0.9667461351    -2.8704121334
   29      H      -7.8457716185     1.2604072087    -0.8496396092
   30      H      -7.1724569978    -0.2822524564    -1.4616230885
   31      H      -6.6290508499     0.4127648695     1.2110477590
   32      O       2.4264562313     2.0029178572    -1.6134623182
   33      C       4.7557937751    -2.8830747200    -2.8395098627
   34      C       5.3171394867    -0.7908801532     0.9216278005
   35      C       6.3071113514     0.0407074589     1.8270251358
   36      C       5.3694057533     1.2119315515     2.3026369979
   37      C       4.0159875826     0.8334826955     1.5800537350
   38      O       4.0133679583    -0.6481041678     1.6049889956
   39      H       6.0679677133     0.3905715307    -0.8228455605
   40      H       4.6365060110     2.1574943506    -0.1274065148
   41      H       4.6281822244    -2.3478116805    -3.8025672709
   42      H       5.5770062326    -1.8585101075     0.7846937010
   43      H       6.6540912803    -0.5693143839     2.6760413979
   44      H       7.1851278140     0.3963363271     1.2647339996
   45      H       5.2351049397     1.2019747104     3.3959446718
   46      H       5.7401133704     2.2049288598     2.0017287837
   47      H       3.0986376965     1.2286804501     2.0568812727
   48      H       3.7708426906    -3.2856297530    -2.5263980075
   49      H       5.4723214476    -3.7147712355    -2.9694042226
   50      H      -2.2749155158    -3.5457026965     2.0223368647
   51      H      -3.5702945633    -2.8815400800     3.0978007001
   52      H      -2.1248659412    -1.8785992764     2.7096810466
   53      H      -0.3883485104     1.6723422595     0.5500144630
   54      H       0.1245000921     2.3499008543    -1.0607632194
   55      H       0.0809329792    -0.6907000366    -0.3825612034
   56      H       0.7621003771     0.0768744618    -1.8757880380
 ----------------------------------------------------------------

    9   -1510.2880550318      2.80E-09 Convergence criterion met
 Total energy in the final basis set = -1510.28805503
 Final energy is   -1510.28805503178
 **  OPTIMIZATION CONVERGED  **

                    Orbital Energies (a.u.)
 --------------------------------------------------------------

 Alpha MOs
 -- Occupied --
-18.945 -18.938 -18.924 -18.915 -18.889 -18.888 -18.884 -18.883
-18.863 -18.857 -10.109 -10.103 -10.094 -10.086 -10.071 -10.065
-10.064 -10.062 -10.060 -10.058 -10.054 -10.050 -10.042 -10.037
-10.035 -10.029 -10.022 -10.020 -10.018 -10.016  -1.022  -1.016
 -1.002  -0.993  -0.971  -0.967  -0.945  -0.940  -0.928  -0.920
 -0.764  -0.760  -0.726  -0.721  -0.713  -0.704  -0.690  -0.668
 -0.650  -0.615  -0.596  -0.579  -0.547  -0.541  -0.538  -0.534
 -0.514  -0.507  -0.486  -0.473  -0.464  -0.454  -0.450  -0.444
 -0.435  -0.432  -0.428  -0.417  -0.410  -0.404  -0.399  -0.394
 -0.390  -0.381  -0.378  -0.362  -0.361  -0.355  -0.350  -0.344
 -0.338  -0.336  -0.334  -0.329  -0.328  -0.326  -0.321  -0.316
 -0.310  -0.307  -0.301  -0.301  -0.298  -0.283  -0.277  -0.273
 -0.271  -0.263  -0.255  -0.242  -0.240  -0.235  -0.231  -0.189
 -0.185  -0.163  -0.162  -0.160  -0.157  -0.145  -0.143  -0.142
 -0.137

          Ground-State Mulliken Net Atomic Charges

     Atom                 Charge (a.u.)
  ----------------------------------------
      1 O                    -0.207985
      2 C                     0.215045
      3 C                    -0.078321
      4 C                    -0.081640
      5 C                     0.214376
      6 O                    -0.169983
      7 C                    -0.049160
      8 C                    -0.056065
      9 O                    -0.170984
     10 C                     0.213745
     11 C                    -0.077909
     12 C                    -0.081633
     13 C                     0.215912
     14 O                    -0.216554
     15 O                    -0.168787
     16 O                    -0.177716
     17 O                    -0.207170
     18 C                    -0.128771
     19 C                     0.025318
     20 C                    -0.143782
     21 C                    -0.143983
     22 C                     0.024876
     23 O                    -0.188967
     24 H                     0.086615
     25 H                     0.083058
     26 H                     0.085455
     27 H                     0.077996
     28 H                     0.073469
     29 H                     0.077618
     30 H                     0.072926
     31 H                     0.088940
     32 O                    -0.221425
     33 C                    -0.128027
     34 C                     0.025109
     35 C                    -0.143722
     36 C                    -0.144407
     37 C                     0.026838
     38 O                    -0.186641
     39 H                     0.086805
     40 H                     0.083447
     41 H                     0.090887
     42 H                     0.087292
     43 H                     0.078402
     44 H                     0.073561
     45 H                     0.078482
     46 H                     0.073722
     47 H                     0.086803
     48 H                     0.091771
     49 H                     0.092517
     50 H                     0.085229
     51 H                     0.086122
     52 H                     0.092390
     53 H                     0.094572
     54 H                     0.099774
     55 H                     0.089897
     56 H                     0.094664
  ----------------------------------------
  Sum of atomic charges =     0.000000

                    Cartesian Multipole Moments
 -----------------------------------------------------------------
    Charge (ESU x 10^10)
                 0.0000
    Dipole Moment (Debye)
         X       2.5783      Y      -1.5217      Z      -2.0906
       Tot       3.6516
    Quadrupole Moments (Debye-Ang)
        XX    -138.4317     XY       3.0950     YY    -155.7038
        XZ      11.8948     YZ       4.5006     ZZ    -162.4216

 Total job time:  62.19s(wall), 2957.37s(cpu)
        *  Thank you very much for using Q-Chem.  Have a nice day.  *
