 Q-Chem 5.0, Q-Chem, Inc., Pleasanton, CA (2017)
 Q-Chem 5.0.1 for Intel X86 EM64T Linux

User input:
--------------------------------------------------------------
$molecule
0  1
O -3.94934 -3.66094 2.70899
C -3.26408 -4.56952 2.26188
C -3.36658 -6.02376 2.66595
C -4.21943 -6.35095 3.90266
C -5.0183 -5.2097 4.49212
O -6.28983 -5.22739 3.99382
C -7.054 -4.07339 4.35932
C -7.74085 -4.30139 5.70184
O -7.78146 -3.07337 6.44561
C -8.59592 -2.11317 5.9418
C -8.57687 -0.83999 6.75377
C -9.88075 -0.02952 6.71748
C -11.09893 -0.7609 6.1904
O -12.04493 -1.14041 6.8654
O -2.40814 -4.29974 1.24143
O -11.18212 -0.89869 4.8409
O -8.96752 -2.11709 4.777
C -12.23446 -1.49809 4.18044
C -8.40409 -1.03082 8.28003
C -7.82229 0.24261 8.89177
C -9.00556 1.17848 8.77353
C -10.06459 0.21184 8.23157
O -9.71396 -1.03163 8.78663
H -7.71868 -0.24655 6.36515
H -9.80144 0.93009 6.16061
H -7.77141 -1.89701 8.56806
H -7.6438 0.03238 9.97103
H -6.87941 0.60821 8.43112
H -9.27695 1.53088 9.7935
H -8.86006 2.04703 8.09527
H -11.08208 0.58705 8.47984
O -4.54277 -4.34855 5.22455
C -2.21575 -3.04635 0.69924
C -4.025 -6.89601 1.58656
C -3.57418 -8.34611 1.7481
C -4.32431 -8.73419 3.00416
C -5.11731 -7.44777 3.26432
O -5.37424 -6.94791 1.97374
H -2.31582 -6.34695 2.84325
H -3.64851 -6.80531 4.74253
H -1.84056 -2.34672 1.4765
H -3.8242 -6.54154 0.55184
H -3.9914 -8.92396 0.89247
H -2.47297 -8.49021 1.78841
H -5.02019 -9.56553 2.75257
H -3.68921 -9.02173 3.86965
H -6.00847 -7.68222 3.88762
H -3.16837 -2.6621 0.2758
H -1.46472 -3.1133 -0.11436
H -12.03927 -1.47427 3.08876
H -13.17869 -0.95039 4.38727
H -12.33457 -2.55655 4.50295
H -8.72591 -4.80925 5.60884
H -7.08944 -4.9655 6.30849
H -7.80466 -3.86223 3.57031
H -6.40465 -3.16646 4.38873
$end

$opt
CONSTRAINT
tors           1           2           3           4     -11.303
tors           3           4           5           6     +95.059
tors           4           5           6           7    -171.858
tors           5           6           7           8     -87.642
tors           6           7           8           9    +144.570
tors           7           8           9          10     +68.658
tors           8           9          10          11    -179.010
tors           9          10          11          12    -150.675
tors          11          12          13          14    +108.062
ENDCONSTRAINT
$end

$rem
JOBTYPE                   OPT
METHOD                    B3LYP
DFT_D                     d3_op
BASIS                     STO-3G
GEOM_OPT_MAX_CYCLES       100
GEOM_OPT_TOL_GRADIENT     300
GEOM_OPT_TOL_DISPLACEMENT 1200
GEOM_OPT_TOL_ENERGY       100
SYMMETRY                  False
THRESH                    12
SCF_CONVERGENCE           8
MAX_SUB_FILE_NUM          128
MEM_STATIC                400
MEM_TOTAL                 4000
$end
--------------------------------------------------------------

   15   -1510.1435773574      6.51E-09 Convergence criterion met
 Total energy in the final basis set = -1510.14357736
   14   -1510.2139557028      7.31E-09 Convergence criterion met
 Total energy in the final basis set = -1510.21395570
   14   -1510.2516249250      6.10E-09 Convergence criterion met
 Total energy in the final basis set = -1510.25162492
   14   -1510.2684521022      6.37E-09 Convergence criterion met
 Total energy in the final basis set = -1510.26845210
   13   -1510.2747641519      5.08E-09 Convergence criterion met
 Total energy in the final basis set = -1510.27476415
    2   -1510.2747641519      4.22E-09 Convergence criterion met
 Total energy in the final basis set = -1510.27476415
   13   -1510.2775347170      4.03E-09 Convergence criterion met
 Total energy in the final basis set = -1510.27753472
   13   -1510.2789887087      2.78E-09 Convergence criterion met
   11   -1510.2832495599      8.05E-09 Convergence criterion met
 Total energy in the final basis set = -1510.28324956
   11   -1510.2832906146      6.72E-09 Convergence criterion met
 Total energy in the final basis set = -1510.28329061
   11   -1510.2833167433      7.10E-09 Convergence criterion met
 Total energy in the final basis set = -1510.28331674
   11   -1510.2833355401      3.31E-09 Convergence criterion met
 Total energy in the final basis set = -1510.28333554
   11   -1510.2833486530      5.23E-09 Convergence criterion met
 Total energy in the final basis set = -1510.28334865
    9   -1510.2833509480      5.25E-09 Convergence criterion met
 Total energy in the final basis set = -1510.28335095

             Standard Nuclear Orientation (Angstroms)
    I     Atom           X                Y                Z
 ----------------------------------------------------------------
    1      O       2.9805176901    -0.8734165505     1.3743255916
    2      C       4.2167079336    -0.9345389543     1.1882033275
    3      C       5.0154330177    -0.4575518885    -0.0699160333
    4      C       4.0890931461    -0.1022569019    -1.3061059972
    5      C       2.5584973226    -0.3686597592    -1.0498565744
    6      O       1.9342175954     0.8488231601    -0.6161544844
    7      C       0.5448758099     0.5868430048    -0.1819639654
    8      C      -0.4742810725     0.6686215907    -1.3910113484
    9      O      -1.5787027448    -0.3159245769    -1.2657616347
   10      C      -2.4323376765     0.0369984396    -0.1767609064
   11      C      -3.5822891070    -1.0269799158    -0.0395539187
   12      C      -4.9032606227    -0.3916273321     0.5629184252
   13      C      -4.7124490359     1.0267372021     1.2132162738
   14      O      -5.1024438745     2.1273523548     0.7685494172
   15      O       5.1449428579    -1.4490802424     2.1447790218
   16      O      -4.1663826595     0.8282577739     2.5266040665
   17      O      -2.2896426525     1.0764679196     0.5070535586
   18      C      -3.9065182141     2.1385722381     3.1612167893
   19      C      -4.1024571939    -1.4542063803    -1.4760096193
   20      C      -5.1467819912    -2.6318558223    -1.3332190784
   21      C      -6.4313742607    -1.8546993251    -0.8612702464
   22      C      -5.8525611690    -0.3949542867    -0.7082430410
   23      O      -4.9272557193    -0.2833377172    -1.8603754329
   24      H      -3.2191169781    -1.8823799778     0.5591947636
   25      H      -5.3035902941    -1.0541011280     1.3512634483
   26      H      -3.2928099873    -1.6202579881    -2.2119365741
   27      H      -5.3050014500    -3.1267822778    -2.3043748733
   28      H      -4.8167321077    -3.3883703995    -0.6029231262
   29      H      -7.2197048339    -1.8764941356    -1.6309542231
   30      H      -6.8461417146    -2.2442592577     0.0820979343
   31      H      -6.5943062321     0.4271174782    -0.7269622553
   32      O       1.9465208262    -1.4392253286    -1.2568903814
   33      C       4.4253324282    -1.8864450076     3.3645442537
   34      C       5.7180485845     0.9467915481     0.1935712839
   35      C       6.7908249217     1.1841400332    -0.9411047078
   36      C       5.8652814628     1.5431762000    -2.1619803717
   37      C       4.4333761077     1.4352440215    -1.5023869460
   38      O       4.6519010364     1.9225073143    -0.1197699276
   39      H       5.7610583866    -1.2322422656    -0.3239267769
   40      H       4.3841680413    -0.6998683055    -2.1870834812
   41      H       3.6743262598    -2.6695184249     3.1346854447
   42      H       6.0856257618     1.0839813048     1.2291497674
   43      H       7.4537072940     2.0227958403    -0.6748129073
   44      H       7.4083085057     0.2895967252    -1.1218538343
   45      H       6.0482665427     2.5690230016    -2.5191142122
   46      H       5.9855715968     0.8469808545    -3.0070937570
   47      H       3.6373043385     2.0228199408    -1.9977284672
   48      H       3.9100231883    -1.0380036614     3.8595748089
   49      H       5.1960516143    -2.2980700145     4.0417525433
   50      H      -3.5758835221     1.9216049323     4.1936353125
   51      H      -4.8174412941     2.7710037235     3.1852356769
   52      H      -3.1070753282     2.6889823805     2.6238017503
   53      H      -0.8795287775     1.6982875637    -1.4853689376
   54      H       0.0433493239     0.3920563967    -2.3314746378
   55      H       0.3022902727     1.3583272829     0.5747639070
   56      H       0.4714059854    -0.4225138896     0.2771619366
 ----------------------------------------------------------------

    9   -1510.2833515171      3.60E-09 Convergence criterion met
 Total energy in the final basis set = -1510.28335152
 Final energy is   -1510.28335151714
 **  OPTIMIZATION CONVERGED  **

                    Orbital Energies (a.u.)
 --------------------------------------------------------------

 Alpha MOs
 -- Occupied --
-18.943 -18.939 -18.924 -18.916 -18.889 -18.885 -18.881 -18.879
-18.863 -18.858 -10.106 -10.102 -10.094 -10.087 -10.070 -10.069
-10.063 -10.063 -10.059 -10.054 -10.053 -10.050 -10.042 -10.036
-10.036 -10.028 -10.022 -10.020 -10.016 -10.015  -1.020  -1.016
 -1.002  -0.994  -0.971  -0.965  -0.943  -0.939  -0.928  -0.921
 -0.764  -0.758  -0.725  -0.721  -0.712  -0.703  -0.688  -0.668
 -0.650  -0.615  -0.595  -0.579  -0.547  -0.540  -0.538  -0.533
 -0.514  -0.505  -0.483  -0.475  -0.463  -0.452  -0.449  -0.445
 -0.435  -0.430  -0.426  -0.416  -0.410  -0.402  -0.399  -0.397
 -0.388  -0.379  -0.377  -0.364  -0.360  -0.356  -0.348  -0.345
 -0.340  -0.336  -0.332  -0.330  -0.327  -0.324  -0.319  -0.314
 -0.308  -0.305  -0.302  -0.301  -0.295  -0.282  -0.279  -0.272
 -0.271  -0.261  -0.256  -0.242  -0.240  -0.234  -0.229  -0.188
 -0.184  -0.164  -0.161  -0.159  -0.154  -0.147  -0.143  -0.140
 -0.138

          Ground-State Mulliken Net Atomic Charges

     Atom                 Charge (a.u.)
  ----------------------------------------
      1 O                    -0.208450
      2 C                     0.213316
      3 C                    -0.078480
      4 C                    -0.081179
      5 C                     0.213635
      6 O                    -0.171286
      7 C                    -0.050603
      8 C                    -0.049293
      9 O                    -0.166157
     10 C                     0.213997
     11 C                    -0.076268
     12 C                    -0.082060
     13 C                     0.214019
     14 O                    -0.218650
     15 O                    -0.169034
     16 O                    -0.174017
     17 O                    -0.211521
     18 C                    -0.128111
     19 C                     0.022825
     20 C                    -0.145084
     21 C                    -0.142867
     22 C                     0.023477
     23 O                    -0.191768
     24 H                     0.086953
     25 H                     0.083158
     26 H                     0.091738
     27 H                     0.077625
     28 H                     0.072871
     29 H                     0.077171
     30 H                     0.072641
     31 H                     0.088330
     32 O                    -0.220419
     33 C                    -0.128384
     34 C                     0.025546
     35 C                    -0.143563
     36 C                    -0.144436
     37 C                     0.026292
     38 O                    -0.186921
     39 H                     0.087214
     40 H                     0.083115
     41 H                     0.091559
     42 H                     0.084614
     43 H                     0.078448
     44 H                     0.073934
     45 H                     0.078180
     46 H                     0.073449
     47 H                     0.088510
     48 H                     0.090695
     49 H                     0.092061
     50 H                     0.085478
     51 H                     0.086681
     52 H                     0.091313
     53 H                     0.091792
     54 H                     0.092468
     55 H                     0.097039
     56 H                     0.098408
  ----------------------------------------
  Sum of atomic charges =    -0.000000

                    Cartesian Multipole Moments
 -----------------------------------------------------------------
    Charge (ESU x 10^10)
                 0.0000
    Dipole Moment (Debye)
         X       2.8319      Y      -2.1275      Z       0.9657
       Tot       3.6713
    Quadrupole Moments (Debye-Ang)
        XX    -143.5909     XY       8.2175     YY    -161.9274
        XZ      -5.6312     YZ      -2.9177     ZZ    -151.3196

 Total job time:  59.31s(wall), 2819.37s(cpu)
        *  Thank you very much for using Q-Chem.  Have a nice day.  *
