 Q-Chem 5.0, Q-Chem, Inc., Pleasanton, CA (2017)
 Q-Chem 5.0.1 for Intel X86 EM64T Linux

User input:
--------------------------------------------------------------
$molecule
0  1
O 3.1656759518 -1.0948001591 1.3300505337
C 4.3931463162 -0.9697544601 1.1175731471
C 5.0807742042 -0.4377910633 -0.1844466993
C 4.0413441852 -0.0398853609 -1.3125749628
C 2.5444152743 -0.376986426 -0.9582010427
O 1.9309618258 0.7766966931 -0.3610171172
C 0.5309655057 0.4766143315 0.0090039205
C -0.4496959083 0.5584177412 -1.2311091475
O -1.5751726675 -0.4025213861 -1.1170107217
C -2.4757782694 0.0061185693 -0.0870276386
C -3.6448332966 -1.0390146076 0.0324330258
C -4.9834458114 -0.3718752524 0.5560314465
C -4.8048620392 1.0665554621 1.1642513197
O -5.1507501881 2.1557549629 0.659268437
O 5.405862884 -1.303127398 2.0675967555
O -4.3288553741 0.9086946102 2.5099268832
O -2.3502668071 1.0677353159 0.5652287288
C -4.0804169276 2.2370416326 3.1105552828
C -4.1065177948 -1.5049976549 -1.4119195186
C -5.1683624698 -2.6679197063 -1.2796425688
C -6.4643221365 -1.8650858214 -0.8890497486
C -5.8773203409 -0.4066956974 -0.7548253063
O -4.9008417001 -0.3392007222 -1.867850718
H -3.3186667559 -1.879834404 0.6718041274
H -5.4250665323 -1.0030811194 1.3477991468
H -3.2670845337 -1.7016498265 -2.1057445974
H -5.2888565746 -3.1911567506 -2.2413859298
H -4.8783105209 -3.4039542414 -0.5125402213
H -7.2184220803 -1.9033462219 -1.6916067096
H -6.923583792 -2.2223990954 0.0463718304
H -6.6086250303 0.4213272568 -0.831039893
O 1.9341142751 -1.4292795595 -1.2473907567
C 4.7833793462 -1.8036845375 3.3161062885
C 5.7938971123 0.9603934102 0.074566698
C 6.73836586 1.2721262929 -1.1529495976
C 5.6865721608 1.6907061313 -2.2460810719
C 4.3329047887 1.515084112 -1.450269951
O 4.6880553215 1.9314495774 -0.0734025859
H 5.8025829317 -1.1969536893 -0.5366798012
H 4.277181099 -0.5760306491 -2.2492092125
H 4.2001552292 -2.7299046467 3.1360097887
H 6.26566937 1.0486772154 1.0724554327
H 7.4240382749 2.0999691229 -0.9120438095
H 7.3345411403 0.3940271631 -1.4482604331
H 5.8189818671 2.7407637257 -2.5516921828
H 5.7264299088 1.0524975724 -3.1429308743
H 3.4789048543 2.110323681 -1.8257129621
H 4.1114359028 -1.0460755398 3.7681824969
H 5.6188717573 -2.0200268463 4.0068511678
H -3.8131296176 2.0531429641 4.1674592988
H -4.9790207961 2.8851376011 3.0589233807
H -3.2413845203 2.7532879126 2.6001558642
H -0.8309615869 1.5942344376 -1.3533465683
H 0.0876508702 0.2532883191 -2.1510434654
H 0.2449726071 1.2273939037 0.7713676878
H 0.4595958464 -0.5427752312 0.44715107
$end

$rem
JOBTYPE                   OPT
METHOD                    B3LYP
DFT_D                     d3_op
BASIS                     STO-3G
GEOM_OPT_MAX_CYCLES       100
GEOM_OPT_TOL_GRADIENT     300
GEOM_OPT_TOL_DISPLACEMENT 1200
GEOM_OPT_TOL_ENERGY       100
SYMMETRY                  False
THRESH                    12
SCF_CONVERGENCE           8
MAX_SUB_FILE_NUM          128
MEM_STATIC                400
MEM_TOTAL                 4000
$end
--------------------------------------------------------------

   16   -1510.2838983302      5.57E-09 Convergence criterion met
 Total energy in the final basis set = -1510.28389833
   13   -1510.2847039968      8.73E-09 Convergence criterion met
 Total energy in the final basis set = -1510.28470400
   13   -1510.2853215520      3.65E-09 Convergence criterion met
 Total energy in the final basis set = -1510.28532155
   13   -1510.2860347583      2.87E-09 Convergence criterion met
 Total energy in the final basis set = -1510.28603476
   13   -1510.2865758349      3.90E-09 Convergence criterion met
 Total energy in the final basis set = -1510.28657583
   13   -1510.2870869017      4.37E-09 Convergence criterion met
 Total energy in the final basis set = -1510.28708690
   13   -1510.2875575753      4.28E-09 Convergence criterion met
 Total energy in the final basis set = -1510.28755758
   13   -1510.2877356344      3.10E-09 Convergence criterion met
   12   -1510.2881846632      8.58E-09 Convergence criterion met
 Total energy in the final basis set = -1510.28818466
   12   -1510.2882064054      8.70E-09 Convergence criterion met
 Total energy in the final basis set = -1510.28820641
   12   -1510.2882150140      4.23E-09 Convergence criterion met
 Total energy in the final basis set = -1510.28821501
   10   -1510.2882108464      8.48E-09 Convergence criterion met
 Total energy in the final basis set = -1510.28821085
    9   -1510.2882141758      6.41E-09 Convergence criterion met
 Total energy in the final basis set = -1510.28821418
   10   -1510.2882128309      3.03E-09 Convergence criterion met
 Total energy in the final basis set = -1510.28821283

             Standard Nuclear Orientation (Angstroms)
    I     Atom           X                Y                Z
 ----------------------------------------------------------------
    1      O      -3.3045196270    -0.8322936456     1.9876587807
    2      C      -4.3791298321    -1.0043331998     1.3689923625
    3      C      -5.0384876457    -0.0453125873     0.3211650157
    4      C      -4.1174727085     1.1832077251    -0.0668472288
    5      C      -2.7368329865     1.2199738229     0.6891121518
    6      O      -1.8096261320     0.3671396386     0.0010844193
    7      C      -0.5314521588     0.2871852499     0.7439905357
    8      C       0.3258789477     1.6029398663     0.5960162041
    9      O       1.6763865964     1.4287668897     1.1870000194
   10      C       2.5310233901     0.7339669586     0.2763557981
   11      C       3.9451119286     0.5788026505     0.9249989977
   12      C       4.8414942725    -0.4831828572     0.1674169701
   13      C       4.0970075623    -1.2567812934    -0.9837945035
   14      O       4.3354207231    -1.2037947954    -2.2083064846
   15      O      -5.2173304485    -2.1497760945     1.5271277148
   16      O       3.1624152620    -2.1625737269    -0.3743125416
   17      O       2.1839794292     0.3562695392    -0.8661635984
   18      C       2.3801140771    -2.8515914585    -1.4240065378
   19      C       4.7989923553     1.9018295895     0.6943696182
   20      C       6.1009191833     1.8265914611     1.5859927797
   21      C       6.9754956856     0.8057888521     0.7670723750
   22      C       5.9900071027     0.4431623619    -0.4112196868
   23      O       5.3013252960     1.7272631611    -0.6861899785
   24      H       3.8277439034     0.3476605285     1.9983259583
   25      H       5.2394216979    -1.2293155995     0.8789886991
   26      H       4.2174205120     2.8399943342     0.7858760098
   27      H       6.5822841562     2.8155750795     1.6462203285
   28      H       5.8827737509     1.4776063046     2.6080991059
   29      H       7.8873847107     1.2825070968     0.3735553983
   30      H       7.2646529431    -0.0781908237     1.3577318417
   31      H       6.4586430119     0.0533925620    -1.3356522117
   32      O      -2.4450334956     1.9475414487     1.6634119691
   33      C      -4.6159524342    -3.0911407398     2.5007436959
   34      C      -5.2252208468    -0.7480569654    -1.0936022722
   35      C      -6.2276368703     0.1212812638    -1.9493871029
   36      C      -5.3125969243     1.3404138402    -2.3400567670
   37      C      -3.9570279133     0.9457030367    -1.6302947614
   38      O      -3.9199531000    -0.5304465900    -1.7548354519
   39      H      -6.0113818203     0.2890053831     0.7261019858
   40      H      -4.6311697316     2.1361581451     0.1512352702
   41      H      -4.4833434788    -2.6193383357     3.4956348582
   42      H      -5.4624209401    -1.8278684110    -1.0316063210
   43      H      -6.5567628716    -0.4386249953    -2.8390897928
   44      H      -7.1158311778     0.4216076314    -1.3711847594
   45      H      -5.1689850419     1.4036651246    -3.4304704482
   46      H      -5.7083784241     2.3036989533    -1.9800233505
   47      H      -3.0453956214     1.3926047913    -2.0710388946
   48      H      -3.6305440016    -3.4620785023     2.1516679025
   49      H      -5.3226576242    -3.9373422707     2.5818900554
   50      H       1.6997199436    -3.5447808209    -0.8957419937
   51      H       3.0326859748    -3.4248680966    -2.1139230949
   52      H       1.7853238311    -2.1285503976    -2.0192753001
   53      H       0.3979092569     1.8745025261    -0.4785742492
   54      H      -0.1563483553     2.4229446641     1.1639503242
   55      H       0.0184059303    -0.5619721203     0.2901899153
   56      H      -0.7158420157     0.0786843178     1.8193922522
 ----------------------------------------------------------------

    9   -1510.2882119405      4.73E-09 Convergence criterion met
 Total energy in the final basis set = -1510.28821194
 Final energy is   -1510.28821194055
 **  OPTIMIZATION CONVERGED  **

                    Orbital Energies (a.u.)
 --------------------------------------------------------------

 Alpha MOs
 -- Occupied --
-18.945 -18.937 -18.924 -18.916 -18.889 -18.887 -18.884 -18.880
-18.862 -18.859 -10.108 -10.101 -10.094 -10.087 -10.071 -10.065
-10.063 -10.061 -10.059 -10.059 -10.053 -10.051 -10.042 -10.037
-10.035 -10.030 -10.021 -10.020 -10.018 -10.017  -1.021  -1.016
 -1.001  -0.995  -0.971  -0.967  -0.945  -0.939  -0.928  -0.922
 -0.764  -0.760  -0.725  -0.721  -0.713  -0.704  -0.690  -0.668
 -0.651  -0.615  -0.596  -0.580  -0.546  -0.542  -0.538  -0.534
 -0.514  -0.507  -0.485  -0.473  -0.464  -0.454  -0.450  -0.444
 -0.434  -0.432  -0.428  -0.417  -0.410  -0.404  -0.401  -0.392
 -0.389  -0.381  -0.377  -0.363  -0.361  -0.354  -0.350  -0.345
 -0.339  -0.337  -0.334  -0.330  -0.328  -0.326  -0.322  -0.315
 -0.309  -0.306  -0.301  -0.300  -0.297  -0.283  -0.277  -0.275
 -0.270  -0.262  -0.256  -0.243  -0.240  -0.235  -0.231  -0.189
 -0.185  -0.163  -0.162  -0.160  -0.156  -0.145  -0.142  -0.142
 -0.139

          Ground-State Mulliken Net Atomic Charges

     Atom                 Charge (a.u.)
  ----------------------------------------
      1 O                    -0.207877
      2 C                     0.215072
      3 C                    -0.078283
      4 C                    -0.081694
      5 C                     0.214256
      6 O                    -0.169846
      7 C                    -0.049776
      8 C                    -0.055242
      9 O                    -0.170118
     10 C                     0.213652
     11 C                    -0.078058
     12 C                    -0.080962
     13 C                     0.216034
     14 O                    -0.215015
     15 O                    -0.168919
     16 O                    -0.178916
     17 O                    -0.208726
     18 C                    -0.129252
     19 C                     0.025318
     20 C                    -0.143885
     21 C                    -0.143828
     22 C                     0.024521
     23 O                    -0.188986
     24 H                     0.087264
     25 H                     0.083046
     26 H                     0.083870
     27 H                     0.077978
     28 H                     0.073703
     29 H                     0.077777
     30 H                     0.072950
     31 H                     0.090219
     32 O                    -0.221726
     33 C                    -0.127993
     34 C                     0.024988
     35 C                    -0.143794
     36 C                    -0.144312
     37 C                     0.026686
     38 O                    -0.186793
     39 H                     0.086727
     40 H                     0.083269
     41 H                     0.091225
     42 H                     0.087318
     43 H                     0.078420
     44 H                     0.073532
     45 H                     0.078434
     46 H                     0.073595
     47 H                     0.086798
     48 H                     0.091357
     49 H                     0.092473
     50 H                     0.085377
     51 H                     0.086452
     52 H                     0.092905
     53 H                     0.092342
     54 H                     0.099704
     55 H                     0.092026
     56 H                     0.094716
  ----------------------------------------
  Sum of atomic charges =     0.000000

                    Cartesian Multipole Moments
 -----------------------------------------------------------------
    Charge (ESU x 10^10)
                -0.0000
    Dipole Moment (Debye)
         X      -2.3936      Y      -1.0373      Z       2.1197
       Tot       3.3613
    Quadrupole Moments (Debye-Ang)
        XX    -137.4584     XY       0.3153     YY    -153.0798
        XZ      12.9904     YZ      -5.6581     ZZ    -165.1053

 Total job time:  64.57s(wall), 3072.14s(cpu)
        *  Thank you very much for using Q-Chem.  Have a nice day.  *
