 Q-Chem 5.0, Q-Chem, Inc., Pleasanton, CA (2017)
 Q-Chem 5.0.1 for Intel X86 EM64T Linux

User input:
--------------------------------------------------------------
$molecule
0  1
O -3.94934 -3.66094 2.70899
C -3.26408 -4.56952 2.26188
C -3.36658 -6.02376 2.66595
C -4.4156 -6.385 3.73034
C -5.36556 -5.28237 4.14249
O -6.50618 -5.3488 3.39416
C -7.44641 -4.31593 3.70781
C -8.22555 -4.67924 4.96761
O -8.5646 -3.48755 5.69409
C -9.50373 -2.69895 5.11503
C -9.79889 -1.45192 5.91407
C -11.22232 -0.89956 5.74963
C -12.2277 -1.84136 5.11803
O -13.13544 -2.40884 5.70841
O -2.3329 -4.28086 1.31507
O -12.16428 -1.97229 3.76675
O -9.76405 -2.76504 3.92232
C -13.01865 -2.75392 3.01712
C -9.73669 -1.62309 7.4511
C -9.4632 -0.26982 8.10544
C -10.78445 0.42932 7.8701
C -11.58831 -0.71276 7.23831
O -11.06455 -1.87433 7.83286
H -9.03367 -0.70517 5.6035
H -11.27411 0.06426 5.19683
H -8.9828 -2.35882 7.80311
H -9.35003 -0.45423 9.19816
H -8.56665 0.2705 7.73244
H -11.2111 0.71396 8.85759
H -10.7415 1.31681 7.2022
H -12.67677 -0.53729 7.38744
O -5.09734 -4.41869 4.97109
C -2.0987 -3.01699 0.8154
C -3.79382 -6.93044 1.49742
C -3.31141 -8.35767 1.74795
C -4.24287 -8.77567 2.86498
C -5.13222 -7.53055 2.96461
O -5.18534 -7.04871 1.64406
H -2.34551 -6.30545 3.00889
H -3.98441 -6.79903 4.66857
H -1.78117 -2.33497 1.63298
H -3.43525 -6.57369 0.50715
H -3.55571 -8.95479 0.84019
H -2.22716 -8.45521 1.97125
H -4.83972 -9.64733 2.51497
H -3.75018 -9.01732 3.83143
H -6.10607 -7.80388 3.428
H -3.0167 -2.62105 0.33069
H -1.28918 -3.06921 0.05879
H -12.73735 -2.67642 1.94693
H -14.06557 -2.40244 3.13847
H -12.9392 -3.81648 3.33184
H -9.08963 -5.35133 4.77034
H -7.54585 -5.22837 5.65154
H -8.14462 -4.18602 2.85623
H -6.91511 -3.34125 3.8189
$end

$opt
CONSTRAINT
tors           1           2           3           4      -0.254
tors           3           4           5           6     +93.436
tors           4           5           6           7    -178.757
tors           5           6           7           8     -79.996
tors           6           7           8           9    +147.835
tors           7           8           9          10     +70.455
tors           8           9          10          11    -179.010
tors           9          10          11          12    -151.295
tors          11          12          13          14    +107.195
ENDCONSTRAINT
$end

$rem
JOBTYPE                   OPT
METHOD                    B3LYP
DFT_D                     d3_op
BASIS                     STO-3G
GEOM_OPT_MAX_CYCLES       100
GEOM_OPT_TOL_GRADIENT     300
GEOM_OPT_TOL_DISPLACEMENT 1200
GEOM_OPT_TOL_ENERGY       100
SYMMETRY                  False
THRESH                    12
SCF_CONVERGENCE           8
MAX_SUB_FILE_NUM          128
MEM_STATIC                400
MEM_TOTAL                 4000
$end
--------------------------------------------------------------

   15   -1510.1439636527      6.49E-09 Convergence criterion met
 Total energy in the final basis set = -1510.14396365
   14   -1510.2143685923      6.59E-09 Convergence criterion met
 Total energy in the final basis set = -1510.21436859
   14   -1510.2520150159      5.56E-09 Convergence criterion met
 Total energy in the final basis set = -1510.25201502
   14   -1510.2686716609      5.98E-09 Convergence criterion met
 Total energy in the final basis set = -1510.26867166
   13   -1510.2747852036      8.07E-09 Convergence criterion met
 Total energy in the final basis set = -1510.27478520
    2   -1510.2747852036      9.60E-09 Convergence criterion met
 Total energy in the final basis set = -1510.27478520
   13   -1510.2775840621      4.84E-09 Convergence criterion met
 Total energy in the final basis set = -1510.27758406
   13   -1510.2792379638      3.06E-09 Convergence criterion met
   11   -1510.2839741962      8.76E-09 Convergence criterion met
 Total energy in the final basis set = -1510.28397420
   11   -1510.2840042691      6.06E-09 Convergence criterion met
 Total energy in the final basis set = -1510.28400427
   10   -1510.2840253221      9.76E-09 Convergence criterion met
 Total energy in the final basis set = -1510.28402532
   11   -1510.2840378631      4.61E-09 Convergence criterion met
 Total energy in the final basis set = -1510.28403786
    9   -1510.2840410666      6.45E-09 Convergence criterion met
 Total energy in the final basis set = -1510.28404107
    9   -1510.2840424595      4.49E-09 Convergence criterion met
 Total energy in the final basis set = -1510.28404246

             Standard Nuclear Orientation (Angstroms)
    I     Atom           X                Y                Z
 ----------------------------------------------------------------
    1      O       3.1656759518    -1.0948001591     1.3300505337
    2      C       4.3931463162    -0.9697544601     1.1175731471
    3      C       5.0807742042    -0.4377910633    -0.1844466993
    4      C       4.0413441852    -0.0398853609    -1.3125749628
    5      C       2.5444152743    -0.3769864260    -0.9582010427
    6      O       1.9309618258     0.7766966931    -0.3610171172
    7      C       0.5309655057     0.4766143315     0.0090039205
    8      C      -0.4496959083     0.5584177412    -1.2311091475
    9      O      -1.5751726675    -0.4025213861    -1.1170107217
   10      C      -2.4757782694     0.0061185693    -0.0870276386
   11      C      -3.6448332966    -1.0390146076     0.0324330258
   12      C      -4.9834458114    -0.3718752524     0.5560314465
   13      C      -4.8048620392     1.0665554621     1.1642513197
   14      O      -5.1507501881     2.1557549629     0.6592684370
   15      O       5.4058628840    -1.3031273980     2.0675967555
   16      O      -4.3288553741     0.9086946102     2.5099268832
   17      O      -2.3502668071     1.0677353159     0.5652287288
   18      C      -4.0804169276     2.2370416326     3.1105552828
   19      C      -4.1065177948    -1.5049976549    -1.4119195186
   20      C      -5.1683624698    -2.6679197063    -1.2796425688
   21      C      -6.4643221365    -1.8650858214    -0.8890497486
   22      C      -5.8773203409    -0.4066956974    -0.7548253063
   23      O      -4.9008417001    -0.3392007222    -1.8678507180
   24      H      -3.3186667559    -1.8798344040     0.6718041274
   25      H      -5.4250665323    -1.0030811194     1.3477991468
   26      H      -3.2670845337    -1.7016498265    -2.1057445974
   27      H      -5.2888565746    -3.1911567506    -2.2413859298
   28      H      -4.8783105209    -3.4039542414    -0.5125402213
   29      H      -7.2184220803    -1.9033462219    -1.6916067096
   30      H      -6.9235837920    -2.2223990954     0.0463718304
   31      H      -6.6086250303     0.4213272568    -0.8310398930
   32      O       1.9341142751    -1.4292795595    -1.2473907567
   33      C       4.7833793462    -1.8036845375     3.3161062885
   34      C       5.7938971123     0.9603934102     0.0745666980
   35      C       6.7383658600     1.2721262929    -1.1529495976
   36      C       5.6865721608     1.6907061313    -2.2460810719
   37      C       4.3329047887     1.5150841120    -1.4502699510
   38      O       4.6880553215     1.9314495774    -0.0734025859
   39      H       5.8025829317    -1.1969536893    -0.5366798012
   40      H       4.2771810990    -0.5760306491    -2.2492092125
   41      H       4.2001552292    -2.7299046467     3.1360097887
   42      H       6.2656693700     1.0486772154     1.0724554327
   43      H       7.4240382749     2.0999691229    -0.9120438095
   44      H       7.3345411403     0.3940271631    -1.4482604331
   45      H       5.8189818671     2.7407637257    -2.5516921828
   46      H       5.7264299088     1.0524975724    -3.1429308743
   47      H       3.4789048543     2.1103236810    -1.8257129621
   48      H       4.1114359028    -1.0460755398     3.7681824969
   49      H       5.6188717573    -2.0200268463     4.0068511678
   50      H      -3.8131296176     2.0531429641     4.1674592988
   51      H      -4.9790207961     2.8851376011     3.0589233807
   52      H      -3.2413845203     2.7532879126     2.6001558642
   53      H      -0.8309615869     1.5942344376    -1.3533465683
   54      H       0.0876508702     0.2532883191    -2.1510434654
   55      H       0.2449726071     1.2273939037     0.7713676878
   56      H       0.4595958464    -0.5427752312     0.4471510700
 ----------------------------------------------------------------

    9   -1510.2840427846      3.30E-09 Convergence criterion met
 Total energy in the final basis set = -1510.28404278
 Final energy is   -1510.28404278461
 **  OPTIMIZATION CONVERGED  **

                    Orbital Energies (a.u.)
 --------------------------------------------------------------

 Alpha MOs
 -- Occupied --
-18.944 -18.939 -18.924 -18.916 -18.889 -18.887 -18.881 -18.880
-18.861 -18.858 -10.108 -10.102 -10.093 -10.087 -10.071 -10.069
-10.063 -10.062 -10.059 -10.054 -10.053 -10.050 -10.042 -10.037
-10.035 -10.028 -10.022 -10.020 -10.016 -10.015  -1.021  -1.016
 -1.001  -0.994  -0.971  -0.965  -0.945  -0.939  -0.927  -0.921
 -0.764  -0.758  -0.725  -0.721  -0.712  -0.703  -0.688  -0.668
 -0.650  -0.615  -0.595  -0.580  -0.547  -0.540  -0.538  -0.533
 -0.514  -0.505  -0.483  -0.476  -0.464  -0.453  -0.449  -0.445
 -0.435  -0.430  -0.426  -0.417  -0.410  -0.402  -0.398  -0.396
 -0.387  -0.379  -0.378  -0.364  -0.361  -0.356  -0.348  -0.345
 -0.338  -0.336  -0.331  -0.330  -0.327  -0.325  -0.319  -0.315
 -0.309  -0.306  -0.302  -0.301  -0.296  -0.283  -0.278  -0.272
 -0.271  -0.262  -0.256  -0.242  -0.240  -0.234  -0.229  -0.188
 -0.185  -0.164  -0.161  -0.160  -0.154  -0.147  -0.142  -0.140
 -0.138

          Ground-State Mulliken Net Atomic Charges

     Atom                 Charge (a.u.)
  ----------------------------------------
      1 O                    -0.206399
      2 C                     0.214679
      3 C                    -0.078045
      4 C                    -0.081858
      5 C                     0.213559
      6 O                    -0.171358
      7 C                    -0.051263
      8 C                    -0.049539
      9 O                    -0.166096
     10 C                     0.214071
     11 C                    -0.076331
     12 C                    -0.082066
     13 C                     0.213994
     14 O                    -0.218532
     15 O                    -0.168795
     16 O                    -0.174124
     17 O                    -0.211576
     18 C                    -0.128167
     19 C                     0.022898
     20 C                    -0.145063
     21 C                    -0.142932
     22 C                     0.023467
     23 O                    -0.191732
     24 H                     0.086874
     25 H                     0.083198
     26 H                     0.091852
     27 H                     0.077651
     28 H                     0.072869
     29 H                     0.077224
     30 H                     0.072669
     31 H                     0.088274
     32 O                    -0.221310
     33 C                    -0.128123
     34 C                     0.025199
     35 C                    -0.143894
     36 C                    -0.144196
     37 C                     0.026122
     38 O                    -0.187891
     39 H                     0.087172
     40 H                     0.082977
     41 H                     0.090917
     42 H                     0.086124
     43 H                     0.078407
     44 H                     0.073734
     45 H                     0.078135
     46 H                     0.073479
     47 H                     0.088070
     48 H                     0.092071
     49 H                     0.092357
     50 H                     0.085511
     51 H                     0.086867
     52 H                     0.091215
     53 H                     0.091681
     54 H                     0.093423
     55 H                     0.096259
     56 H                     0.096294
  ----------------------------------------
  Sum of atomic charges =    -0.000000

                    Cartesian Multipole Moments
 -----------------------------------------------------------------
    Charge (ESU x 10^10)
                 0.0000
    Dipole Moment (Debye)
         X       2.7869      Y      -2.0069      Z       0.9658
       Tot       3.5675
    Quadrupole Moments (Debye-Ang)
        XX    -142.5560     XY       7.7133     YY    -161.8049
        XZ      -6.0588     YZ      -3.0847     ZZ    -151.6615

 Total job time:  61.16s(wall), 2909.68s(cpu)
        *  Thank you very much for using Q-Chem.  Have a nice day.  *
